
Predictions were generated on 02-Oct-2023 at 11:46:25 using OpenFAST, compiled as a 64-bit application using double precision at commit v3.5.0-86-g378154c6
 linked with  NWTC Subroutine Library; ElastoDyn; InflowWind; AeroDyn; HydroDyn; MoorDyn (v2.0.0, 2023-09-18)

Description from the FAST input file: Floating MHK turbine, based on the RM1 tidal current rotor

Time	PtfmSurge	PtfmSway	PtfmHeave	PtfmRoll	PtfmPitch	PtfmYaw	TwrTpTDxi	TwrTpTDyi	TwrTpTDzi	OoPDefl1	TwN1Fbx	TwN3Fby	TwN4Fbz	TwN1Mbx	TwN2Mby	TwN3Mbz	B2N4Fbn	B1N7Fbt	B2N8Fbs	B1N2Mbn	B2N3Mbt	B1N6Mbs	B1FldFz	B2FldMx	HbFbx	HbFby	HbFbz	HbMbx	HbMby	HbMbz	NcFbx	NcFby	NcFbz	NcMbx	NcMby	NcMbz	RtFldFxh	RtFldFyh	RtFldFzg	RtFldMxh	RtFldMyg	RtFldMzh	B1N3SigCr	B2N5SigCr	B1N2SgCav	B2N6SgCav	Wave1Elev	HydroFxi	HydroFyi	HydroFzi	FAIRTEN1	FAIRTEN2	FAIRTEN3	FAIRTEN4	FAIRTEN5	FAIRTEN6	ANCHTEN1	ANCHTEN2	ANCHTEN3	ANCHTEN4	ANCHTEN5	ANCHTEN6	P1FX	P1FY	P1FZ	P2FX	P2FY	P2FZ	P3FX	P3FY	P3FZ	P4FX	P4FY	P4FZ	P5FX	P5FY	P5FZ	P6FX	P6FY	P6FZ	P7FX	P7FY	P7FZ	P7PX	P7PY	P7PZ	P8FX	P8FY	P8FZ	P8PX	P8PY	P8PZ	P9FX	P9FY	P9FZ	P9PX	P9PY	P9PZ	P10FX	P10FY	P10FZ	P10PX	P10PY	P10PZ	P11FX	P11FY	P11FZ	P11PX	P11PY	P11PZ	P12FX	P12FY	P12FZ	P12PX	P12PY	P12PZ	L1N1PZ	L1N2PZ	L1N3PZ	L1N4PZ	L1N5PZ	L1N6PZ	L1N7PZ	L1N8PZ	L1N9PZ	L1N10PZ	L1N11PZ	L1N12PZ	L1N13PZ	L1N14PZ	L1N15PZ	L1N16PZ	L1N17PZ	L1N18PZ	L1N19PZ	L1N20PZ	L1N21PZ	L1N22PZ	L1N23PZ	L1N24PZ	L1N25PZ	L1N26PZ	L1N27PZ	L1N28PZ	L1N29PZ	L1N30PZ	L2N1PZ	L2N2PZ	L2N3PZ	L2N4PZ	L2N5PZ	L2N6PZ	L2N7PZ	L2N8PZ	L2N9PZ	L2N10PZ	L2N11PZ	L2N12PZ	L2N13PZ	L2N14PZ	L2N15PZ	L2N16PZ	L2N17PZ	L2N18PZ	L2N19PZ	L2N20PZ	L2N21PZ	L2N22PZ	L2N23PZ	L2N24PZ	L2N25PZ	L2N26PZ	L2N27PZ	L2N28PZ	L2N29PZ	L2N30PZ
(s)	(m)	(m)	(m)	(deg)	(deg)	(deg)	(m)	(m)	(m)	(m)	(N/m)	(N/m)	(N/m)	(N-m/m)	(N-m/m)	(N-m/m)	(N/m)	(N/m)	(N/m)	(N-m/m)	(N-m/m)	(N-m/m)	(N)	(N-m)	(N)	(N)	(N)	(N-m)	(N-m)	(N-m)	(N)	(N)	(N)	(N-m)	(N-m)	(N-m)	(N)	(N)	(N)	(N-m)	(N-m)	(N-m)	(-)	(-)	(-)	(-)	(m)	(N)	(N)	(N)	(N)	(N)	(N)	(N)	(N)	(N)	(N)	(N)	(N)	(N)	(N)	(N)	(N)	(N)	(N)	(N)	(N)	(N)	(N)	(N)	(N)	(N)	(N)	(N)	(N)	(N)	(N)	(N)	(N)	(N)	(N)	(N)	(N)	(m)	(m)	(m)	(N)	(N)	(N)	(m)	(m)	(m)	(N)	(N)	(N)	(m)	(m)	(m)	(N)	(N)	(N)	(m)	(m)	(m)	(N)	(N)	(N)	(m)	(m)	(m)	(N)	(N)	(N)	(m)	(m)	(m)	(m)	(m)	(m)	(m)	(m)	(m)	(m)	(m)	(m)	(m)	(m)	(m)	(m)	(m)	(m)	(m)	(m)	(m)	(m)	(m)	(m)	(m)	(m)	(m)	(m)	(m)	(m)	(m)	(m)	(m)	(m)	(m)	(m)	(m)	(m)	(m)	(m)	(m)	(m)	(m)	(m)	(m)	(m)	(m)	(m)	(m)	(m)	(m)	(m)	(m)	(m)	(m)	(m)	(m)	(m)	(m)	(m)	(m)	(m)	(m)
    0.0000	 2.000E+01	 0.000E+00	 0.000E+00	 0.000E+00	 0.000E+00	 0.000E+00	 2.000E+01	-0.000E+00	 0.000E+00	 0.000E+00	 1.023E-13	 0.000E+00	 1.253E-29	 0.000E+00	-1.023E-13	 0.000E+00	 4.975E+02	 1.453E+02	-1.264E+04	-1.875E+03	 1.756E+03	-8.041E+00	-9.599E+04	 1.170E+05	 2.368E-27	-5.061E-12	 6.231E+04	 4.943E+04	-1.563E+04	-2.588E-12	-2.455E-12	 0.000E+00	 4.081E+05	 0.000E+00	-1.668E+05	 0.000E+00	 4.223E+05	-6.645E+03	 1.239E+05	 4.039E+05	 1.430E+05	 1.565E-10	 3.349E+01	 1.622E+01	 4.252E+00	 1.442E+00	 9.414E-01	 1.099E+06	-1.356E+01	 2.675E+07	 5.825E+05	 5.261E+05	 5.825E+05	 2.198E+05	 2.332E+05	 2.198E+05	 3.599E+05	 3.034E+05	 3.599E+05	 1.465E+04	 2.161E+04	 1.465E+04	 3.389E+05	 1.203E+05	-1.503E+04	 3.030E+05	 0.000E+00	-1.425E+04	 3.389E+05	-1.203E+05	-1.503E+04	-1.424E+02	 6.034E+01	-1.465E+04	 1.655E+04	 0.000E+00	-1.390E+04	-1.424E+02	-6.034E+01	-1.465E+04	-3.422E+05	-1.308E+05	-4.529E+05	-1.400E+01	 0.000E+00	-1.000E+01	-3.135E+05	 0.000E+00	-4.225E+05	-1.400E+01	 0.000E+00	-1.000E+01	-3.422E+05	 1.308E+05	-4.529E+05	-1.400E+01	 0.000E+00	-1.000E+01	-7.946E+02	-5.702E+02	-2.198E+05	 5.400E+01	 0.000E+00	-1.000E+01	-1.501E+04	 0.000E+00	-2.327E+05	 5.400E+01	 0.000E+00	-1.000E+01	-7.946E+02	 5.702E+02	-2.198E+05	 5.400E+01	 0.000E+00	-1.000E+01	-5.001E+01	-5.001E+01	-5.001E+01	-5.001E+01	-5.001E+01	-5.001E+01	-5.001E+01	-5.001E+01	-5.001E+01	-5.001E+01	-5.001E+01	-5.001E+01	-5.001E+01	-5.001E+01	-4.995E+01	-4.934E+01	-4.836E+01	-4.697E+01	-4.527E+01	-4.320E+01	-4.083E+01	-3.824E+01	-3.541E+01	-3.232E+01	-2.905E+01	-2.555E+01	-2.187E+01	-1.806E+01	-1.409E+01	-1.000E+01	-5.001E+01	-5.001E+01	-5.001E+01	-5.001E+01	-5.001E+01	-5.001E+01	-5.001E+01	-5.001E+01	-5.001E+01	-5.001E+01	-5.001E+01	-5.001E+01	-5.001E+01	-5.001E+01	-4.997E+01	-4.937E+01	-4.831E+01	-4.689E+01	-4.513E+01	-4.299E+01	-4.059E+01	-3.799E+01	-3.517E+01	-3.207E+01	-2.884E+01	-2.538E+01	-2.174E+01	-1.795E+01	-1.402E+01	-1.000E+01
    0.0300	 2.000E+01	 4.104E-09	-7.314E-06	 2.296E-08	-2.501E-04	-8.817E-09	 2.000E+01	-3.277E-06	-7.271E-06	 3.918E-02	 3.614E-02	 8.390E-04	 1.049E-06	 6.850E-03	-2.183E-02	 6.204E-07	 7.228E+02	 1.918E+02	-1.264E+04	-1.881E+03	 1.759E+03	-3.018E+01	-9.649E+04	 1.834E+04	 1.379E+01	 2.633E+03	 6.220E+04	 4.943E+04	-1.562E+04	 5.852E+02	 7.475E+00	 2.780E+00	 4.081E+05	-2.056E-05	-1.668E+05	 1.167E+00	 2.238E+05	 3.621E+03	 1.236E+05	 1.385E+05	 6.105E+04	 1.302E+03	 3.312E+01	 1.593E+01	 3.745E+00	 1.153E+00	 9.307E-01	 1.075E+06	 9.160E+00	 2.679E+07	 5.655E+05	 5.144E+05	 5.655E+05	 2.293E+05	 2.429E+05	 2.293E+05	 3.578E+05	 3.075E+05	 3.578E+05	 1.465E+04	 2.154E+04	 1.465E+04	 3.370E+05	 1.194E+05	-1.503E+04	 3.071E+05	 0.000E+00	-1.426E+04	 3.370E+05	-1.194E+05	-1.503E+04	-1.393E+02	 5.901E+01	-1.465E+04	 1.646E+04	-0.000E+00	-1.390E+04	-1.393E+02	-5.901E+01	-1.465E+04	-3.322E+05	-1.269E+05	-4.397E+05	-1.400E+01	 1.334E-08	-1.000E+01	-3.061E+05	-1.260E-03	-4.134E+05	-1.400E+01	 1.334E-08	-1.000E+01	-3.322E+05	 1.269E+05	-4.397E+05	-1.400E+01	 1.334E-08	-1.000E+01	-8.199E+02	-5.497E+02	-2.293E+05	 5.400E+01	 2.879E-09	-1.000E+01	-1.596E+04	-1.411E-04	-2.423E+05	 5.400E+01	 2.879E-09	-1.000E+01	-8.199E+02	 5.497E+02	-2.293E+05	 5.400E+01	 2.879E-09	-1.000E+01	-5.001E+01	-5.001E+01	-5.001E+01	-5.001E+01	-5.001E+01	-5.001E+01	-5.001E+01	-5.001E+01	-5.001E+01	-5.001E+01	-5.001E+01	-5.001E+01	-5.001E+01	-5.001E+01	-4.994E+01	-4.933E+01	-4.836E+01	-4.698E+01	-4.527E+01	-4.320E+01	-4.083E+01	-3.825E+01	-3.541E+01	-3.232E+01	-2.905E+01	-2.555E+01	-2.186E+01	-1.805E+01	-1.409E+01	-1.000E+01	-5.001E+01	-5.001E+01	-5.001E+01	-5.001E+01	-5.001E+01	-5.001E+01	-5.001E+01	-5.001E+01	-5.001E+01	-5.001E+01	-5.001E+01	-5.001E+01	-5.001E+01	-5.001E+01	-4.996E+01	-4.936E+01	-4.830E+01	-4.690E+01	-4.514E+01	-4.300E+01	-4.059E+01	-3.800E+01	-3.517E+01	-3.207E+01	-2.884E+01	-2.539E+01	-2.174E+01	-1.795E+01	-1.402E+01	-1.000E+01
    0.0600	 2.000E+01	 6.600E-09	-2.713E-05	 6.221E-09	-9.787E-04	 8.386E-07	 2.001E+01	-8.732E-05	-2.587E-05	 6.496E-02	 1.618E-01	-4.844E-03	 4.065E-05	 1.721E-02	-8.404E-02	 3.877E-06	 8.538E+02	 2.387E+02	-1.264E+04	-1.887E+03	 1.761E+03	-4.458E+01	-9.739E+04	 2.874E+04	 3.518E+01	 5.305E+03	 6.200E+04	 4.943E+04	-1.558E+04	 1.179E+03	 8.948E+01	 1.743E+00	 4.081E+05	 9.664E-06	-1.668E+05	 6.982E-01	 2.804E+05	 6.836E+03	 1.227E+05	 1.720E+05	 1.694E+05	 2.527E+03	 3.230E+01	 1.546E+01	 3.157E+00	 1.185E+00	 9.201E-01	 1.045E+06	-7.038E+01	 2.678E+07	 5.602E+05	 5.144E+05	 5.603E+05	 2.293E+05	 2.426E+05	 2.293E+05	 3.470E+05	 2.992E+05	 3.470E+05	 1.465E+04	 2.148E+04	 1.465E+04	 3.268E+05	 1.155E+05	-1.501E+04	 2.988E+05	 0.000E+00	-1.425E+04	 3.268E+05	-1.155E+05	-1.501E+04	-1.361E+02	 5.767E+01	-1.465E+04	 1.637E+04	-0.000E+00	-1.390E+04	-1.361E+02	-5.767E+01	-1.465E+04	-3.293E+05	-1.258E+05	-4.354E+05	-1.400E+01	-4.899E-07	-1.000E+01	-3.058E+05	 4.903E-02	-4.136E+05	-1.400E+01	-4.899E-07	-1.000E+01	-3.293E+05	 1.258E+05	-4.355E+05	-1.400E+01	-4.899E-07	-1.000E+01	-7.966E+02	-5.081E+02	-2.293E+05	 5.400E+01	 5.053E-07	-9.999E+00	-1.623E+04	-2.288E-02	-2.420E+05	 5.400E+01	 5.053E-07	-9.999E+00	-7.966E+02	 5.081E+02	-2.293E+05	 5.400E+01	 5.053E-07	-9.999E+00	-5.001E+01	-5.001E+01	-5.001E+01	-5.001E+01	-5.001E+01	-5.001E+01	-5.001E+01	-5.001E+01	-5.001E+01	-5.001E+01	-5.001E+01	-5.001E+01	-5.001E+01	-5.000E+01	-4.993E+01	-4.933E+01	-4.836E+01	-4.699E+01	-4.527E+01	-4.320E+01	-4.083E+01	-3.825E+01	-3.542E+01	-3.233E+01	-2.905E+01	-2.554E+01	-2.186E+01	-1.805E+01	-1.409E+01	-1.000E+01	-5.001E+01	-5.001E+01	-5.001E+01	-5.001E+01	-5.001E+01	-5.001E+01	-5.001E+01	-5.001E+01	-5.001E+01	-5.001E+01	-5.001E+01	-5.001E+01	-5.001E+01	-5.001E+01	-4.995E+01	-4.936E+01	-4.830E+01	-4.690E+01	-4.514E+01	-4.300E+01	-4.059E+01	-3.800E+01	-3.517E+01	-3.207E+01	-2.884E+01	-2.539E+01	-2.174E+01	-1.795E+01	-1.403E+01	-1.000E+01
    0.0900	 2.000E+01	 1.924E-08	-5.520E-05	-1.198E-07	-2.192E-03	 2.845E-06	 2.001E+01	-2.490E-04	-4.791E-05	 7.751E-02	 2.997E-01	-1.254E-02	 2.278E-04	 5.678E-02	-1.159E-01	 4.327E-05	 8.675E+02	 2.858E+02	-1.263E+04	-1.893E+03	 1.760E+03	-5.105E+01	-9.804E+04	 2.019E+04	 8.572E+01	 8.020E+03	 6.171E+04	 4.944E+04	-1.552E+04	 1.782E+03	 3.540E+02	 8.334E+00	 4.080E+05	 1.607E-06	-1.668E+05	 3.405E+00	 2.830E+05	 8.642E+03	 1.212E+05	 1.727E+05	 3.620E+05	 3.818E+03	 3.127E+01	 1.512E+01	 2.735E+00	 1.136E+00	 9.094E-01	 1.020E+06	 2.360E+02	 2.679E+07	 5.625E+05	 5.159E+05	 5.625E+05	 2.270E+05	 2.414E+05	 2.270E+05	 3.401E+05	 2.949E+05	 3.402E+05	 1.465E+04	 2.142E+04	 1.465E+04	 3.204E+05	 1.131E+05	-1.501E+04	 2.945E+05	 0.000E+00	-1.424E+04	 3.205E+05	-1.131E+05	-1.501E+04	-1.332E+02	 5.644E+01	-1.465E+04	 1.630E+04	-0.000E+00	-1.390E+04	-1.332E+02	-5.644E+01	-1.465E+04	-3.309E+05	-1.264E+05	-4.369E+05	-1.400E+01	-1.690E-06	-1.000E+01	-3.064E+05	 1.685E-01	-4.151E+05	-1.400E+01	-1.690E-06	-1.000E+01	-3.309E+05	 1.264E+05	-4.370E+05	-1.400E+01	-1.690E-06	-1.000E+01	-7.545E+02	-4.662E+02	-2.270E+05	 5.400E+01	 1.687E-06	-9.999E+00	-1.642E+04	-7.573E-02	-2.408E+05	 5.400E+01	 1.687E-06	-9.999E+00	-7.545E+02	 4.661E+02	-2.270E+05	 5.400E+01	 1.687E-06	-9.999E+00	-5.001E+01	-5.001E+01	-5.001E+01	-5.001E+01	-5.001E+01	-5.001E+01	-5.001E+01	-5.001E+01	-5.001E+01	-5.001E+01	-5.001E+01	-5.001E+01	-5.001E+01	-5.000E+01	-4.992E+01	-4.932E+01	-4.836E+01	-4.700E+01	-4.527E+01	-4.320E+01	-4.084E+01	-3.826E+01	-3.542E+01	-3.233E+01	-2.906E+01	-2.554E+01	-2.186E+01	-1.804E+01	-1.409E+01	-1.000E+01	-5.001E+01	-5.001E+01	-5.001E+01	-5.001E+01	-5.001E+01	-5.001E+01	-5.001E+01	-5.001E+01	-5.001E+01	-5.001E+01	-5.001E+01	-5.001E+01	-5.001E+01	-5.001E+01	-4.995E+01	-4.935E+01	-4.830E+01	-4.691E+01	-4.515E+01	-4.301E+01	-4.060E+01	-3.801E+01	-3.517E+01	-3.208E+01	-2.884E+01	-2.539E+01	-2.173E+01	-1.794E+01	-1.403E+01	-1.000E+01
    0.1200	 2.000E+01	-8.571E-09	-9.346E-05	-9.587E-07	-3.906E-03	 7.928E-06	 2.002E+01	-5.711E-04	-7.013E-05	 8.271E-02	 4.624E-01	-3.484E-02	 6.357E-04	 9.332E-02	-1.382E-01	 1.064E-04	 8.398E+02	 3.334E+02	-1.262E+04	-1.899E+03	 1.759E+03	-5.297E+01	-9.844E+04	 6.444E+03	 1.579E+02	 1.077E+04	 6.133E+04	 4.945E+04	-1.544E+04	 2.392E+03	 7.431E+02	 2.970E+00	 4.080E+05	 1.281E-04	-1.668E+05	 1.024E+00	 2.653E+05	 1.251E+04	 1.197E+05	 1.553E+05	 5.428E+05	 5.059E+03	 3.056E+01	 1.469E+01	 2.467E+00	 1.071E+00	 8.972E-01	 9.906E+05	 3.638E+02	 2.679E+07	 5.592E+05	 5.115E+05	 5.593E+05	 2.288E+05	 2.422E+05	 2.288E+05	 3.506E+05	 3.032E+05	 3.506E+05	 1.465E+04	 2.137E+04	 1.465E+04	 3.304E+05	 1.163E+05	-1.502E+04	 3.029E+05	 0.000E+00	-1.425E+04	 3.304E+05	-1.163E+05	-1.502E+04	-1.305E+02	 5.530E+01	-1.465E+04	 1.623E+04	 0.000E+00	-1.390E+04	-1.305E+02	-5.530E+01	-1.465E+04	-3.292E+05	-1.258E+05	-4.342E+05	-1.400E+01	-4.880E-06	-1.000E+01	-3.034E+05	 4.798E-01	-4.118E+05	-1.400E+01	-4.880E-06	-1.000E+01	-3.293E+05	 1.259E+05	-4.343E+05	-1.400E+01	-4.880E-06	-1.000E+01	-7.185E+02	-4.380E+02	-2.288E+05	 5.400E+01	 4.529E-06	-9.998E+00	-1.676E+04	-2.035E-01	-2.416E+05	 5.400E+01	 4.529E-06	-9.998E+00	-7.185E+02	 4.376E+02	-2.288E+05	 5.400E+01	 4.529E-06	-9.998E+00	-5.001E+01	-5.001E+01	-5.001E+01	-5.001E+01	-5.001E+01	-5.001E+01	-5.001E+01	-5.001E+01	-5.001E+01	-5.001E+01	-5.001E+01	-5.001E+01	-5.001E+01	-5.000E+01	-4.990E+01	-4.932E+01	-4.837E+01	-4.701E+01	-4.527E+01	-4.320E+01	-4.084E+01	-3.827E+01	-3.543E+01	-3.234E+01	-2.906E+01	-2.554E+01	-2.186E+01	-1.804E+01	-1.409E+01	-1.000E+01	-5.001E+01	-5.001E+01	-5.001E+01	-5.001E+01	-5.001E+01	-5.001E+01	-5.001E+01	-5.001E+01	-5.001E+01	-5.001E+01	-5.001E+01	-5.001E+01	-5.001E+01	-5.001E+01	-4.994E+01	-4.934E+01	-4.830E+01	-4.692E+01	-4.515E+01	-4.302E+01	-4.060E+01	-3.802E+01	-3.517E+01	-3.208E+01	-2.884E+01	-2.539E+01	-2.173E+01	-1.794E+01	-1.403E+01	-1.000E+01
    0.1500	 2.000E+01	-7.632E-08	-1.452E-04	-2.991E-06	-6.134E-03	 1.753E-05	 2.004E+01	-1.097E-03	-9.164E-05	 8.365E-02	 6.785E-01	-7.421E-02	 1.396E-03	 1.348E-01	-1.896E-01	 1.655E-04	 8.158E+02	 3.814E+02	-1.260E+04	-1.905E+03	 1.758E+03	-5.196E+01	-9.866E+04	-1.478E+03	 2.357E+02	 1.354E+04	 6.084E+04	 4.946E+04	-1.533E+04	 3.009E+03	 1.162E+03	-1.374E+01	 4.080E+05	 3.958E-04	-1.668E+05	-6.204E+00	 2.476E+05	 1.854E+04	 1.184E+05	 1.368E+05	 6.446E+05	 6.299E+03	 2.982E+01	 1.441E+01	 2.355E+00	 1.028E+00	 8.842E-01	 9.629E+05	 4.133E+02	 2.680E+07	 5.721E+05	 5.217E+05	 5.723E+05	 2.291E+05	 2.351E+05	 2.291E+05	 3.600E+05	 3.056E+05	 3.602E+05	 1.465E+04	 2.132E+04	 1.465E+04	 3.394E+05	 1.192E+05	-1.503E+04	 3.052E+05	 0.000E+00	-1.426E+04	 3.395E+05	-1.193E+05	-1.503E+04	-1.280E+02	 5.423E+01	-1.465E+04	 1.617E+04	 0.000E+00	-1.390E+04	-1.280E+02	-5.423E+01	-1.465E+04	-3.372E+05	-1.290E+05	-4.437E+05	-1.400E+01	-1.100E-05	-1.000E+01	-3.093E+05	 1.094E+00	-4.201E+05	-1.400E+01	-1.100E-05	-1.000E+01	-3.374E+05	 1.290E+05	-4.439E+05	-1.400E+01	-1.100E-05	-1.000E+01	-6.701E+02	-4.100E+02	-2.291E+05	 5.400E+01	 9.804E-06	-9.997E+00	-1.650E+04	-4.251E-01	-2.345E+05	 5.400E+01	 9.804E-06	-9.997E+00	-6.701E+02	 4.092E+02	-2.291E+05	 5.400E+01	 9.804E-06	-9.997E+00	-5.001E+01	-5.001E+01	-5.001E+01	-5.001E+01	-5.001E+01	-5.001E+01	-5.001E+01	-5.001E+01	-5.001E+01	-5.001E+01	-5.001E+01	-5.001E+01	-5.001E+01	-5.000E+01	-4.989E+01	-4.931E+01	-4.837E+01	-4.702E+01	-4.527E+01	-4.320E+01	-4.085E+01	-3.827E+01	-3.543E+01	-3.235E+01	-2.906E+01	-2.554E+01	-2.186E+01	-1.804E+01	-1.408E+01	-1.000E+01	-5.001E+01	-5.001E+01	-5.001E+01	-5.001E+01	-5.001E+01	-5.001E+01	-5.001E+01	-5.001E+01	-5.001E+01	-5.001E+01	-5.001E+01	-5.001E+01	-5.001E+01	-5.001E+01	-4.993E+01	-4.934E+01	-4.830E+01	-4.693E+01	-4.516E+01	-4.303E+01	-4.061E+01	-3.803E+01	-3.517E+01	-3.209E+01	-2.884E+01	-2.539E+01	-2.173E+01	-1.794E+01	-1.404E+01	-1.000E+01
    0.1800	 2.000E+01	-1.517E-07	-2.138E-04	-6.746E-06	-8.929E-03	 3.278E-05	 2.005E+01	-1.837E-03	-1.156E-04	 8.482E-02	 8.893E-01	-1.267E-01	 2.415E-03	 2.109E-01	-2.320E-01	 3.263E-04	 8.013E+02	 4.295E+02	-1.258E+04	-1.911E+03	 1.757E+03	-5.119E+01	-9.896E+04	-5.028E+03	 3.218E+02	 1.633E+04	 6.026E+04	 4.947E+04	-1.520E+04	 3.628E+03	 1.625E+03	-2.946E+01	 4.080E+05	 7.124E-04	-1.668E+05	-1.310E+01	 2.394E+05	 2.420E+04	 1.170E+05	 1.288E+05	 7.248E+05	 7.548E+03	 2.903E+01	 1.414E+01	 2.327E+00	 9.991E-01	 8.712E-01	 9.375E+05	 7.751E+02	 2.682E+07	 5.849E+05	 5.239E+05	 5.852E+05	 2.297E+05	 2.577E+05	 2.297E+05	 3.733E+05	 3.150E+05	 3.735E+05	 1.465E+04	 2.130E+04	 1.465E+04	 3.520E+05	 1.234E+05	-1.504E+04	 3.147E+05	 0.000E+00	-1.427E+04	 3.522E+05	-1.234E+05	-1.504E+04	-1.256E+02	 5.321E+01	-1.465E+04	 1.613E+04	-0.000E+00	-1.390E+04	-1.256E+02	-5.321E+01	-1.465E+04	-3.453E+05	-1.322E+05	-4.532E+05	-1.400E+01	-2.078E-05	-1.001E+01	-3.104E+05	 2.054E+00	-4.220E+05	-1.400E+01	-2.078E-05	-1.001E+01	-3.455E+05	 1.323E+05	-4.534E+05	-1.400E+01	-2.078E-05	-1.001E+01	-6.172E+02	-3.857E+02	-2.297E+05	 5.400E+01	 1.813E-05	-9.995E+00	-1.846E+04	-8.620E-01	-2.570E+05	 5.400E+01	 1.813E-05	-9.995E+00	-6.172E+02	 3.842E+02	-2.297E+05	 5.400E+01	 1.813E-05	-9.995E+00	-5.001E+01	-5.001E+01	-5.001E+01	-5.001E+01	-5.001E+01	-5.001E+01	-5.001E+01	-5.001E+01	-5.001E+01	-5.001E+01	-5.001E+01	-5.001E+01	-5.001E+01	-5.000E+01	-4.988E+01	-4.931E+01	-4.838E+01	-4.703E+01	-4.528E+01	-4.320E+01	-4.086E+01	-3.828E+01	-3.544E+01	-3.236E+01	-2.906E+01	-2.554E+01	-2.186E+01	-1.803E+01	-1.408E+01	-1.001E+01	-5.001E+01	-5.001E+01	-5.001E+01	-5.001E+01	-5.001E+01	-5.001E+01	-5.001E+01	-5.001E+01	-5.001E+01	-5.001E+01	-5.001E+01	-5.001E+01	-5.001E+01	-5.000E+01	-4.992E+01	-4.933E+01	-4.830E+01	-4.693E+01	-4.516E+01	-4.304E+01	-4.062E+01	-3.804E+01	-3.517E+01	-3.210E+01	-2.884E+01	-2.539E+01	-2.173E+01	-1.794E+01	-1.404E+01	-1.001E+01
    0.2100	 2.000E+01	-2.565E-07	-3.046E-04	-1.340E-05	-1.233E-02	 5.517E-05	 2.006E+01	-2.789E-03	-1.508E-04	 8.656E-02	 1.077E+00	-1.951E-01	 3.517E-03	 3.032E-01	-2.614E-01	 5.617E-04	 8.058E+02	 4.779E+02	-1.255E+04	-1.918E+03	 1.755E+03	-5.093E+01	-9.936E+04	-3.683E+03	 4.113E+02	 1.912E+04	 5.958E+04	 4.948E+04	-1.505E+04	 4.248E+03	 2.103E+03	-5.219E+01	 4.080E+05	 1.139E-03	-1.668E+05	-2.303E+01	 2.422E+05	 3.032E+04	 1.156E+05	 1.304E+05	 7.762E+05	 8.745E+03	 2.831E+01	 1.389E+01	 2.333E+00	 9.928E-01	 8.574E-01	 9.108E+05	 1.173E+03	 2.682E+07	 5.879E+05	 5.225E+05	 5.883E+05	 2.314E+05	 2.359E+05	 2.314E+05	 3.868E+05	 3.196E+05	 3.871E+05	 1.465E+04	 2.128E+04	 1.465E+04	 3.649E+05	 1.276E+05	-1.506E+04	 3.193E+05	 0.000E+00	-1.427E+04	 3.651E+05	-1.277E+05	-1.506E+04	-1.233E+02	 5.225E+01	-1.465E+04	 1.611E+04	-0.000E+00	-1.390E+04	-1.233E+02	-5.225E+01	-1.465E+04	-3.475E+05	-1.332E+05	-4.551E+05	-1.400E+01	-3.533E-05	-1.001E+01	-3.095E+05	 3.439E+00	-4.210E+05	-1.400E+01	-3.533E-05	-1.001E+01	-3.477E+05	 1.333E+05	-4.554E+05	-1.400E+01	-3.533E-05	-1.001E+01	-5.640E+02	-3.654E+02	-2.314E+05	 5.400E+01	 3.014E-05	-9.993E+00	-1.705E+04	-1.298E+00	-2.353E+05	 5.400E+01	 3.014E-05	-9.993E+00	-5.640E+02	 3.630E+02	-2.314E+05	 5.400E+01	 3.014E-05	-9.993E+00	-5.001E+01	-5.001E+01	-5.001E+01	-5.001E+01	-5.001E+01	-5.001E+01	-5.001E+01	-5.001E+01	-5.001E+01	-5.001E+01	-5.001E+01	-5.001E+01	-5.001E+01	-5.000E+01	-4.986E+01	-4.931E+01	-4.838E+01	-4.704E+01	-4.528E+01	-4.321E+01	-4.087E+01	-3.829E+01	-3.545E+01	-3.236E+01	-2.906E+01	-2.555E+01	-2.186E+01	-1.803E+01	-1.408E+01	-1.001E+01	-5.001E+01	-5.001E+01	-5.001E+01	-5.001E+01	-5.001E+01	-5.001E+01	-5.001E+01	-5.001E+01	-5.001E+01	-5.001E+01	-5.001E+01	-5.001E+01	-5.001E+01	-5.000E+01	-4.991E+01	-4.932E+01	-4.830E+01	-4.694E+01	-4.517E+01	-4.305E+01	-4.063E+01	-3.804E+01	-3.517E+01	-3.210E+01	-2.884E+01	-2.538E+01	-2.173E+01	-1.794E+01	-1.404E+01	-1.001E+01
    0.2400	 2.000E+01	-4.083E-07	-4.199E-04	-2.438E-05	-1.637E-02	 8.562E-05	 2.008E+01	-3.925E-03	-2.040E-04	 8.808E-02	 1.270E+00	-2.798E-01	 4.744E-03	 3.942E-01	-3.114E-01	 7.421E-04	 8.353E+02	 5.263E+02	-1.252E+04	-1.925E+03	 1.754E+03	-5.042E+01	-9.978E+04	 2.836E+03	 4.912E+02	 2.191E+04	 5.879E+04	 4.949E+04	-1.487E+04	 4.868E+03	 2.527E+03	-8.768E+01	 4.080E+05	 1.712E-03	-1.668E+05	-3.839E+01	 2.547E+05	 3.720E+04	 1.144E+05	 1.381E+05	 7.535E+05	 9.927E+03	 2.770E+01	 1.355E+01	 2.364E+00	 1.009E+00	 8.422E-01	 8.862E+05	 1.426E+03	 2.683E+07	 5.932E+05	 5.244E+05	 5.936E+05	 2.304E+05	 2.463E+05	 2.304E+05	 3.855E+05	 3.128E+05	 3.858E+05	 1.465E+04	 2.125E+04	 1.465E+04	 3.637E+05	 1.269E+05	-1.506E+04	 3.125E+05	 0.000E+00	-1.426E+04	 3.640E+05	-1.270E+05	-1.506E+04	-1.212E+02	 5.136E+01	-1.465E+04	 1.608E+04	-0.000E+00	-1.390E+04	-1.212E+02	-5.136E+01	-1.465E+04	-3.511E+05	-1.347E+05	-4.588E+05	-1.400E+01	-5.547E-05	-1.001E+01	-3.107E+05	 5.338E+00	-4.224E+05	-1.400E+01	-5.547E-05	-1.001E+01	-3.513E+05	 1.348E+05	-4.591E+05	-1.400E+01	-5.547E-05	-1.001E+01	-5.027E+02	-3.422E+02	-2.304E+05	 5.400E+01	 4.615E-05	-9.991E+00	-1.808E+04	-2.064E+00	-2.457E+05	 5.400E+01	 4.615E-05	-9.991E+00	-5.027E+02	 3.386E+02	-2.304E+05	 5.400E+01	 4.615E-05	-9.991E+00	-5.001E+01	-5.001E+01	-5.001E+01	-5.001E+01	-5.001E+01	-5.001E+01	-5.001E+01	-5.001E+01	-5.001E+01	-5.001E+01	-5.001E+01	-5.001E+01	-5.001E+01	-5.000E+01	-4.985E+01	-4.930E+01	-4.838E+01	-4.705E+01	-4.529E+01	-4.321E+01	-4.088E+01	-3.829E+01	-3.545E+01	-3.237E+01	-2.906E+01	-2.555E+01	-2.186E+01	-1.803E+01	-1.408E+01	-1.001E+01	-5.001E+01	-5.001E+01	-5.001E+01	-5.001E+01	-5.001E+01	-5.001E+01	-5.001E+01	-5.001E+01	-5.001E+01	-5.001E+01	-5.001E+01	-5.001E+01	-5.001E+01	-5.000E+01	-4.990E+01	-4.931E+01	-4.831E+01	-4.695E+01	-4.517E+01	-4.306E+01	-4.065E+01	-3.805E+01	-3.517E+01	-3.211E+01	-2.883E+01	-2.538E+01	-2.173E+01	-1.794E+01	-1.404E+01	-1.001E+01
    0.2700	 2.000E+01	-5.734E-07	-5.614E-04	-4.102E-05	-2.106E-02	 1.249E-04	 2.009E+01	-5.258E-03	-2.824E-04	 9.028E-02	 1.450E+00	-3.794E-01	 5.921E-03	 5.002E-01	-3.703E-01	 9.423E-04	 8.814E+02	 5.748E+02	-1.248E+04	-1.931E+03	 1.753E+03	-5.029E+01	-1.003E+05	 1.252E+04	 5.617E+02	 2.470E+04	 5.790E+04	 4.950E+04	-1.466E+04	 5.486E+03	 2.896E+03	-1.297E+02	 4.080E+05	 2.388E-03	-1.668E+05	-5.656E+01	 2.753E+05	 4.388E+04	 1.132E+05	 1.526E+05	 7.096E+05	 1.101E+04	 2.703E+01	 1.325E+01	 2.419E+00	 1.036E+00	 8.269E-01	 8.580E+05	 1.702E+03	 2.682E+07	 5.891E+05	 5.168E+05	 5.895E+05	 2.315E+05	 2.475E+05	 2.315E+05	 3.797E+05	 3.111E+05	 3.800E+05	 1.465E+04	 2.122E+04	 1.465E+04	 3.583E+05	 1.248E+05	-1.505E+04	 3.107E+05	 0.000E+00	-1.426E+04	 3.586E+05	-1.249E+05	-1.505E+04	-1.193E+02	 5.055E+01	-1.465E+04	 1.604E+04	-0.000E+00	-1.390E+04	-1.193E+02	-5.055E+01	-1.465E+04	-3.491E+05	-1.341E+05	-4.552E+05	-1.400E+01	-8.188E-05	-1.001E+01	-3.063E+05	 7.629E+00	-4.163E+05	-1.400E+01	-8.188E-05	-1.001E+01	-3.493E+05	 1.342E+05	-4.555E+05	-1.400E+01	-8.188E-05	-1.001E+01	-4.476E+02	-3.233E+02	-2.315E+05	 5.400E+01	 6.642E-05	-9.988E+00	-1.839E+04	-2.959E+00	-2.468E+05	 5.400E+01	 6.642E-05	-9.988E+00	-4.476E+02	 3.181E+02	-2.315E+05	 5.400E+01	 6.642E-05	-9.988E+00	-5.001E+01	-5.001E+01	-5.001E+01	-5.001E+01	-5.001E+01	-5.001E+01	-5.001E+01	-5.001E+01	-5.001E+01	-5.001E+01	-5.001E+01	-5.001E+01	-5.001E+01	-5.000E+01	-4.983E+01	-4.930E+01	-4.838E+01	-4.706E+01	-4.529E+01	-4.322E+01	-4.089E+01	-3.830E+01	-3.546E+01	-3.238E+01	-2.906E+01	-2.555E+01	-2.186E+01	-1.803E+01	-1.408E+01	-1.001E+01	-5.001E+01	-5.001E+01	-5.001E+01	-5.001E+01	-5.001E+01	-5.001E+01	-5.001E+01	-5.001E+01	-5.001E+01	-5.001E+01	-5.001E+01	-5.001E+01	-5.001E+01	-5.000E+01	-4.988E+01	-4.931E+01	-4.831E+01	-4.695E+01	-4.518E+01	-4.307E+01	-4.066E+01	-3.806E+01	-3.517E+01	-3.212E+01	-2.883E+01	-2.538E+01	-2.173E+01	-1.794E+01	-1.404E+01	-1.001E+01
    0.3000	 2.000E+01	-7.158E-07	-7.265E-04	-6.485E-05	-2.642E-02	 1.732E-04	 2.010E+01	-6.749E-03	-3.888E-04	 9.340E-02	 1.603E+00	-4.865E-01	 6.851E-03	 6.432E-01	-4.277E-01	 1.393E-03	 9.363E+02	 6.229E+02	-1.244E+04	-1.938E+03	 1.751E+03	-5.091E+01	-1.009E+05	 2.460E+04	 6.240E+02	 2.747E+04	 5.690E+04	 4.951E+04	-1.442E+04	 6.103E+03	 3.222E+03	-1.659E+02	 4.080E+05	 3.059E-03	-1.668E+05	-7.236E+01	 3.006E+05	 5.042E+04	 1.120E+05	 1.721E+05	 6.532E+05	 1.214E+04	 2.638E+01	 1.289E+01	 2.490E+00	 1.068E+00	 8.117E-01	 8.340E+05	 2.381E+03	 2.682E+07	 5.790E+05	 5.171E+05	 5.794E+05	 2.317E+05	 2.427E+05	 2.317E+05	 3.727E+05	 3.083E+05	 3.730E+05	 1.465E+04	 2.119E+04	 1.465E+04	 3.518E+05	 1.222E+05	-1.504E+04	 3.080E+05	 0.000E+00	-1.426E+04	 3.521E+05	-1.223E+05	-1.504E+04	-1.176E+02	 4.981E+01	-1.465E+04	 1.599E+04	-0.000E+00	-1.390E+04	-1.176E+02	-4.981E+01	-1.465E+04	-3.434E+05	-1.321E+05	-4.470E+05	-1.400E+01	-1.148E-04	-1.002E+01	-3.068E+05	 1.049E+01	-4.163E+05	-1.400E+01	-1.148E-04	-1.002E+01	-3.437E+05	 1.322E+05	-4.474E+05	-1.400E+01	-1.148E-04	-1.002E+01	-3.938E+02	-3.031E+02	-2.317E+05	 5.400E+01	 9.077E-05	-9.985E+00	-1.822E+04	-3.919E+00	-2.420E+05	 5.400E+01	 9.077E-05	-9.985E+00	-3.938E+02	 2.960E+02	-2.317E+05	 5.400E+01	 9.077E-05	-9.985E+00	-5.001E+01	-5.001E+01	-5.001E+01	-5.001E+01	-5.001E+01	-5.001E+01	-5.001E+01	-5.001E+01	-5.001E+01	-5.001E+01	-5.001E+01	-5.001E+01	-5.001E+01	-5.000E+01	-4.982E+01	-4.930E+01	-4.839E+01	-4.706E+01	-4.529E+01	-4.322E+01	-4.090E+01	-3.831E+01	-3.546E+01	-3.239E+01	-2.906E+01	-2.555E+01	-2.187E+01	-1.803E+01	-1.408E+01	-1.002E+01	-5.001E+01	-5.001E+01	-5.001E+01	-5.001E+01	-5.001E+01	-5.001E+01	-5.001E+01	-5.001E+01	-5.001E+01	-5.001E+01	-5.001E+01	-5.001E+01	-5.001E+01	-5.000E+01	-4.987E+01	-4.930E+01	-4.832E+01	-4.696E+01	-4.518E+01	-4.308E+01	-4.068E+01	-3.806E+01	-3.518E+01	-3.213E+01	-2.883E+01	-2.538E+01	-2.173E+01	-1.794E+01	-1.405E+01	-1.002E+01
    0.3300	 2.000E+01	-8.670E-07	-9.129E-04	-9.810E-05	-3.244E-02	 2.309E-04	 2.010E+01	-8.380E-03	-5.234E-04	 9.643E-02	 1.743E+00	-6.056E-01	 7.592E-03	 7.877E-01	-4.969E-01	 1.804E-03	 9.993E+02	 6.711E+02	-1.239E+04	-1.946E+03	 1.749E+03	-5.153E+01	-1.016E+05	 3.883E+04	 6.746E+02	 3.023E+04	 5.579E+04	 4.952E+04	-1.416E+04	 6.717E+03	 3.484E+03	-2.107E+02	 4.080E+05	 3.834E-03	-1.668E+05	-9.183E+01	 3.274E+05	 5.730E+04	 1.110E+05	 1.936E+05	 5.830E+05	 1.314E+04	 2.578E+01	 1.247E+01	 2.546E+00	 1.103E+00	 7.943E-01	 8.167E+05	 2.897E+03	 2.682E+07	 5.752E+05	 5.233E+05	 5.756E+05	 2.313E+05	 2.471E+05	 2.313E+05	 3.621E+05	 3.110E+05	 3.624E+05	 1.465E+04	 2.116E+04	 1.465E+04	 3.418E+05	 1.185E+05	-1.503E+04	 3.107E+05	 0.000E+00	-1.426E+04	 3.421E+05	-1.186E+05	-1.503E+04	-1.160E+02	 4.915E+01	-1.465E+04	 1.595E+04	-0.000E+00	-1.390E+04	-1.160E+02	-4.915E+01	-1.465E+04	-3.416E+05	-1.315E+05	-4.436E+05	-1.399E+01	-1.550E-04	-1.002E+01	-3.109E+05	 1.402E+01	-4.209E+05	-1.399E+01	-1.550E-04	-1.002E+01	-3.419E+05	 1.317E+05	-4.440E+05	-1.399E+01	-1.550E-04	-1.002E+01	-3.445E+02	-2.816E+02	-2.313E+05	 5.401E+01	 1.190E-04	-9.982E+00	-1.875E+04	-5.172E+00	-2.463E+05	 5.401E+01	 1.190E-04	-9.982E+00	-3.445E+02	 2.724E+02	-2.313E+05	 5.401E+01	 1.190E-04	-9.982E+00	-5.001E+01	-5.001E+01	-5.001E+01	-5.001E+01	-5.001E+01	-5.001E+01	-5.001E+01	-5.001E+01	-5.001E+01	-5.001E+01	-5.001E+01	-5.001E+01	-5.001E+01	-5.000E+01	-4.981E+01	-4.930E+01	-4.839E+01	-4.706E+01	-4.530E+01	-4.323E+01	-4.092E+01	-3.832E+01	-3.547E+01	-3.240E+01	-2.906E+01	-2.555E+01	-2.187E+01	-1.803E+01	-1.408E+01	-1.002E+01	-5.001E+01	-5.001E+01	-5.001E+01	-5.001E+01	-5.001E+01	-5.001E+01	-5.001E+01	-5.001E+01	-5.001E+01	-5.001E+01	-5.001E+01	-5.001E+01	-5.001E+01	-5.000E+01	-4.986E+01	-4.929E+01	-4.833E+01	-4.696E+01	-4.519E+01	-4.309E+01	-4.070E+01	-3.807E+01	-3.518E+01	-3.214E+01	-2.883E+01	-2.537E+01	-2.173E+01	-1.794E+01	-1.405E+01	-1.002E+01
    0.3600	 2.000E+01	-1.023E-06	-1.120E-03	-1.429E-04	-3.911E-02	 2.974E-04	 2.011E+01	-1.009E-02	-6.863E-04	 9.919E-02	 1.884E+00	-7.310E-01	 8.240E-03	 9.340E-01	-5.872E-01	 2.164E-03	 1.066E+03	 7.190E+02	-1.233E+04	-1.953E+03	 1.747E+03	-5.197E+01	-1.023E+05	 5.427E+04	 7.123E+02	 3.298E+04	 5.457E+04	 4.952E+04	-1.387E+04	 7.328E+03	 3.677E+03	-2.598E+02	 4.080E+05	 4.661E-03	-1.668E+05	-1.131E+02	 3.536E+05	 6.422E+04	 1.102E+05	 2.142E+05	 4.971E+05	 1.413E+04	 2.514E+01	 1.204E+01	 2.599E+00	 1.137E+00	 7.770E-01	 7.986E+05	 3.389E+03	 2.681E+07	 5.704E+05	 5.277E+05	 5.708E+05	 2.319E+05	 2.458E+05	 2.319E+05	 3.588E+05	 3.231E+05	 3.591E+05	 1.465E+04	 2.113E+04	 1.465E+04	 3.388E+05	 1.172E+05	-1.503E+04	 3.228E+05	 0.000E+00	-1.428E+04	 3.391E+05	-1.173E+05	-1.503E+04	-1.146E+02	 4.857E+01	-1.465E+04	 1.592E+04	-0.000E+00	-1.390E+04	-1.146E+02	-4.857E+01	-1.465E+04	-3.391E+05	-1.307E+05	-4.396E+05	-1.399E+01	-2.024E-04	-1.002E+01	-3.141E+05	 1.802E+01	-4.241E+05	-1.399E+01	-2.024E-04	-1.002E+01	-3.394E+05	 1.308E+05	-4.399E+05	-1.399E+01	-2.024E-04	-1.002E+01	-3.039E+02	-2.600E+02	-2.319E+05	 5.401E+01	 1.505E-04	-9.978E+00	-1.882E+04	-6.410E+00	-2.451E+05	 5.401E+01	 1.505E-04	-9.978E+00	-3.039E+02	 2.485E+02	-2.319E+05	 5.401E+01	 1.505E-04	-9.978E+00	-5.001E+01	-5.001E+01	-5.001E+01	-5.001E+01	-5.001E+01	-5.001E+01	-5.001E+01	-5.001E+01	-5.001E+01	-5.001E+01	-5.001E+01	-5.001E+01	-5.001E+01	-5.000E+01	-4.980E+01	-4.930E+01	-4.839E+01	-4.707E+01	-4.531E+01	-4.324E+01	-4.093E+01	-3.833E+01	-3.548E+01	-3.240E+01	-2.906E+01	-2.555E+01	-2.187E+01	-1.803E+01	-1.408E+01	-1.002E+01	-5.001E+01	-5.001E+01	-5.001E+01	-5.001E+01	-5.001E+01	-5.001E+01	-5.001E+01	-5.001E+01	-5.001E+01	-5.001E+01	-5.001E+01	-5.001E+01	-5.001E+01	-5.000E+01	-4.985E+01	-4.929E+01	-4.833E+01	-4.697E+01	-4.520E+01	-4.310E+01	-4.072E+01	-3.808E+01	-3.519E+01	-3.214E+01	-2.884E+01	-2.537E+01	-2.173E+01	-1.794E+01	-1.405E+01	-1.002E+01
    0.3900	 2.000E+01	-1.160E-06	-1.346E-03	-2.015E-04	-4.645E-02	 3.724E-04	 2.012E+01	-1.186E-02	-8.760E-04	 1.022E-01	 2.009E+00	-8.596E-01	 8.617E-03	 1.094E+00	-6.803E-01	 2.639E-03	 1.127E+03	 7.666E+02	-1.227E+04	-1.960E+03	 1.744E+03	-5.274E+01	-1.031E+05	 6.832E+04	 7.432E+02	 3.571E+04	 5.323E+04	 4.953E+04	-1.355E+04	 7.935E+03	 3.834E+03	-3.071E+02	 4.080E+05	 5.491E-03	-1.668E+05	-1.337E+02	 3.776E+05	 7.038E+04	 1.091E+05	 2.334E+05	 4.327E+05	 1.500E+04	 2.447E+01	 1.161E+01	 2.631E+00	 1.161E+00	 7.596E-01	 7.869E+05	 3.965E+03	 2.681E+07	 5.682E+05	 5.381E+05	 5.687E+05	 2.319E+05	 2.456E+05	 2.319E+05	 3.604E+05	 3.301E+05	 3.607E+05	 1.465E+04	 2.110E+04	 1.465E+04	 3.403E+05	 1.176E+05	-1.503E+04	 3.298E+05	 0.000E+00	-1.428E+04	 3.406E+05	-1.177E+05	-1.503E+04	-1.134E+02	 4.805E+01	-1.465E+04	 1.588E+04	-0.000E+00	-1.390E+04	-1.134E+02	-4.805E+01	-1.465E+04	-3.383E+05	-1.304E+05	-4.375E+05	-1.399E+01	-2.574E-04	-1.003E+01	-3.210E+05	 2.273E+01	-4.319E+05	-1.399E+01	-2.574E-04	-1.003E+01	-3.386E+05	 1.306E+05	-4.379E+05	-1.399E+01	-2.574E-04	-1.003E+01	-2.712E+02	-2.358E+02	-2.319E+05	 5.401E+01	 1.848E-04	-9.974E+00	-1.897E+04	-7.729E+00	-2.449E+05	 5.401E+01	 1.848E-04	-9.974E+00	-2.712E+02	 2.218E+02	-2.319E+05	 5.401E+01	 1.848E-04	-9.974E+00	-5.001E+01	-5.001E+01	-5.001E+01	-5.001E+01	-5.001E+01	-5.001E+01	-5.001E+01	-5.001E+01	-5.001E+01	-5.001E+01	-5.001E+01	-5.001E+01	-5.001E+01	-5.000E+01	-4.979E+01	-4.930E+01	-4.839E+01	-4.707E+01	-4.531E+01	-4.325E+01	-4.094E+01	-3.834E+01	-3.548E+01	-3.241E+01	-2.907E+01	-2.555E+01	-2.187E+01	-1.803E+01	-1.408E+01	-1.003E+01	-5.001E+01	-5.001E+01	-5.001E+01	-5.001E+01	-5.001E+01	-5.001E+01	-5.001E+01	-5.001E+01	-5.001E+01	-5.001E+01	-5.001E+01	-5.001E+01	-5.001E+01	-5.000E+01	-4.984E+01	-4.928E+01	-4.834E+01	-4.697E+01	-4.520E+01	-4.312E+01	-4.074E+01	-3.809E+01	-3.520E+01	-3.215E+01	-2.884E+01	-2.537E+01	-2.173E+01	-1.795E+01	-1.405E+01	-1.003E+01