
Predictions were generated on 20-Nov-2023 at 17:13:59 using OpenFAST, compiled as a 64-bit application using double precision at commit v3.5.1-3-gb48c9b22
 linked with  NWTC Subroutine Library; ElastoDyn; InflowWind; AeroDyn; HydroDyn; MoorDyn (v2.0.0, 2023-09-18)

Description from the FAST input file: Floating MHK turbine, based on the RM1 tidal current rotor

Time	PtfmSurge	PtfmSway	PtfmHeave	PtfmRoll	PtfmPitch	PtfmYaw	TwrTpTDxi	TwrTpTDyi	TwrTpTDzi	OoPDefl1	TwN1Fbx	TwN3Fby	TwN4Fbz	TwN1Mbx	TwN2Mby	TwN3Mbz	B2N4Fbn	B1N7Fbt	B2N8Fbs	B1N2Mbn	B2N3Mbt	B1N6Mbs	B1FldFz	B2FldMx	HbFbx	HbFby	HbFbz	HbMbx	HbMby	HbMbz	NcFbx	NcFby	NcFbz	NcMbx	NcMby	NcMbz	RtFldFxh	RtFldFyh	RtFldFzg	RtFldMxh	RtFldMyg	RtFldMzh	B1N3SigCr	B2N5SigCr	B1N2SgCav	B2N6SgCav	Wave1Elev	HydroFxi	HydroFyi	HydroFzi	FAIRTEN1	FAIRTEN2	FAIRTEN3	FAIRTEN4	FAIRTEN5	FAIRTEN6	ANCHTEN1	ANCHTEN2	ANCHTEN3	ANCHTEN4	ANCHTEN5	ANCHTEN6	P1FX	P1FY	P1FZ	P2FX	P2FY	P2FZ	P3FX	P3FY	P3FZ	P4FX	P4FY	P4FZ	P5FX	P5FY	P5FZ	P6FX	P6FY	P6FZ	P7FX	P7FY	P7FZ	P7PX	P7PY	P7PZ	P8FX	P8FY	P8FZ	P8PX	P8PY	P8PZ	P9FX	P9FY	P9FZ	P9PX	P9PY	P9PZ	P10FX	P10FY	P10FZ	P10PX	P10PY	P10PZ	P11FX	P11FY	P11FZ	P11PX	P11PY	P11PZ	P12FX	P12FY	P12FZ	P12PX	P12PY	P12PZ	L1N1PZ	L1N2PZ	L1N3PZ	L1N4PZ	L1N5PZ	L1N6PZ	L1N7PZ	L1N8PZ	L1N9PZ	L1N10PZ	L1N11PZ	L1N12PZ	L1N13PZ	L1N14PZ	L1N15PZ	L1N16PZ	L1N17PZ	L1N18PZ	L1N19PZ	L1N20PZ	L1N21PZ	L1N22PZ	L1N23PZ	L1N24PZ	L1N25PZ	L1N26PZ	L1N27PZ	L1N28PZ	L1N29PZ	L1N30PZ	L2N1PZ	L2N2PZ	L2N3PZ	L2N4PZ	L2N5PZ	L2N6PZ	L2N7PZ	L2N8PZ	L2N9PZ	L2N10PZ	L2N11PZ	L2N12PZ	L2N13PZ	L2N14PZ	L2N15PZ	L2N16PZ	L2N17PZ	L2N18PZ	L2N19PZ	L2N20PZ	L2N21PZ	L2N22PZ	L2N23PZ	L2N24PZ	L2N25PZ	L2N26PZ	L2N27PZ	L2N28PZ	L2N29PZ	L2N30PZ
(s)	(m)	(m)	(m)	(deg)	(deg)	(deg)	(m)	(m)	(m)	(m)	(N/m)	(N/m)	(N/m)	(N-m/m)	(N-m/m)	(N-m/m)	(N/m)	(N/m)	(N/m)	(N-m/m)	(N-m/m)	(N-m/m)	(N)	(N-m)	(N)	(N)	(N)	(N-m)	(N-m)	(N-m)	(N)	(N)	(N)	(N-m)	(N-m)	(N-m)	(N)	(N)	(N)	(N-m)	(N-m)	(N-m)	(-)	(-)	(-)	(-)	(m)	(N)	(N)	(N)	(N)	(N)	(N)	(N)	(N)	(N)	(N)	(N)	(N)	(N)	(N)	(N)	(N)	(N)	(N)	(N)	(N)	(N)	(N)	(N)	(N)	(N)	(N)	(N)	(N)	(N)	(N)	(N)	(N)	(N)	(N)	(N)	(N)	(m)	(m)	(m)	(N)	(N)	(N)	(m)	(m)	(m)	(N)	(N)	(N)	(m)	(m)	(m)	(N)	(N)	(N)	(m)	(m)	(m)	(N)	(N)	(N)	(m)	(m)	(m)	(N)	(N)	(N)	(m)	(m)	(m)	(m)	(m)	(m)	(m)	(m)	(m)	(m)	(m)	(m)	(m)	(m)	(m)	(m)	(m)	(m)	(m)	(m)	(m)	(m)	(m)	(m)	(m)	(m)	(m)	(m)	(m)	(m)	(m)	(m)	(m)	(m)	(m)	(m)	(m)	(m)	(m)	(m)	(m)	(m)	(m)	(m)	(m)	(m)	(m)	(m)	(m)	(m)	(m)	(m)	(m)	(m)	(m)	(m)	(m)	(m)	(m)	(m)	(m)	(m)	(m)
    0.0000	 2.000E+01	 0.000E+00	 0.000E+00	 0.000E+00	 0.000E+00	 0.000E+00	 2.000E+01	-0.000E+00	 0.000E+00	 0.000E+00	 1.023E-13	 0.000E+00	 1.253E-29	 0.000E+00	-1.023E-13	 0.000E+00	 2.843E+02	 1.076E+02	-1.264E+04	-4.015E+03	 1.616E+03	-2.314E+00	-9.595E+04	 1.459E+05	 2.358E-27	-5.225E-12	 6.231E+04	 2.422E-11	-1.608E+04	-2.954E-12	-2.455E-12	 0.000E+00	 4.081E+05	 0.000E+00	-1.668E+05	 0.000E+00	 4.223E+05	-6.645E+03	 1.239E+05	 4.039E+05	 1.441E+05	 1.555E-10	 3.349E+01	 1.622E+01	 4.252E+00	 1.442E+00	 9.414E-01	 1.155E+06	-6.894E+00	 2.675E+07	 6.077E+05	 5.314E+05	 6.077E+05	 2.138E+05	 2.285E+05	 2.138E+05	 3.903E+05	 3.046E+05	 3.903E+05	 1.465E+04	 1.749E+04	 1.465E+04	 3.624E+05	 1.442E+05	-1.506E+04	 3.042E+05	 0.000E+00	-1.425E+04	 3.624E+05	-1.442E+05	-1.506E+04	 1.767E+02	-7.486E+01	-1.465E+04	 1.061E+04	 0.000E+00	-1.391E+04	 1.767E+02	 7.486E+01	-1.465E+04	-3.673E+05	-1.184E+05	-4.694E+05	-1.400E+01	 0.000E+00	-1.000E+01	-3.217E+05	 0.000E+00	-4.231E+05	-1.400E+01	 0.000E+00	-1.000E+01	-3.673E+05	 1.184E+05	-4.694E+05	-1.400E+01	 0.000E+00	-1.000E+01	-3.583E+04	-6.507E+03	-2.106E+05	 5.400E+01	 0.000E+00	-1.000E+01	-4.056E+04	 0.000E+00	-2.248E+05	 5.400E+01	 0.000E+00	-1.000E+01	-3.583E+04	 6.507E+03	-2.106E+05	 5.400E+01	 0.000E+00	-1.000E+01	-5.001E+01	-5.001E+01	-5.001E+01	-5.001E+01	-5.001E+01	-5.001E+01	-5.001E+01	-5.001E+01	-5.001E+01	-5.001E+01	-5.001E+01	-5.001E+01	-5.001E+01	-5.000E+01	-4.985E+01	-4.926E+01	-4.828E+01	-4.693E+01	-4.524E+01	-4.321E+01	-4.088E+01	-3.827E+01	-3.541E+01	-3.231E+01	-2.901E+01	-2.550E+01	-2.184E+01	-1.802E+01	-1.407E+01	-1.000E+01	-5.001E+01	-5.001E+01	-5.001E+01	-5.001E+01	-5.001E+01	-5.001E+01	-5.001E+01	-5.001E+01	-5.001E+01	-5.001E+01	-5.001E+01	-5.001E+01	-5.001E+01	-5.000E+01	-4.989E+01	-4.930E+01	-4.828E+01	-4.690E+01	-4.519E+01	-4.313E+01	-4.076E+01	-3.812E+01	-3.522E+01	-3.211E+01	-2.880E+01	-2.531E+01	-2.166E+01	-1.787E+01	-1.398E+01	-1.000E+01
    0.0300	 2.000E+01	 3.694E-09	-8.122E-06	 2.108E-08	-2.691E-04	 5.835E-08	 2.000E+01	-9.545E-06	-8.077E-06	 3.905E-02	 3.705E-02	 6.684E-07	 1.087E-06	 5.105E-03	-2.252E-02	 3.788E-07	 5.086E+02	 1.540E+02	-1.264E+04	-4.021E+03	 1.619E+03	-1.358E+01	-9.649E+04	 4.734E+04	 1.396E+01	 2.632E+03	 6.227E+04	-1.035E+00	-1.607E+04	 5.849E+02	 7.475E+00	 1.601E+00	 4.081E+05	-9.813E-06	-1.668E+05	 6.691E-01	 2.241E+05	 3.629E+03	 1.236E+05	 1.388E+05	 6.233E+04	 1.261E+03	 3.326E+01	 1.593E+01	 3.766E+00	 1.153E+00	 9.307E-01	 1.131E+06	 2.846E+00	 2.680E+07	 5.934E+05	 5.068E+05	 5.934E+05	 2.250E+05	 2.438E+05	 2.250E+05	 3.934E+05	 2.956E+05	 3.934E+05	 1.465E+04	 1.756E+04	 1.465E+04	 3.653E+05	 1.452E+05	-1.506E+04	 2.952E+05	 0.000E+00	-1.424E+04	 3.653E+05	-1.452E+05	-1.506E+04	 1.567E+02	-6.642E+01	-1.465E+04	 1.072E+04	-0.000E+00	-1.391E+04	 1.567E+02	 6.642E+01	-1.465E+04	-3.586E+05	-1.158E+05	-4.584E+05	-1.400E+01	-2.725E-08	-1.000E+01	-3.066E+05	 2.719E-03	-4.035E+05	-1.400E+01	-2.725E-08	-1.000E+01	-3.586E+05	 1.158E+05	-4.584E+05	-1.400E+01	-2.725E-08	-1.000E+01	-3.762E+04	-6.840E+03	-2.217E+05	 5.400E+01	 4.200E-08	-1.000E+01	-4.322E+04	-1.913E-03	-2.399E+05	 5.400E+01	 4.200E-08	-1.000E+01	-3.762E+04	 6.840E+03	-2.217E+05	 5.400E+01	 4.200E-08	-1.000E+01	-5.001E+01	-5.001E+01	-5.001E+01	-5.001E+01	-5.001E+01	-5.001E+01	-5.001E+01	-5.001E+01	-5.001E+01	-5.001E+01	-5.001E+01	-5.001E+01	-5.001E+01	-5.000E+01	-4.985E+01	-4.926E+01	-4.828E+01	-4.693E+01	-4.524E+01	-4.321E+01	-4.088E+01	-3.827E+01	-3.541E+01	-3.231E+01	-2.901E+01	-2.550E+01	-2.183E+01	-1.801E+01	-1.407E+01	-1.000E+01	-5.001E+01	-5.001E+01	-5.001E+01	-5.001E+01	-5.001E+01	-5.001E+01	-5.001E+01	-5.001E+01	-5.001E+01	-5.001E+01	-5.001E+01	-5.001E+01	-5.001E+01	-5.000E+01	-4.989E+01	-4.929E+01	-4.828E+01	-4.690E+01	-4.518E+01	-4.313E+01	-4.076E+01	-3.812E+01	-3.523E+01	-3.211E+01	-2.880E+01	-2.530E+01	-2.165E+01	-1.787E+01	-1.398E+01	-1.000E+01
    0.0600	 2.000E+01	 1.219E-08	-2.993E-05	 3.867E-08	-1.049E-03	 8.492E-07	 2.001E+01	-9.087E-05	-2.864E-05	 6.486E-02	 1.647E-01	-4.793E-03	 4.153E-05	 1.943E-02	-8.618E-02	 4.884E-06	 6.399E+02	 2.007E+02	-1.264E+04	-4.028E+03	 1.620E+03	-2.086E+01	-9.741E+04	 5.787E+04	 3.523E+01	 5.302E+03	 6.214E+04	-1.165E+00	-1.604E+04	 1.178E+03	 9.012E+01	 2.477E+00	 4.081E+05	 4.952E-06	-1.668E+05	 1.005E+00	 2.808E+05	 6.822E+03	 1.228E+05	 1.727E+05	 1.699E+05	 2.489E+03	 3.234E+01	 1.547E+01	 3.169E+00	 1.188E+00	 9.201E-01	 1.100E+06	-2.373E+01	 2.678E+07	 5.824E+05	 5.103E+05	 5.825E+05	 2.245E+05	 2.407E+05	 2.245E+05	 3.742E+05	 2.913E+05	 3.742E+05	 1.465E+04	 1.765E+04	 1.465E+04	 3.475E+05	 1.380E+05	-1.504E+04	 2.910E+05	 0.000E+00	-1.424E+04	 3.475E+05	-1.380E+05	-1.504E+04	 1.372E+02	-5.814E+01	-1.465E+04	 1.087E+04	-0.000E+00	-1.391E+04	 1.372E+02	 5.814E+01	-1.465E+04	-3.519E+05	-1.139E+05	-4.499E+05	-1.400E+01	-4.850E-07	-1.000E+01	-3.089E+05	 4.803E-02	-4.062E+05	-1.400E+01	-4.850E-07	-1.000E+01	-3.519E+05	 1.139E+05	-4.500E+05	-1.400E+01	-4.850E-07	-1.000E+01	-3.730E+04	-6.789E+03	-2.212E+05	 5.400E+01	 5.229E-07	-9.999E+00	-4.240E+04	-2.342E-02	-2.369E+05	 5.400E+01	 5.229E-07	-9.999E+00	-3.730E+04	 6.789E+03	-2.212E+05	 5.400E+01	 5.229E-07	-9.999E+00	-5.001E+01	-5.001E+01	-5.001E+01	-5.001E+01	-5.001E+01	-5.001E+01	-5.001E+01	-5.001E+01	-5.001E+01	-5.001E+01	-5.001E+01	-5.001E+01	-5.001E+01	-5.000E+01	-4.985E+01	-4.926E+01	-4.828E+01	-4.694E+01	-4.524E+01	-4.321E+01	-4.088E+01	-3.828E+01	-3.541E+01	-3.232E+01	-2.901E+01	-2.550E+01	-2.183E+01	-1.801E+01	-1.407E+01	-1.000E+01	-5.001E+01	-5.001E+01	-5.001E+01	-5.001E+01	-5.001E+01	-5.001E+01	-5.001E+01	-5.001E+01	-5.001E+01	-5.001E+01	-5.001E+01	-5.001E+01	-5.001E+01	-5.000E+01	-4.989E+01	-4.929E+01	-4.828E+01	-4.690E+01	-4.518E+01	-4.313E+01	-4.077E+01	-3.813E+01	-3.524E+01	-3.211E+01	-2.880E+01	-2.530E+01	-2.165E+01	-1.787E+01	-1.398E+01	-1.000E+01
    0.0900	 2.000E+01	 2.496E-08	-5.996E-05	-9.618E-08	-2.341E-03	 2.901E-06	 2.001E+01	-2.560E-04	-5.252E-05	 7.754E-02	 3.036E-01	-1.303E-02	 2.316E-04	 5.761E-02	-1.185E-01	 4.398E-05	 6.541E+02	 2.479E+02	-1.263E+04	-4.035E+03	 1.620E+03	-2.391E+01	-9.811E+04	 4.904E+04	 8.615E+01	 8.018E+03	 6.193E+04	-2.045E+00	-1.598E+04	 1.782E+03	 3.581E+02	 8.233E+00	 4.080E+05	 4.254E-06	-1.668E+05	 3.360E+00	 2.835E+05	 8.530E+03	 1.213E+05	 1.734E+05	 3.660E+05	 3.778E+03	 3.126E+01	 1.511E+01	 2.738E+00	 1.136E+00	 9.094E-01	 1.073E+06	 2.390E+02	 2.678E+07	 5.722E+05	 5.267E+05	 5.723E+05	 2.217E+05	 2.368E+05	 2.217E+05	 3.497E+05	 3.050E+05	 3.497E+05	 1.465E+04	 1.775E+04	 1.465E+04	 3.247E+05	 1.288E+05	-1.502E+04	 3.047E+05	 0.000E+00	-1.426E+04	 3.247E+05	-1.288E+05	-1.502E+04	 1.156E+02	-4.900E+01	-1.465E+04	 1.103E+04	-0.000E+00	-1.391E+04	 1.156E+02	 4.900E+01	-1.465E+04	-3.457E+05	-1.120E+05	-4.420E+05	-1.400E+01	-1.713E-06	-1.000E+01	-3.191E+05	 1.743E-01	-4.191E+05	-1.400E+01	-1.713E-06	-1.000E+01	-3.457E+05	 1.120E+05	-4.421E+05	-1.400E+01	-1.713E-06	-1.000E+01	-3.659E+04	-6.664E+03	-2.186E+05	 5.400E+01	 1.730E-06	-9.999E+00	-4.145E+04	-7.592E-02	-2.332E+05	 5.400E+01	 1.730E-06	-9.999E+00	-3.659E+04	 6.664E+03	-2.186E+05	 5.400E+01	 1.730E-06	-9.999E+00	-5.001E+01	-5.001E+01	-5.001E+01	-5.001E+01	-5.001E+01	-5.001E+01	-5.001E+01	-5.001E+01	-5.001E+01	-5.001E+01	-5.001E+01	-5.001E+01	-5.001E+01	-5.000E+01	-4.984E+01	-4.926E+01	-4.828E+01	-4.694E+01	-4.524E+01	-4.322E+01	-4.089E+01	-3.828E+01	-3.542E+01	-3.232E+01	-2.901E+01	-2.550E+01	-2.183E+01	-1.801E+01	-1.406E+01	-1.000E+01	-5.001E+01	-5.001E+01	-5.001E+01	-5.001E+01	-5.001E+01	-5.001E+01	-5.001E+01	-5.001E+01	-5.001E+01	-5.001E+01	-5.001E+01	-5.001E+01	-5.001E+01	-5.000E+01	-4.989E+01	-4.929E+01	-4.827E+01	-4.690E+01	-4.518E+01	-4.313E+01	-4.077E+01	-3.814E+01	-3.524E+01	-3.212E+01	-2.880E+01	-2.530E+01	-2.165E+01	-1.787E+01	-1.398E+01	-1.000E+01
    0.1200	 2.000E+01	-4.023E-09	-9.876E-05	-9.607E-07	-4.154E-03	 7.988E-06	 2.002E+01	-5.755E-04	-7.500E-05	 8.275E-02	 4.692E-01	-3.534E-02	 6.462E-04	 9.258E-02	-1.427E-01	 1.048E-04	 6.262E+02	 2.956E+02	-1.262E+04	-4.044E+03	 1.618E+03	-2.441E+01	-9.855E+04	 3.532E+04	 1.588E+02	 1.077E+04	 6.162E+04	-2.408E+00	-1.590E+04	 2.393E+03	 7.492E+02	 2.359E+00	 4.080E+05	 1.340E-04	-1.668E+05	 7.658E-01	 2.656E+05	 1.250E+04	 1.197E+05	 1.557E+05	 5.467E+05	 5.061E+03	 3.054E+01	 1.470E+01	 2.468E+00	 1.070E+00	 8.972E-01	 1.040E+06	 3.549E+02	 2.679E+07	 5.537E+05	 5.357E+05	 5.538E+05	 2.250E+05	 2.431E+05	 2.250E+05	 3.425E+05	 3.327E+05	 3.425E+05	 1.465E+04	 1.786E+04	 1.465E+04	 3.181E+05	 1.261E+05	-1.501E+04	 3.324E+05	 0.000E+00	-1.429E+04	 3.181E+05	-1.261E+05	-1.501E+04	 9.223E+01	-3.908E+01	-1.465E+04	 1.121E+04	-0.000E+00	-1.391E+04	 9.223E+01	 3.908E+01	-1.465E+04	-3.343E+05	-1.085E+05	-4.278E+05	-1.400E+01	-4.912E-06	-1.000E+01	-3.247E+05	 5.055E-01	-4.261E+05	-1.400E+01	-4.912E-06	-1.000E+01	-3.344E+05	 1.086E+05	-4.279E+05	-1.400E+01	-4.912E-06	-1.000E+01	-3.695E+04	-6.731E+03	-2.218E+05	 5.400E+01	 4.569E-06	-9.998E+00	-4.238E+04	-2.055E-01	-2.394E+05	 5.400E+01	 4.569E-06	-9.998E+00	-3.695E+04	 6.731E+03	-2.218E+05	 5.400E+01	 4.569E-06	-9.998E+00	-5.001E+01	-5.001E+01	-5.001E+01	-5.001E+01	-5.001E+01	-5.001E+01	-5.001E+01	-5.001E+01	-5.001E+01	-5.001E+01	-5.001E+01	-5.001E+01	-5.001E+01	-5.000E+01	-4.984E+01	-4.926E+01	-4.828E+01	-4.694E+01	-4.524E+01	-4.322E+01	-4.089E+01	-3.829E+01	-3.542E+01	-3.232E+01	-2.901E+01	-2.550E+01	-2.183E+01	-1.801E+01	-1.406E+01	-1.000E+01	-5.001E+01	-5.001E+01	-5.001E+01	-5.001E+01	-5.001E+01	-5.001E+01	-5.001E+01	-5.001E+01	-5.001E+01	-5.001E+01	-5.001E+01	-5.001E+01	-5.001E+01	-5.000E+01	-4.988E+01	-4.928E+01	-4.827E+01	-4.690E+01	-4.518E+01	-4.314E+01	-4.078E+01	-3.814E+01	-3.525E+01	-3.212E+01	-2.880E+01	-2.530E+01	-2.165E+01	-1.787E+01	-1.398E+01	-1.000E+01
    0.1500	 2.000E+01	-7.079E-08	-1.467E-04	-3.005E-06	-6.493E-03	 1.765E-05	 2.004E+01	-1.105E-03	-9.222E-05	 8.375E-02	 6.880E-01	-7.499E-02	 1.418E-03	 1.342E-01	-1.958E-01	 1.627E-04	 6.019E+02	 3.436E+02	-1.260E+04	-4.052E+03	 1.617E+03	-2.333E+01	-9.881E+04	 2.729E+04	 2.372E+02	 1.354E+04	 6.121E+04	-2.103E+00	-1.579E+04	 3.009E+03	 1.171E+03	-1.451E+01	 4.080E+05	 4.038E-04	-1.668E+05	-6.530E+00	 2.479E+05	 1.850E+04	 1.185E+05	 1.374E+05	 6.492E+05	 6.326E+03	 2.981E+01	 1.440E+01	 2.357E+00	 1.027E+00	 8.842E-01	 1.011E+06	 4.021E+02	 2.679E+07	 5.576E+05	 5.513E+05	 5.578E+05	 2.253E+05	 2.402E+05	 2.253E+05	 3.405E+05	 3.399E+05	 3.406E+05	 1.465E+04	 1.797E+04	 1.465E+04	 3.163E+05	 1.253E+05	-1.501E+04	 3.396E+05	 0.000E+00	-1.429E+04	 3.164E+05	-1.253E+05	-1.501E+04	 6.708E+01	-2.843E+01	-1.465E+04	 1.139E+04	 0.000E+00	-1.391E+04	 6.709E+01	 2.843E+01	-1.465E+04	-3.368E+05	-1.095E+05	-4.307E+05	-1.400E+01	-1.107E-05	-1.000E+01	-3.344E+05	 1.163E+00	-4.383E+05	-1.400E+01	-1.107E-05	-1.000E+01	-3.369E+05	 1.095E+05	-4.308E+05	-1.400E+01	-1.107E-05	-1.000E+01	-3.678E+04	-6.701E+03	-2.222E+05	 5.400E+01	 9.881E-06	-9.996E+00	-4.162E+04	-4.369E-01	-2.365E+05	 5.400E+01	 9.881E-06	-9.996E+00	-3.678E+04	 6.700E+03	-2.222E+05	 5.400E+01	 9.881E-06	-9.996E+00	-5.001E+01	-5.001E+01	-5.001E+01	-5.001E+01	-5.001E+01	-5.001E+01	-5.001E+01	-5.001E+01	-5.001E+01	-5.001E+01	-5.001E+01	-5.001E+01	-5.001E+01	-5.000E+01	-4.984E+01	-4.926E+01	-4.829E+01	-4.694E+01	-4.525E+01	-4.322E+01	-4.090E+01	-3.829E+01	-3.543E+01	-3.233E+01	-2.901E+01	-2.551E+01	-2.183E+01	-1.801E+01	-1.407E+01	-1.000E+01	-5.001E+01	-5.001E+01	-5.001E+01	-5.001E+01	-5.001E+01	-5.001E+01	-5.001E+01	-5.001E+01	-5.001E+01	-5.001E+01	-5.001E+01	-5.001E+01	-5.001E+01	-5.000E+01	-4.988E+01	-4.928E+01	-4.827E+01	-4.690E+01	-4.518E+01	-4.314E+01	-4.078E+01	-3.815E+01	-3.525E+01	-3.213E+01	-2.880E+01	-2.530E+01	-2.165E+01	-1.787E+01	-1.398E+01	-1.000E+01
    0.1800	 2.000E+01	-1.433E-07	-2.065E-04	-6.763E-06	-9.397E-03	 3.302E-05	 2.005E+01	-1.851E-03	-1.067E-04	 8.497E-02	 9.013E-01	-1.276E-01	 2.451E-03	 2.127E-01	-2.397E-01	 3.320E-04	 5.874E+02	 3.918E+02	-1.258E+04	-4.062E+03	 1.615E+03	-2.238E+01	-9.915E+04	 2.379E+04	 3.241E+02	 1.633E+04	 6.070E+04	-1.834E+00	-1.566E+04	 3.629E+03	 1.638E+03	-2.964E+01	 4.080E+05	 7.177E-04	-1.668E+05	-1.318E+01	 2.400E+05	 2.420E+04	 1.171E+05	 1.295E+05	 7.308E+05	 7.606E+03	 2.899E+01	 1.414E+01	 2.330E+00	 9.988E-01	 8.712E-01	 9.834E+05	 7.926E+02	 2.680E+07	 5.707E+05	 5.460E+05	 5.709E+05	 2.256E+05	 2.416E+05	 2.256E+05	 3.533E+05	 3.381E+05	 3.535E+05	 1.465E+04	 1.809E+04	 1.465E+04	 3.283E+05	 1.299E+05	-1.502E+04	 3.378E+05	 0.000E+00	-1.429E+04	 3.284E+05	-1.300E+05	-1.502E+04	 4.059E+01	-1.720E+01	-1.465E+04	 1.156E+04	 0.000E+00	-1.391E+04	 4.060E+01	 1.720E+01	-1.465E+04	-3.450E+05	-1.123E+05	-4.405E+05	-1.400E+01	-2.092E-05	-1.001E+01	-3.311E+05	 2.151E+00	-4.341E+05	-1.400E+01	-2.092E-05	-1.001E+01	-3.451E+05	 1.123E+05	-4.407E+05	-1.400E+01	-2.092E-05	-1.001E+01	-3.661E+04	-6.668E+03	-2.225E+05	 5.400E+01	 1.827E-05	-9.995E+00	-4.167E+04	-8.087E-01	-2.380E+05	 5.400E+01	 1.827E-05	-9.995E+00	-3.661E+04	 6.666E+03	-2.225E+05	 5.400E+01	 1.827E-05	-9.995E+00	-5.001E+01	-5.001E+01	-5.001E+01	-5.001E+01	-5.001E+01	-5.001E+01	-5.001E+01	-5.001E+01	-5.001E+01	-5.001E+01	-5.001E+01	-5.001E+01	-5.001E+01	-5.000E+01	-4.984E+01	-4.926E+01	-4.829E+01	-4.694E+01	-4.525E+01	-4.323E+01	-4.090E+01	-3.830E+01	-3.543E+01	-3.233E+01	-2.901E+01	-2.551E+01	-2.183E+01	-1.801E+01	-1.407E+01	-1.001E+01	-5.001E+01	-5.001E+01	-5.001E+01	-5.001E+01	-5.001E+01	-5.001E+01	-5.001E+01	-5.001E+01	-5.001E+01	-5.001E+01	-5.001E+01	-5.001E+01	-5.001E+01	-5.000E+01	-4.987E+01	-4.928E+01	-4.828E+01	-4.690E+01	-4.518E+01	-4.315E+01	-4.079E+01	-3.816E+01	-3.526E+01	-3.213E+01	-2.880E+01	-2.530E+01	-2.165E+01	-1.787E+01	-1.399E+01	-1.001E+01
    0.2100	 2.000E+01	-2.493E-07	-2.821E-04	-1.346E-05	-1.290E-02	 5.555E-05	 2.006E+01	-2.807E-03	-1.257E-04	 8.680E-02	 1.092E+00	-1.963E-01	 3.570E-03	 3.056E-01	-2.707E-01	 5.715E-04	 5.921E+02	 4.403E+02	-1.255E+04	-4.071E+03	 1.613E+03	-2.173E+01	-9.959E+04	 2.513E+04	 4.143E+02	 1.912E+04	 6.010E+04	-1.747E+00	-1.550E+04	 4.249E+03	 2.120E+03	-5.239E+01	 4.080E+05	 1.145E-03	-1.668E+05	-2.312E+01	 2.431E+05	 3.031E+04	 1.156E+05	 1.314E+05	 7.821E+05	 8.842E+03	 2.828E+01	 1.387E+01	 2.337E+00	 9.925E-01	 8.574E-01	 9.568E+05	 1.201E+03	 2.681E+07	 5.791E+05	 5.286E+05	 5.794E+05	 2.272E+05	 2.434E+05	 2.271E+05	 3.764E+05	 3.234E+05	 3.766E+05	 1.465E+04	 1.820E+04	 1.465E+04	 3.498E+05	 1.383E+05	-1.505E+04	 3.231E+05	 0.000E+00	-1.428E+04	 3.500E+05	-1.384E+05	-1.505E+04	 1.295E+01	-5.486E+00	-1.465E+04	 1.174E+04	-0.000E+00	-1.391E+04	 1.296E+01	 5.492E+00	-1.465E+04	-3.502E+05	-1.142E+05	-4.469E+05	-1.400E+01	-3.556E-05	-1.001E+01	-3.203E+05	 3.493E+00	-4.204E+05	-1.400E+01	-3.556E-05	-1.001E+01	-3.504E+05	 1.142E+05	-4.471E+05	-1.400E+01	-3.556E-05	-1.001E+01	-3.666E+04	-6.674E+03	-2.241E+05	 5.400E+01	 3.037E-05	-9.993E+00	-4.177E+04	-1.346E+00	-2.398E+05	 5.400E+01	 3.037E-05	-9.993E+00	-3.666E+04	 6.671E+03	-2.241E+05	 5.400E+01	 3.037E-05	-9.993E+00	-5.001E+01	-5.001E+01	-5.001E+01	-5.001E+01	-5.001E+01	-5.001E+01	-5.001E+01	-5.001E+01	-5.001E+01	-5.001E+01	-5.001E+01	-5.001E+01	-5.001E+01	-5.000E+01	-4.984E+01	-4.926E+01	-4.829E+01	-4.695E+01	-4.525E+01	-4.323E+01	-4.091E+01	-3.830E+01	-3.544E+01	-3.233E+01	-2.902E+01	-2.551E+01	-2.183E+01	-1.801E+01	-1.407E+01	-1.001E+01	-5.001E+01	-5.001E+01	-5.001E+01	-5.001E+01	-5.001E+01	-5.001E+01	-5.001E+01	-5.001E+01	-5.001E+01	-5.001E+01	-5.001E+01	-5.001E+01	-5.001E+01	-5.000E+01	-4.987E+01	-4.927E+01	-4.828E+01	-4.690E+01	-4.518E+01	-4.315E+01	-4.080E+01	-3.816E+01	-3.527E+01	-3.214E+01	-2.880E+01	-2.530E+01	-2.165E+01	-1.787E+01	-1.399E+01	-1.001E+01
    0.2400	 2.000E+01	-4.076E-07	-3.761E-04	-2.454E-05	-1.703E-02	 8.628E-05	 2.008E+01	-3.951E-03	-1.564E-04	 8.839E-02	 1.287E+00	-2.821E-01	 4.817E-03	 3.943E-01	-3.220E-01	 7.353E-04	 6.220E+02	 4.887E+02	-1.251E+04	-4.081E+03	 1.612E+03	-2.093E+01	-1.001E+05	 3.170E+04	 4.950E+02	 2.191E+04	 5.939E+04	-1.753E+00	-1.532E+04	 4.869E+03	 2.547E+03	-8.939E+01	 4.080E+05	 1.733E-03	-1.668E+05	-3.912E+01	 2.560E+05	 3.724E+04	 1.145E+05	 1.395E+05	 7.609E+05	 1.003E+04	 2.767E+01	 1.355E+01	 2.369E+00	 1.009E+00	 8.422E-01	 9.325E+05	 1.414E+03	 2.681E+07	 5.921E+05	 5.180E+05	 5.925E+05	 2.276E+05	 2.424E+05	 2.276E+05	 3.852E+05	 2.987E+05	 3.855E+05	 1.465E+04	 1.831E+04	 1.465E+04	 3.580E+05	 1.414E+05	-1.505E+04	 2.984E+05	 0.000E+00	-1.425E+04	 3.582E+05	-1.415E+05	-1.506E+04	-1.589E+01	 6.732E+00	-1.465E+04	 1.191E+04	-0.000E+00	-1.391E+04	-1.587E+01	-6.723E+00	-1.465E+04	-3.583E+05	-1.169E+05	-4.567E+05	-1.400E+01	-5.589E-05	-1.001E+01	-3.138E+05	 5.298E+00	-4.122E+05	-1.400E+01	-5.589E-05	-1.001E+01	-3.585E+05	 1.170E+05	-4.570E+05	-1.400E+01	-5.589E-05	-1.001E+01	-3.653E+04	-6.644E+03	-2.246E+05	 5.400E+01	 4.651E-05	-9.990E+00	-4.137E+04	-2.038E+00	-2.389E+05	 5.400E+01	 4.651E-05	-9.990E+00	-3.652E+04	 6.640E+03	-2.246E+05	 5.400E+01	 4.651E-05	-9.990E+00	-5.001E+01	-5.001E+01	-5.001E+01	-5.001E+01	-5.001E+01	-5.001E+01	-5.001E+01	-5.001E+01	-5.001E+01	-5.001E+01	-5.001E+01	-5.001E+01	-5.001E+01	-5.000E+01	-4.984E+01	-4.927E+01	-4.830E+01	-4.695E+01	-4.526E+01	-4.324E+01	-4.091E+01	-3.831E+01	-3.544E+01	-3.234E+01	-2.902E+01	-2.551E+01	-2.183E+01	-1.802E+01	-1.407E+01	-1.001E+01	-5.001E+01	-5.001E+01	-5.001E+01	-5.001E+01	-5.001E+01	-5.001E+01	-5.001E+01	-5.001E+01	-5.001E+01	-5.001E+01	-5.001E+01	-5.001E+01	-5.001E+01	-5.000E+01	-4.986E+01	-4.927E+01	-4.828E+01	-4.691E+01	-4.518E+01	-4.315E+01	-4.080E+01	-3.817E+01	-3.527E+01	-3.214E+01	-2.880E+01	-2.530E+01	-2.165E+01	-1.787E+01	-1.399E+01	-1.001E+01
    0.2700	 2.000E+01	-5.765E-07	-4.902E-04	-4.126E-05	-2.181E-02	 1.259E-04	 2.009E+01	-5.293E-03	-2.063E-04	 9.068E-02	 1.470E+00	-3.820E-01	 6.020E-03	 5.025E-01	-3.825E-01	 9.476E-04	 6.685E+02	 5.373E+02	-1.248E+04	-4.092E+03	 1.610E+03	-2.035E+01	-1.006E+05	 4.144E+04	 5.661E+02	 2.470E+04	 5.857E+04	-1.800E+00	-1.511E+04	 5.488E+03	 2.920E+03	-1.309E+02	 4.080E+05	 2.407E-03	-1.668E+05	-5.711E+01	 2.769E+05	 4.394E+04	 1.133E+05	 1.542E+05	 7.158E+05	 1.114E+04	 2.699E+01	 1.324E+01	 2.426E+00	 1.036E+00	 8.269E-01	 9.053E+05	 1.722E+03	 2.681E+07	 5.921E+05	 5.067E+05	 5.924E+05	 2.281E+05	 2.438E+05	 2.281E+05	 3.844E+05	 2.933E+05	 3.846E+05	 1.465E+04	 1.842E+04	 1.465E+04	 3.573E+05	 1.410E+05	-1.505E+04	 2.929E+05	 0.000E+00	-1.424E+04	 3.575E+05	-1.411E+05	-1.505E+04	-4.562E+01	 1.933E+01	-1.465E+04	 1.207E+04	-0.000E+00	-1.391E+04	-4.559E+01	-1.932E+01	-1.465E+04	-3.583E+05	-1.171E+05	-4.565E+05	-1.400E+01	-8.250E-05	-1.001E+01	-3.068E+05	 7.520E+00	-4.034E+05	-1.400E+01	-8.250E-05	-1.001E+01	-3.586E+05	 1.172E+05	-4.568E+05	-1.400E+01	-8.250E-05	-1.001E+01	-3.639E+04	-6.613E+03	-2.251E+05	 5.400E+01	 6.695E-05	-9.988E+00	-4.141E+04	-2.925E+00	-2.403E+05	 5.400E+01	 6.695E-05	-9.988E+00	-3.639E+04	 6.608E+03	-2.251E+05	 5.400E+01	 6.695E-05	-9.988E+00	-5.001E+01	-5.001E+01	-5.001E+01	-5.001E+01	-5.001E+01	-5.001E+01	-5.001E+01	-5.001E+01	-5.001E+01	-5.001E+01	-5.001E+01	-5.001E+01	-5.001E+01	-5.000E+01	-4.984E+01	-4.927E+01	-4.830E+01	-4.696E+01	-4.526E+01	-4.324E+01	-4.092E+01	-3.831E+01	-3.545E+01	-3.234E+01	-2.902E+01	-2.551E+01	-2.184E+01	-1.802E+01	-1.407E+01	-1.001E+01	-5.001E+01	-5.001E+01	-5.001E+01	-5.001E+01	-5.001E+01	-5.001E+01	-5.001E+01	-5.001E+01	-5.001E+01	-5.001E+01	-5.001E+01	-5.001E+01	-5.001E+01	-5.000E+01	-4.986E+01	-4.927E+01	-4.828E+01	-4.691E+01	-4.519E+01	-4.316E+01	-4.081E+01	-3.817E+01	-3.528E+01	-3.215E+01	-2.880E+01	-2.530E+01	-2.165E+01	-1.788E+01	-1.399E+01	-1.001E+01
    0.3000	 2.000E+01	-7.248E-07	-6.230E-04	-6.524E-05	-2.725E-02	 1.747E-04	 2.010E+01	-6.801E-03	-2.789E-04	 9.389E-02	 1.624E+00	-4.904E-01	 6.967E-03	 6.475E-01	-4.404E-01	 1.409E-03	 7.240E+02	 5.855E+02	-1.243E+04	-4.102E+03	 1.608E+03	-2.018E+01	-1.013E+05	 5.354E+04	 6.293E+02	 2.747E+04	 5.765E+04	-1.901E+00	-1.487E+04	 6.105E+03	 3.250E+03	-1.674E+02	 4.080E+05	 3.085E-03	-1.668E+05	-7.304E+01	 3.026E+05	 5.051E+04	 1.120E+05	 1.743E+05	 6.616E+05	 1.226E+04	 2.633E+01	 1.287E+01	 2.499E+00	 1.069E+00	 8.117E-01	 8.815E+05	 2.406E+03	 2.680E+07	 5.788E+05	 5.134E+05	 5.791E+05	 2.288E+05	 2.438E+05	 2.288E+05	 3.744E+05	 3.006E+05	 3.747E+05	 1.465E+04	 1.852E+04	 1.465E+04	 3.481E+05	 1.373E+05	-1.504E+04	 3.002E+05	 0.000E+00	-1.425E+04	 3.483E+05	-1.374E+05	-1.504E+04	-7.588E+01	 3.215E+01	-1.465E+04	 1.224E+04	-0.000E+00	-1.391E+04	-7.584E+01	-3.214E+01	-1.465E+04	-3.502E+05	-1.146E+05	-4.463E+05	-1.400E+01	-1.158E-04	-1.002E+01	-3.108E+05	 1.049E+01	-4.086E+05	-1.400E+01	-1.158E-04	-1.002E+01	-3.504E+05	 1.146E+05	-4.466E+05	-1.400E+01	-1.158E-04	-1.002E+01	-3.629E+04	-6.587E+03	-2.258E+05	 5.400E+01	 9.156E-05	-9.984E+00	-4.119E+04	-3.959E+00	-2.403E+05	 5.400E+01	 9.156E-05	-9.984E+00	-3.629E+04	 6.579E+03	-2.258E+05	 5.400E+01	 9.156E-05	-9.984E+00	-5.001E+01	-5.001E+01	-5.001E+01	-5.001E+01	-5.001E+01	-5.001E+01	-5.001E+01	-5.001E+01	-5.001E+01	-5.001E+01	-5.001E+01	-5.001E+01	-5.001E+01	-5.000E+01	-4.984E+01	-4.927E+01	-4.830E+01	-4.696E+01	-4.527E+01	-4.325E+01	-4.093E+01	-3.832E+01	-3.545E+01	-3.234E+01	-2.902E+01	-2.551E+01	-2.184E+01	-1.802E+01	-1.407E+01	-1.002E+01	-5.001E+01	-5.001E+01	-5.001E+01	-5.001E+01	-5.001E+01	-5.001E+01	-5.001E+01	-5.001E+01	-5.001E+01	-5.001E+01	-5.001E+01	-5.001E+01	-5.001E+01	-5.000E+01	-4.985E+01	-4.927E+01	-4.828E+01	-4.691E+01	-4.519E+01	-4.316E+01	-4.082E+01	-3.818E+01	-3.529E+01	-3.215E+01	-2.880E+01	-2.530E+01	-2.165E+01	-1.788E+01	-1.400E+01	-1.002E+01
    0.3300	 2.000E+01	-8.863E-07	-7.725E-04	-9.872E-05	-3.334E-02	 2.329E-04	 2.010E+01	-8.443E-03	-3.752E-04	 9.700E-02	 1.768E+00	-6.103E-01	 7.736E-03	 7.936E-01	-5.112E-01	 1.831E-03	 7.877E+02	 6.338E+02	-1.238E+04	-4.113E+03	 1.606E+03	-2.000E+01	-1.020E+05	 6.791E+04	 6.806E+02	 3.024E+04	 5.661E+04	-1.968E+00	-1.460E+04	 6.719E+03	 3.516E+03	-2.124E+02	 4.080E+05	 3.864E-03	-1.668E+05	-9.256E+01	 3.298E+05	 5.747E+04	 1.111E+05	 1.961E+05	 5.896E+05	 1.326E+04	 2.572E+01	 1.245E+01	 2.556E+00	 1.104E+00	 7.943E-01	 8.634E+05	 2.942E+03	 2.680E+07	 5.683E+05	 5.312E+05	 5.687E+05	 2.290E+05	 2.437E+05	 2.290E+05	 3.541E+05	 3.174E+05	 3.543E+05	 1.465E+04	 1.863E+04	 1.465E+04	 3.291E+05	 1.297E+05	-1.502E+04	 3.171E+05	 0.000E+00	-1.427E+04	 3.294E+05	-1.298E+05	-1.502E+04	-1.063E+02	 4.505E+01	-1.465E+04	 1.240E+04	-0.000E+00	-1.391E+04	-1.063E+02	-4.503E+01	-1.465E+04	-3.438E+05	-1.126E+05	-4.383E+05	-1.400E+01	-1.563E-04	-1.002E+01	-3.217E+05	 1.435E+01	-4.227E+05	-1.400E+01	-1.563E-04	-1.002E+01	-3.441E+05	 1.127E+05	-4.386E+05	-1.400E+01	-1.563E-04	-1.002E+01	-3.612E+04	-6.548E+03	-2.261E+05	 5.400E+01	 1.201E-04	-9.981E+00	-4.096E+04	-5.129E+00	-2.403E+05	 5.400E+01	 1.201E-04	-9.981E+00	-3.612E+04	 6.538E+03	-2.261E+05	 5.400E+01	 1.201E-04	-9.981E+00	-5.001E+01	-5.001E+01	-5.001E+01	-5.001E+01	-5.001E+01	-5.001E+01	-5.001E+01	-5.001E+01	-5.001E+01	-5.001E+01	-5.001E+01	-5.001E+01	-5.001E+01	-5.000E+01	-4.984E+01	-4.927E+01	-4.831E+01	-4.697E+01	-4.527E+01	-4.325E+01	-4.093E+01	-3.833E+01	-3.546E+01	-3.235E+01	-2.902E+01	-2.552E+01	-2.184E+01	-1.802E+01	-1.408E+01	-1.002E+01	-5.001E+01	-5.001E+01	-5.001E+01	-5.001E+01	-5.001E+01	-5.001E+01	-5.001E+01	-5.001E+01	-5.001E+01	-5.001E+01	-5.001E+01	-5.001E+01	-5.001E+01	-5.000E+01	-4.985E+01	-4.927E+01	-4.829E+01	-4.692E+01	-4.519E+01	-4.317E+01	-4.083E+01	-3.819E+01	-3.529E+01	-3.216E+01	-2.881E+01	-2.530E+01	-2.165E+01	-1.788E+01	-1.400E+01	-1.002E+01
    0.3600	 2.000E+01	-1.058E-06	-9.381E-04	-1.439E-04	-4.009E-02	 3.002E-04	 2.011E+01	-1.017E-02	-4.953E-04	 9.986E-02	 1.911E+00	-7.374E-01	 8.401E-03	 9.388E-01	-6.019E-01	 2.175E-03	 8.545E+02	 6.818E+02	-1.232E+04	-4.124E+03	 1.604E+03	-1.974E+01	-1.028E+05	 8.337E+04	 7.191E+02	 3.299E+04	 5.546E+04	-2.025E+00	-1.431E+04	 7.330E+03	 3.714E+03	-2.631E+02	 4.080E+05	 4.708E-03	-1.668E+05	-1.146E+02	 3.563E+05	 6.442E+04	 1.103E+05	 2.172E+05	 5.054E+05	 1.422E+04	 2.507E+01	 1.202E+01	 2.613E+00	 1.138E+00	 7.770E-01	 8.440E+05	 3.397E+03	 2.680E+07	 5.577E+05	 5.413E+05	 5.581E+05	 2.294E+05	 2.444E+05	 2.294E+05	 3.422E+05	 3.392E+05	 3.424E+05	 1.465E+04	 1.873E+04	 1.465E+04	 3.181E+05	 1.252E+05	-1.501E+04	 3.389E+05	 0.000E+00	-1.429E+04	 3.183E+05	-1.253E+05	-1.501E+04	-1.364E+02	 5.781E+01	-1.465E+04	 1.255E+04	-0.000E+00	-1.391E+04	-1.364E+02	-5.779E+01	-1.465E+04	-3.373E+05	-1.106E+05	-4.302E+05	-1.400E+01	-2.043E-04	-1.002E+01	-3.279E+05	 1.865E+01	-4.307E+05	-1.400E+01	-2.043E-04	-1.002E+01	-3.376E+05	 1.107E+05	-4.304E+05	-1.400E+01	-2.043E-04	-1.002E+01	-3.598E+04	-6.512E+03	-2.265E+05	 5.400E+01	 1.520E-04	-9.977E+00	-4.085E+04	-6.415E+00	-2.409E+05	 5.400E+01	 1.520E-04	-9.977E+00	-3.598E+04	 6.500E+03	-2.265E+05	 5.400E+01	 1.520E-04	-9.977E+00	-5.001E+01	-5.001E+01	-5.001E+01	-5.001E+01	-5.001E+01	-5.001E+01	-5.001E+01	-5.001E+01	-5.001E+01	-5.001E+01	-5.001E+01	-5.001E+01	-5.001E+01	-5.000E+01	-4.984E+01	-4.927E+01	-4.831E+01	-4.697E+01	-4.528E+01	-4.326E+01	-4.094E+01	-3.833E+01	-3.546E+01	-3.235E+01	-2.903E+01	-2.552E+01	-2.184E+01	-1.803E+01	-1.408E+01	-1.002E+01	-5.001E+01	-5.001E+01	-5.001E+01	-5.001E+01	-5.001E+01	-5.001E+01	-5.001E+01	-5.001E+01	-5.001E+01	-5.001E+01	-5.001E+01	-5.001E+01	-5.001E+01	-5.000E+01	-4.984E+01	-4.927E+01	-4.829E+01	-4.692E+01	-4.520E+01	-4.317E+01	-4.083E+01	-3.820E+01	-3.530E+01	-3.216E+01	-2.881E+01	-2.530E+01	-2.165E+01	-1.789E+01	-1.401E+01	-1.002E+01
    0.3900	 2.000E+01	-1.208E-06	-1.118E-03	-2.028E-04	-4.748E-02	 3.761E-04	 2.012E+01	-1.196E-02	-6.375E-04	 1.030E-01	 2.038E+00	-8.671E-01	 8.803E-03	 1.102E+00	-6.963E-01	 2.673E-03	 9.168E+02	 7.295E+02	-1.226E+04	-4.135E+03	 1.601E+03	-1.964E+01	-1.037E+05	 9.759E+04	 7.507E+02	 3.572E+04	 5.419E+04	-2.053E+00	-1.398E+04	 7.938E+03	 3.874E+03	-3.103E+02	 4.080E+05	 5.542E-03	-1.668E+05	-1.351E+02	 3.808E+05	 7.069E+04	 1.092E+05	 2.368E+05	 4.395E+05	 1.508E+04	 2.439E+01	 1.158E+01	 2.646E+00	 1.163E+00	 7.596E-01	 8.310E+05	 4.007E+03	 2.680E+07	 5.548E+05	 5.484E+05	 5.552E+05	 2.299E+05	 2.442E+05	 2.299E+05	 3.426E+05	 3.431E+05	 3.429E+05	 1.465E+04	 1.884E+04	 1.465E+04	 3.185E+05	 1.253E+05	-1.501E+04	 3.428E+05	 0.000E+00	-1.430E+04	 3.188E+05	-1.254E+05	-1.501E+04	-1.658E+02	 7.025E+01	-1.465E+04	 1.271E+04	-0.000E+00	-1.391E+04	-1.657E+02	-7.023E+01	-1.465E+04	-3.356E+05	-1.101E+05	-4.279E+05	-1.399E+01	-2.598E-04	-1.003E+01	-3.322E+05	 2.337E+01	-4.364E+05	-1.399E+01	-2.598E-04	-1.003E+01	-3.358E+05	 1.102E+05	-4.282E+05	-1.399E+01	-2.598E-04	-1.003E+01	-3.585E+04	-6.477E+03	-2.270E+05	 5.401E+01	 1.867E-04	-9.973E+00	-4.061E+04	-7.744E+00	-2.408E+05	 5.401E+01	 1.867E-04	-9.973E+00	-3.585E+04	 6.463E+03	-2.270E+05	 5.401E+01	 1.867E-04	-9.973E+00	-5.001E+01	-5.001E+01	-5.001E+01	-5.001E+01	-5.001E+01	-5.001E+01	-5.001E+01	-5.001E+01	-5.001E+01	-5.001E+01	-5.001E+01	-5.001E+01	-5.001E+01	-5.000E+01	-4.985E+01	-4.928E+01	-4.832E+01	-4.698E+01	-4.528E+01	-4.327E+01	-4.095E+01	-3.834E+01	-3.547E+01	-3.236E+01	-2.903E+01	-2.552E+01	-2.185E+01	-1.803E+01	-1.408E+01	-1.003E+01	-5.001E+01	-5.001E+01	-5.001E+01	-5.001E+01	-5.001E+01	-5.001E+01	-5.001E+01	-5.001E+01	-5.001E+01	-5.001E+01	-5.001E+01	-5.001E+01	-5.001E+01	-5.000E+01	-4.984E+01	-4.927E+01	-4.829E+01	-4.693E+01	-4.521E+01	-4.318E+01	-4.084E+01	-3.820E+01	-3.530E+01	-3.217E+01	-2.881E+01	-2.530E+01	-2.166E+01	-1.789E+01	-1.401E+01	-1.003E+01