
FAST Summary File

Predictions were generated on 18-May-2023 at 16:56:43 using OpenFAST, compiled as a 64-bit application using double precision at commit v3.5.0
  compiled with
    NWTC Subroutine Library
    ElastoDyn
    BeamDyn (unknown version, unknown date) [not called]
    InflowWind
    AeroDyn14 (unknown version, unknown date) [not called]
    AeroDyn
    ServoDyn (unknown version, unknown date) [not called]
    HydroDyn
    SubDyn (unknown version, unknown date) [not called]
    ExtPtfm_MCKF (unknown version, unknown date) [not called]
    MAP (unknown version, unknown date) [not called]
    FEAMooring (unknown version, unknown date) [not called]
    MoorDyn (v2.0.0, 2022-12-08)
    OrcaFlexInterface (unknown version, unknown date) [not called]
    IceFloe (unknown version, unknown date) [not called]
    IceDyn (unknown version, unknown date) [not called]


Modeling a floating MHK turbine
Description from the FAST input file: 
  Floating MHK turbine, based on the RM1 tidal current rotor

Interpolation order for input/output time histories: 2 (quadratic)
Number of correction iterations:  5
Number of rows in Jacobian matrix used for coupling ElastoDyn to HydroDyn:     12


   Requested Time Steps  
  -------------------------------------------------
  Component          Time Step (s)    Subcycles (-)
  -----------------  ---------------  -------------
  FAST (glue code)    3.000E-03
  InflowWind          3.000E-03              1
  ElastoDyn           3.000E-03              1
  AeroDyn             3.000E-03              1
  HydroDyn            3.000E-03              1
  MoorDyn             3.000E-03              1
  FAST output files   3.000E-02             10^-1


   Requested Channels in FAST Output File(s)  
  --------------------------------------------
  Number  Name                  Units                 Generated by
  ------  --------------------  --------------------  ------------
       1  Time                  (s)                   OpenFAST
       2  PtfmSurge             (m)                   ElastoDyn
       3  PtfmSway              (m)                   ElastoDyn
       4  PtfmHeave             (m)                   ElastoDyn
       5  PtfmRoll              (deg)                 ElastoDyn
       6  PtfmPitch             (deg)                 ElastoDyn
       7  PtfmYaw               (deg)                 ElastoDyn
       8  TwrTpTDxi             (m)                   ElastoDyn
       9  TwrTpTDyi             (m)                   ElastoDyn
      10  TwrTpTDzi             (m)                   ElastoDyn
      11  OoPDefl1              (m)                   ElastoDyn
      12  TwN1Fbx               (N/m)                 AeroDyn
      13  TwN3Fby               (N/m)                 AeroDyn
      14  TwN4Fbz               (N/m)                 AeroDyn
      15  TwN1Mbx               (N-m/m)               AeroDyn
      16  TwN2Mby               (N-m/m)               AeroDyn
      17  TwN3Mbz               (N-m/m)               AeroDyn
      18  B2N4Fbn               (N/m)                 AeroDyn
      19  B1N7Fbt               (N/m)                 AeroDyn
      20  B2N8Fbs               (N/m)                 AeroDyn
      21  B1N2Mbn               (N-m/m)               AeroDyn
      22  B2N3Mbt               (N-m/m)               AeroDyn
      23  B1N6Mbs               (N-m/m)               AeroDyn
      24  B1FldFz               (N)                   AeroDyn
      25  B2FldMx               (N-m)                 AeroDyn
      26  HbFbx                 (N)                   AeroDyn
      27  HbFby                 (N)                   AeroDyn
      28  HbFbz                 (N)                   AeroDyn
      29  HbMbx                 (N-m)                 AeroDyn
      30  HbMby                 (N-m)                 AeroDyn
      31  HbMbz                 (N-m)                 AeroDyn
      32  NcFbx                 (N)                   AeroDyn
      33  NcFby                 (N)                   AeroDyn
      34  NcFbz                 (N)                   AeroDyn
      35  NcMbx                 (N-m)                 AeroDyn
      36  NcMby                 (N-m)                 AeroDyn
      37  NcMbz                 (N-m)                 AeroDyn
      38  RtFldFxh              (N)                   AeroDyn
      39  RtFldFyh              (N)                   AeroDyn
      40  RtFldFzg              (N)                   AeroDyn
      41  RtFldMxh              (N-m)                 AeroDyn
      42  RtFldMyg              (N-m)                 AeroDyn
      43  RtFldMzh              (N-m)                 AeroDyn
      44  B1N3SigCr             (-)                   AeroDyn
      45  B2N5SigCr             (-)                   AeroDyn
      46  B1N2SgCav             (-)                   AeroDyn
      47  B2N6SgCav             (-)                   AeroDyn
      48  Wave1Elev             (m)                   HydroDyn
      49  HydroFxi              (N)                   HydroDyn
      50  HydroFyi              (N)                   HydroDyn
      51  HydroFzi              (N)                   HydroDyn
      52  FAIRTEN1              (N)                   MoorDyn
      53  FAIRTEN2              (N)                   MoorDyn
      54  FAIRTEN3              (N)                   MoorDyn
      55  FAIRTEN4              (N)                   MoorDyn
      56  FAIRTEN5              (N)                   MoorDyn
      57  FAIRTEN6              (N)                   MoorDyn
      58  ANCHTEN1              (N)                   MoorDyn
      59  ANCHTEN2              (N)                   MoorDyn
      60  ANCHTEN3              (N)                   MoorDyn
      61  ANCHTEN4              (N)                   MoorDyn
      62  ANCHTEN5              (N)                   MoorDyn
      63  ANCHTEN6              (N)                   MoorDyn
      64  CON1FX                (N)                   MoorDyn
      65  CON1FY                (N)                   MoorDyn
      66  CON1FZ                (N)                   MoorDyn
      67  CON2FX                (N)                   MoorDyn
      68  CON2FY                (N)                   MoorDyn
      69  CON2FZ                (N)                   MoorDyn
      70  CON3FX                (N)                   MoorDyn
      71  CON3FY                (N)                   MoorDyn
      72  CON3FZ                (N)                   MoorDyn
      73  CON4FX                (N)                   MoorDyn
      74  CON4FY                (N)                   MoorDyn
      75  CON4FZ                (N)                   MoorDyn
      76  CON5FX                (N)                   MoorDyn
      77  CON5FY                (N)                   MoorDyn
      78  CON5FZ                (N)                   MoorDyn
      79  CON6FX                (N)                   MoorDyn
      80  CON6FY                (N)                   MoorDyn
      81  CON6FZ                (N)                   MoorDyn
      82  CON7FX                (N)                   MoorDyn
      83  CON7FY                (N)                   MoorDyn
      84  CON7FZ                (N)                   MoorDyn
      85  CON7PX                (m)                   MoorDyn
      86  CON7PY                (m)                   MoorDyn
      87  CON7PZ                (m)                   MoorDyn
      88  CON8FX                (N)                   MoorDyn
      89  CON8FY                (N)                   MoorDyn
      90  CON8FZ                (N)                   MoorDyn
      91  CON8PX                (m)                   MoorDyn
      92  CON8PY                (m)                   MoorDyn
      93  CON8PZ                (m)                   MoorDyn
      94  CON9FX                (N)                   MoorDyn
      95  CON9FY                (N)                   MoorDyn
      96  CON9FZ                (N)                   MoorDyn
      97  CON9PX                (m)                   MoorDyn
      98  CON9PY                (m)                   MoorDyn
      99  CON9PZ                (m)                   MoorDyn
     100  CON10FX               (N)                   MoorDyn
     101  CON10FY               (N)                   MoorDyn
     102  CON10FZ               (N)                   MoorDyn
     103  CON10PX               (m)                   MoorDyn
     104  CON10PY               (m)                   MoorDyn
     105  CON10PZ               (m)                   MoorDyn
     106  CON11FX               (N)                   MoorDyn
     107  CON11FY               (N)                   MoorDyn
     108  CON11FZ               (N)                   MoorDyn
     109  CON11PX               (m)                   MoorDyn
     110  CON11PY               (m)                   MoorDyn
     111  CON11PZ               (m)                   MoorDyn
     112  CON12FX               (N)                   MoorDyn
     113  CON12FY               (N)                   MoorDyn
     114  CON12FZ               (N)                   MoorDyn
     115  CON12PX               (m)                   MoorDyn
     116  CON12PY               (m)                   MoorDyn
     117  CON12PZ               (m)                   MoorDyn
     118  L1N1PZ                (m)                   MoorDyn
     119  L1N2PZ                (m)                   MoorDyn
     120  L1N3PZ                (m)                   MoorDyn
     121  L1N4PZ                (m)                   MoorDyn
     122  L1N5PZ                (m)                   MoorDyn
     123  L1N6PZ                (m)                   MoorDyn
     124  L1N7PZ                (m)                   MoorDyn
     125  L1N8PZ                (m)                   MoorDyn
     126  L1N9PZ                (m)                   MoorDyn
     127  L1N10PZ               (m)                   MoorDyn
     128  L1N11PZ               (m)                   MoorDyn
     129  L1N12PZ               (m)                   MoorDyn
     130  L1N13PZ               (m)                   MoorDyn
     131  L1N14PZ               (m)                   MoorDyn
     132  L1N15PZ               (m)                   MoorDyn
     133  L1N16PZ               (m)                   MoorDyn
     134  L1N17PZ               (m)                   MoorDyn
     135  L1N18PZ               (m)                   MoorDyn
     136  L1N19PZ               (m)                   MoorDyn
     137  L1N20PZ               (m)                   MoorDyn
     138  L1N21PZ               (m)                   MoorDyn
     139  L1N22PZ               (m)                   MoorDyn
     140  L1N23PZ               (m)                   MoorDyn
     141  L1N24PZ               (m)                   MoorDyn
     142  L1N25PZ               (m)                   MoorDyn
     143  L1N26PZ               (m)                   MoorDyn
     144  L1N27PZ               (m)                   MoorDyn
     145  L1N28PZ               (m)                   MoorDyn
     146  L1N29PZ               (m)                   MoorDyn
     147  L1N30PZ               (m)                   MoorDyn
     148  L2N1PZ                (m)                   MoorDyn
     149  L2N2PZ                (m)                   MoorDyn
     150  L2N3PZ                (m)                   MoorDyn
     151  L2N4PZ                (m)                   MoorDyn
     152  L2N5PZ                (m)                   MoorDyn
     153  L2N6PZ                (m)                   MoorDyn
     154  L2N7PZ                (m)                   MoorDyn
     155  L2N8PZ                (m)                   MoorDyn
     156  L2N9PZ                (m)                   MoorDyn
     157  L2N10PZ               (m)                   MoorDyn
     158  L2N11PZ               (m)                   MoorDyn
     159  L2N12PZ               (m)                   MoorDyn
     160  L2N13PZ               (m)                   MoorDyn
     161  L2N14PZ               (m)                   MoorDyn
     162  L2N15PZ               (m)                   MoorDyn
     163  L2N16PZ               (m)                   MoorDyn
     164  L2N17PZ               (m)                   MoorDyn
     165  L2N18PZ               (m)                   MoorDyn
     166  L2N19PZ               (m)                   MoorDyn
     167  L2N20PZ               (m)                   MoorDyn
     168  L2N21PZ               (m)                   MoorDyn
     169  L2N22PZ               (m)                   MoorDyn
     170  L2N23PZ               (m)                   MoorDyn
     171  L2N24PZ               (m)                   MoorDyn
     172  L2N25PZ               (m)                   MoorDyn
     173  L2N26PZ               (m)                   MoorDyn
     174  L2N27PZ               (m)                   MoorDyn
     175  L2N28PZ               (m)                   MoorDyn
     176  L2N29PZ               (m)                   MoorDyn
     177  L2N30PZ               (m)                   MoorDyn
