
FAST Summary File

Predictions were generated on 02-May-2024 at 22:00:14 using OpenFAST, compiled on May  2 2024 at 21:38:56 as a 64-bit application using double precision at commit -128-NOTFOUND
  run with
    NWTC Subroutine Library
    InflowWind
    ElastoDyn
    AeroDyn
    SeaState
    HydroDyn
    MoorDyn (v2.2.2, 2024-01-16)
Description from the FAST input file: 
  Floating MHK turbine, based on the RM1 tidal current rotor

Interpolation order for input/output time histories: 2 (quadratic)
Number of correction iterations:  5
Number of rows in Jacobian matrix used for coupling ElastoDyn to HydroDyn:     12


   Requested Time Steps  
  -------------------------------------------------
  Component          Time Step (s)    Subcycles (-)
  -----------------  ---------------  -------------
  FAST (glue code)    3.000E-03
  InflowWind          3.000E-03              1
  ElastoDyn           3.000E-03              1
  AeroDyn             3.000E-03              1
  SeaState            3.000E-03              1
  HydroDyn            3.000E-03              1
  MoorDyn             3.000E-03              1
  FAST output files   3.000E-02             10^-1


   Requested Channels in FAST Output File(s)  
  --------------------------------------------
  Number  Name                  Units                 Generated by
  ------  --------------------  --------------------  ------------
       1  Time                  (s)                   OpenFAST
       2  PtfmSurge             (m)                   ElastoDyn
       3  PtfmSway              (m)                   ElastoDyn
       4  PtfmHeave             (m)                   ElastoDyn
       5  PtfmRoll              (deg)                 ElastoDyn
       6  PtfmPitch             (deg)                 ElastoDyn
       7  PtfmYaw               (deg)                 ElastoDyn
       8  TwrTpTDxi             (m)                   ElastoDyn
       9  TwrTpTDyi             (m)                   ElastoDyn
      10  TwrTpTDzi             (m)                   ElastoDyn
      11  OoPDefl1              (m)                   ElastoDyn
      12  TwN1Fbx               (N/m)                 AeroDyn
      13  TwN3Fby               (N/m)                 AeroDyn
      14  TwN4Fbz               (N/m)                 AeroDyn
      15  TwN1Mbx               (N-m/m)               AeroDyn
      16  TwN2Mby               (N-m/m)               AeroDyn
      17  TwN3Mbz               (N-m/m)               AeroDyn
      18  B2N4Fbn               (N/m)                 AeroDyn
      19  B1N7Fbt               (N/m)                 AeroDyn
      20  B2N8Fbs               (N/m)                 AeroDyn
      21  B1N2Mbn               (N-m/m)               AeroDyn
      22  B2N3Mbt               (N-m/m)               AeroDyn
      23  B1N6Mbs               (N-m/m)               AeroDyn
      24  B1FldFz               (N)                   AeroDyn
      25  B2FldMx               (N-m)                 AeroDyn
      26  HbFbx                 (N)                   AeroDyn
      27  HbFby                 (N)                   AeroDyn
      28  HbFbz                 (N)                   AeroDyn
      29  HbMbx                 (N-m)                 AeroDyn
      30  HbMby                 (N-m)                 AeroDyn
      31  HbMbz                 (N-m)                 AeroDyn
      32  NcFbx                 (N)                   AeroDyn
      33  NcFby                 (N)                   AeroDyn
      34  NcFbz                 (N)                   AeroDyn
      35  NcMbx                 (N-m)                 AeroDyn
      36  NcMby                 (N-m)                 AeroDyn
      37  NcMbz                 (N-m)                 AeroDyn
      38  RtFldFxh              (N)                   AeroDyn
      39  RtFldFyh              (N)                   AeroDyn
      40  RtFldFzg              (N)                   AeroDyn
      41  RtFldMxh              (N-m)                 AeroDyn
      42  RtFldMyg              (N-m)                 AeroDyn
      43  RtFldMzh              (N-m)                 AeroDyn
      44  B1N3SigCr             (-)                   AeroDyn
      45  B2N5SigCr             (-)                   AeroDyn
      46  B1N2SgCav             (-)                   AeroDyn
      47  B2N6SgCav             (-)                   AeroDyn
      48  Wave1Elev             (m)                   SeaState
      49  HydroFxi              (N)                   HydroDyn
      50  HydroFyi              (N)                   HydroDyn
      51  HydroFzi              (N)                   HydroDyn
      52  FAIRTEN1              (N)                   MoorDyn
      53  FAIRTEN2              (N)                   MoorDyn
      54  FAIRTEN3              (N)                   MoorDyn
      55  FAIRTEN4              (N)                   MoorDyn
      56  FAIRTEN5              (N)                   MoorDyn
      57  FAIRTEN6              (N)                   MoorDyn
      58  ANCHTEN1              (N)                   MoorDyn
      59  ANCHTEN2              (N)                   MoorDyn
      60  ANCHTEN3              (N)                   MoorDyn
      61  ANCHTEN4              (N)                   MoorDyn
      62  ANCHTEN5              (N)                   MoorDyn
      63  ANCHTEN6              (N)                   MoorDyn
      64  P1FX                  (N)                   MoorDyn
      65  P1FY                  (N)                   MoorDyn
      66  P1FZ                  (N)                   MoorDyn
      67  P2FX                  (N)                   MoorDyn
      68  P2FY                  (N)                   MoorDyn
      69  P2FZ                  (N)                   MoorDyn
      70  P3FX                  (N)                   MoorDyn
      71  P3FY                  (N)                   MoorDyn
      72  P3FZ                  (N)                   MoorDyn
      73  P4FX                  (N)                   MoorDyn
      74  P4FY                  (N)                   MoorDyn
      75  P4FZ                  (N)                   MoorDyn
      76  P5FX                  (N)                   MoorDyn
      77  P5FY                  (N)                   MoorDyn
      78  P5FZ                  (N)                   MoorDyn
      79  P6FX                  (N)                   MoorDyn
      80  P6FY                  (N)                   MoorDyn
      81  P6FZ                  (N)                   MoorDyn
      82  P7FX                  (N)                   MoorDyn
      83  P7FY                  (N)                   MoorDyn
      84  P7FZ                  (N)                   MoorDyn
      85  P7PX                  (m)                   MoorDyn
      86  P7PY                  (m)                   MoorDyn
      87  P7PZ                  (m)                   MoorDyn
      88  P8FX                  (N)                   MoorDyn
      89  P8FY                  (N)                   MoorDyn
      90  P8FZ                  (N)                   MoorDyn
      91  P8PX                  (m)                   MoorDyn
      92  P8PY                  (m)                   MoorDyn
      93  P8PZ                  (m)                   MoorDyn
      94  P9FX                  (N)                   MoorDyn
      95  P9FY                  (N)                   MoorDyn
      96  P9FZ                  (N)                   MoorDyn
      97  P9PX                  (m)                   MoorDyn
      98  P9PY                  (m)                   MoorDyn
      99  P9PZ                  (m)                   MoorDyn
     100  P10FX                 (N)                   MoorDyn
     101  P10FY                 (N)                   MoorDyn
     102  P10FZ                 (N)                   MoorDyn
     103  P10PX                 (m)                   MoorDyn
     104  P10PY                 (m)                   MoorDyn
     105  P10PZ                 (m)                   MoorDyn
     106  P11FX                 (N)                   MoorDyn
     107  P11FY                 (N)                   MoorDyn
     108  P11FZ                 (N)                   MoorDyn
     109  P11PX                 (m)                   MoorDyn
     110  P11PY                 (m)                   MoorDyn
     111  P11PZ                 (m)                   MoorDyn
     112  P12FX                 (N)                   MoorDyn
     113  P12FY                 (N)                   MoorDyn
     114  P12FZ                 (N)                   MoorDyn
     115  P12PX                 (m)                   MoorDyn
     116  P12PY                 (m)                   MoorDyn
     117  P12PZ                 (m)                   MoorDyn
     118  L1N1PZ                (m)                   MoorDyn
     119  L1N2PZ                (m)                   MoorDyn
     120  L1N3PZ                (m)                   MoorDyn
     121  L1N4PZ                (m)                   MoorDyn
     122  L1N5PZ                (m)                   MoorDyn
     123  L1N6PZ                (m)                   MoorDyn
     124  L1N7PZ                (m)                   MoorDyn
     125  L1N8PZ                (m)                   MoorDyn
     126  L1N9PZ                (m)                   MoorDyn
     127  L1N10PZ               (m)                   MoorDyn
     128  L1N11PZ               (m)                   MoorDyn
     129  L1N12PZ               (m)                   MoorDyn
     130  L1N13PZ               (m)                   MoorDyn
     131  L1N14PZ               (m)                   MoorDyn
     132  L1N15PZ               (m)                   MoorDyn
     133  L1N16PZ               (m)                   MoorDyn
     134  L1N17PZ               (m)                   MoorDyn
     135  L1N18PZ               (m)                   MoorDyn
     136  L1N19PZ               (m)                   MoorDyn
     137  L1N20PZ               (m)                   MoorDyn
     138  L1N21PZ               (m)                   MoorDyn
     139  L1N22PZ               (m)                   MoorDyn
     140  L1N23PZ               (m)                   MoorDyn
     141  L1N24PZ               (m)                   MoorDyn
     142  L1N25PZ               (m)                   MoorDyn
     143  L1N26PZ               (m)                   MoorDyn
     144  L1N27PZ               (m)                   MoorDyn
     145  L1N28PZ               (m)                   MoorDyn
     146  L1N29PZ               (m)                   MoorDyn
     147  L1N30PZ               (m)                   MoorDyn
     148  L2N1PZ                (m)                   MoorDyn
     149  L2N2PZ                (m)                   MoorDyn
     150  L2N3PZ                (m)                   MoorDyn
     151  L2N4PZ                (m)                   MoorDyn
     152  L2N5PZ                (m)                   MoorDyn
     153  L2N6PZ                (m)                   MoorDyn
     154  L2N7PZ                (m)                   MoorDyn
     155  L2N8PZ                (m)                   MoorDyn
     156  L2N9PZ                (m)                   MoorDyn
     157  L2N10PZ               (m)                   MoorDyn
     158  L2N11PZ               (m)                   MoorDyn
     159  L2N12PZ               (m)                   MoorDyn
     160  L2N13PZ               (m)                   MoorDyn
     161  L2N14PZ               (m)                   MoorDyn
     162  L2N15PZ               (m)                   MoorDyn
     163  L2N16PZ               (m)                   MoorDyn
     164  L2N17PZ               (m)                   MoorDyn
     165  L2N18PZ               (m)                   MoorDyn
     166  L2N19PZ               (m)                   MoorDyn
     167  L2N20PZ               (m)                   MoorDyn
     168  L2N21PZ               (m)                   MoorDyn
     169  L2N22PZ               (m)                   MoorDyn
     170  L2N23PZ               (m)                   MoorDyn
     171  L2N24PZ               (m)                   MoorDyn
     172  L2N25PZ               (m)                   MoorDyn
     173  L2N26PZ               (m)                   MoorDyn
     174  L2N27PZ               (m)                   MoorDyn
     175  L2N28PZ               (m)                   MoorDyn
     176  L2N29PZ               (m)                   MoorDyn
     177  L2N30PZ               (m)                   MoorDyn
