
Predictions were generated on 23-Jul-2019 at 00:06:29 using OpenFAST, compiled as a 64-bit application using double precision at commit v2.1.0-139-ga6bab14b
 linked with  NWTC Subroutine Library; ElastoDyn; InflowWind; AeroDyn; ServoDyn

Description from the FAST input file: FAST Certification Test #12: WindPACT 1.5 MW Baseline with many DOFs with VS and VP and ECD wind.

Time      	Wind1VelX 	Wind1VelY 	Wind1VelZ 	OoPDefl3  	IPDefl3   	TipALxb3  	TipALyb3  	Spn4ALxb1 	Spn4ALyb1 	BldPitch3 	RotAccel  	LSSGagA   	HSShftA   	RootFxb3  	RootFyb3  	RootMEdg3 	RootMFlp3 	LSShftFya 	LSShftFza 	YawBrFxp  	YawBrFyp  	TwrBsFxt  	TwrBsFyt  	RtSkew    
(s)       	(m/s)     	(m/s)     	(m/s)     	(m)       	(m)       	(m/s^2)   	(m/s^2)   	(m/s^2)   	(m/s^2)   	(deg)     	(deg/s^2) 	(deg/s^2) 	(deg/s^2) 	(kN)      	(kN)      	(kN-m)    	(kN-m)    	(kN)      	(kN)      	(kN)      	(kN)      	(kN)      	(kN)      	(deg)     
    5.0000	 1.180E+01	 0.000E+00	 0.000E+00	 1.332E+00	-4.107E-01	 1.316E+01	 4.934E-01	 3.120E+00	 1.838E-01	 7.500E+00	 3.536E-02	 3.774E-02	 3.320E+00	 6.046E+01	-4.141E+01	 4.914E+02	 1.097E+03	 2.113E+02	 1.614E+02	 1.075E+02	 5.189E+00	 8.864E+01	 9.510E+00	 5.112E+00
    5.0500	 1.180E+01	 0.000E+00	 0.000E+00	 1.382E+00	-3.038E-01	 4.914E+01	-4.454E+00	 4.377E+00	 1.208E+00	 2.600E+00	-1.098E+01	-6.543E+00	-5.755E+02	 5.920E+01	-4.506E+01	 5.348E+02	 1.095E+03	 2.271E+02	 1.383E+02	 1.095E+02	 3.227E+00	 9.116E+01	 8.487E+00	 5.324E+00
    5.1000	 1.180E+01	 0.000E+00	 0.000E+00	 1.482E+00	-3.342E-01	 2.521E+01	 7.025E+00	 7.277E+00	-9.305E-02	 2.600E+00	 1.000E+01	-1.052E+00	-9.256E+01	 5.869E+01	-4.001E+01	 5.304E+02	 1.119E+03	 2.395E+02	 1.148E+02	 1.136E+02	 5.633E+00	 9.217E+01	 2.918E+00	 5.507E+00
    5.1500	 1.180E+01	 0.000E+00	 0.000E+00	 1.609E+00	-3.478E-01	 9.215E+00	 7.996E+00	 6.888E+00	 2.511E-01	 2.600E+00	 7.930E+00	 8.264E+00	 7.269E+02	 6.208E+01	-3.903E+01	 5.210E+02	 1.200E+03	 2.505E+02	 9.043E+01	 1.191E+02	 7.416E+00	 9.533E+01	 8.455E-01	 5.583E+00
    5.2000	 1.180E+01	 0.000E+00	 0.000E+00	 1.725E+00	-3.321E-01	 1.076E+01	 2.603E+00	 3.780E+00	 3.666E-01	 2.600E+00	 5.250E-01	 2.309E+00	 2.031E+02	 7.010E+01	-3.701E+01	 4.690E+02	 1.339E+03	 2.604E+02	 6.291E+01	 1.267E+02	 2.354E+00	 1.006E+02	 6.741E+00	 5.557E+00
    5.2500	 1.180E+01	 0.000E+00	 0.000E+00	 1.827E+00	-3.077E-01	 1.471E+01	-2.408E+00	 1.146E+00	 2.649E-01	 2.600E+00	-5.250E+00	-5.602E+00	-4.928E+02	 7.746E+01	-3.398E+01	 4.081E+02	 1.464E+03	 2.665E+02	 3.426E+01	 1.363E+02	-2.667E+00	 1.059E+02	 1.098E+01	 5.469E+00
    5.3000	 1.180E+01	 0.000E+00	 0.000E+00	 1.921E+00	-2.973E-01	 9.924E+00	-2.362E+00	 1.389E+00	 5.741E-02	 2.600E+00	-4.781E+00	-5.210E+00	-4.583E+02	 7.976E+01	-3.034E+01	 3.664E+02	 1.518E+03	 2.678E+02	 6.863E+00	 1.468E+02	-2.258E+00	 1.114E+02	 6.435E+00	 5.354E+00
    5.3500	 1.180E+01	 0.000E+00	 0.000E+00	 1.992E+00	-2.999E-01	 1.690E+00	 1.120E+00	 3.522E+00	-2.210E-01	 2.600E+00	 6.491E-01	 7.112E-01	 6.256E+01	 7.799E+01	-2.616E+01	 3.382E+02	 1.510E+03	 2.656E+02	-1.927E+01	 1.569E+02	 1.637E+00	 1.201E+02	-3.352E+00	 5.242E+00
    5.4000	 1.180E+01	 0.000E+00	 0.000E+00	 2.021E+00	-2.979E-01	 9.294E-01	 3.001E+00	 5.009E+00	-4.116E-01	 2.600E+00	 4.742E+00	 4.935E+00	 4.341E+02	 7.613E+01	-2.190E+01	 3.031E+02	 1.490E+03	 2.613E+02	-4.580E+01	 1.662E+02	 3.609E+00	 1.350E+02	-9.270E+00	 5.159E+00
    5.4500	 1.180E+01	 0.000E+00	 0.000E+00	 2.006E+00	-2.794E-01	 9.407E+00	 1.146E+00	 4.920E+00	-4.118E-01	 2.600E+00	 4.044E+00	 4.130E+00	 3.633E+02	 7.620E+01	-1.781E+01	 2.510E+02	 1.483E+03	 2.548E+02	-7.359E+01	 1.756E+02	 8.420E-01	 1.548E+02	-6.573E+00	 5.116E+00
    5.5000	 1.180E+01	 0.000E+00	 0.000E+00	 1.966E+00	-2.499E-01	 1.912E+01	-2.049E+00	 4.438E+00	-2.853E-01	 2.600E+00	 9.372E-01	 8.774E-01	 7.718E+01	 7.673E+01	-1.377E+01	 1.908E+02	 1.477E+03	 2.449E+02	-1.014E+02	 1.862E+02	-4.434E+00	 1.753E+02	 6.885E-01	 5.111E+00
    5.5500	 1.180E+01	 0.000E+00	 0.000E+00	 1.925E+00	-2.231E-01	 2.279E+01	-3.306E+00	 4.766E+00	-1.675E-01	 2.600E+00	-4.858E-01	-5.772E-01	-5.077E+01	 7.587E+01	-9.653E+00	 1.369E+02	 1.453E+03	 2.318E+02	-1.269E+02	 1.985E+02	-7.802E+00	 1.930E+02	 4.427E+00	 5.134E+00
    5.6000	 1.180E+01	 0.000E+00	 0.000E+00	 1.894E+00	-2.054E-01	 2.110E+01	-2.084E+00	 5.624E+00	-1.311E-01	 2.600E+00	 7.745E-01	 7.564E-01	 6.653E+01	 7.367E+01	-5.520E+00	 9.414E+01	 1.415E+03	 2.162E+02	-1.492E+02	 2.121E+02	-7.238E+00	 2.075E+02	 6.221E-01	 5.177E+00
    5.6500	 1.180E+01	 0.000E+00	 0.000E+00	 1.867E+00	-1.924E-01	 1.944E+01	-3.333E-01	 5.913E+00	-1.505E-01	 2.600E+00	 2.444E+00	 2.503E+00	 2.202E+02	 7.183E+01	-1.554E+00	 5.594E+01	 1.383E+03	 1.992E+02	-1.691E+02	 2.260E+02	-4.568E+00	 2.214E+02	-7.534E+00	 5.233E+00
    5.7000	 1.180E+01	 0.000E+00	 0.000E+00	 1.843E+00	-1.771E-01	 2.077E+01	 1.291E-01	 5.215E+00	-1.526E-01	 2.600E+00	 2.287E+00	 2.343E+00	 2.061E+02	 7.152E+01	 2.124E+00	 1.481E+01	 1.372E+03	 1.806E+02	-1.877E+02	 2.391E+02	-3.102E+00	 2.370E+02	-1.351E+01	 5.298E+00
    5.7500	 1.180E+01	 0.000E+00	 0.000E+00	 1.824E+00	-1.581E-01	 2.318E+01	-5.665E-01	 4.221E+00	-1.175E-01	 2.600E+00	 5.904E-01	 5.788E-01	 5.091E+01	 7.229E+01	 5.557E+00	-2.959E+01	 1.377E+03	 1.598E+02	-2.053E+02	 2.511E+02	-4.403E+00	 2.544E+02	-1.356E+01	 5.366E+00
    5.8000	 1.180E+01	 0.000E+00	 0.000E+00	 1.816E+00	-1.399E-01	 2.347E+01	-1.049E+00	 3.728E+00	-8.780E-02	 2.600E+00	-6.086E-01	-6.650E-01	-5.850E+01	 7.301E+01	 8.893E+00	-7.216E+01	 1.384E+03	 1.368E+02	-2.209E+02	 2.622E+02	-7.305E+00	 2.718E+02	-9.327E+00	 5.430E+00
    5.8500	 1.180E+01	 0.000E+00	 0.000E+00	 1.820E+00	-1.262E-01	 2.130E+01	-5.434E-01	 3.740E+00	-1.084E-01	 2.600E+00	-6.000E-02	-9.630E-02	-8.471E+00	 7.319E+01	 1.223E+01	-1.097E+02	 1.387E+03	 1.122E+02	-2.337E+02	 2.727E+02	-9.527E+00	 2.871E+02	-5.354E+00	 5.489E+00
    5.9000	 1.180E+01	 0.000E+00	 0.000E+00	 1.831E+00	-1.159E-01	 1.899E+01	 3.610E-01	 3.694E+00	-1.774E-01	 2.600E+00	 1.454E+00	 1.473E+00	 1.296E+02	 7.328E+01	 1.553E+01	-1.443E+02	 1.391E+03	 8.699E+01	-2.436E+02	 2.829E+02	-9.809E+00	 2.992E+02	-4.904E+00	 5.544E+00
    5.9500	 1.180E+01	 0.000E+00	 0.000E+00	 1.843E+00	-1.050E-01	 1.838E+01	 5.816E-01	 3.276E+00	-2.551E-01	 2.600E+00	 2.250E+00	 2.296E+00	 2.020E+02	 7.385E+01	 1.865E+01	-1.801E+02	 1.401E+03	 6.134E+01	-2.508E+02	 2.926E+02	-8.609E+00	 3.086E+02	-7.789E+00	 5.592E+00
    6.0000	 1.180E+01	 0.000E+00	 0.000E+00	 1.855E+00	-9.157E-02	 1.911E+01	-1.953E-01	 2.744E+00	-3.119E-01	 2.600E+00	 1.661E+00	 1.680E+00	 1.478E+02	 7.485E+01	 2.147E+01	-2.173E+02	 1.417E+03	 3.523E+01	-2.556E+02	 3.012E+02	-7.222E+00	 3.162E+02	-1.138E+01	 5.629E+00
    6.0500	 1.180E+01	-1.545E-03	 0.000E+00	 1.868E+00	-7.795E-02	 1.967E+01	-1.264E+00	 2.500E+00	-3.564E-01	 2.600E+00	 5.797E-01	 5.564E-01	 4.894E+01	 7.583E+01	 2.389E+01	-2.512E+02	 1.433E+03	 8.587E+00	-2.578E+02	 3.080E+02	-6.581E+00	 3.232E+02	-1.307E+01	 5.650E+00
    6.1000	 1.180E+01	-3.090E-03	 0.000E+00	 1.883E+00	-6.813E-02	 1.943E+01	-1.734E+00	 2.611E+00	-4.152E-01	 2.600E+00	 3.043E-01	 2.660E-01	 2.339E+01	 7.651E+01	 2.589E+01	-2.767E+02	 1.445E+03	-1.838E+01	-2.574E+02	 3.126E+02	-6.775E+00	 3.300E+02	-1.196E+01	 5.659E+00
    6.1500	 1.181E+01	-7.729E-03	 0.000E+00	 1.899E+00	-6.390E-02	 1.899E+01	-1.406E+00	 2.840E+00	-5.013E-01	 2.600E+00	 1.159E+00	 1.148E+00	 1.010E+02	 7.703E+01	 2.744E+01	-2.922E+02	 1.456E+03	-4.528E+01	-2.542E+02	 3.154E+02	-7.327E+00	 3.357E+02	-8.950E+00	 5.660E+00
    6.2000	 1.181E+01	-1.237E-02	 0.000E+00	 1.917E+00	-6.372E-02	 1.904E+01	-8.008E-01	 2.957E+00	-6.034E-01	 2.600E+00	 2.327E+00	 2.346E+00	 2.064E+02	 7.773E+01	 2.850E+01	-3.000E+02	 1.470E+03	-7.164E+01	-2.481E+02	 3.169E+02	-7.653E+00	 3.393E+02	-5.864E+00	 5.664E+00
    6.2500	 1.182E+01	-2.012E-02	 0.000E+00	 1.936E+00	-6.490E-02	 1.950E+01	-5.239E-01	 2.992E+00	-7.027E-01	 2.600E+00	 2.824E+00	 2.856E+00	 2.512E+02	 7.858E+01	 2.909E+01	-3.040E+02	 1.488E+03	-9.706E+01	-2.392E+02	 3.174E+02	-7.329E+00	 3.395E+02	-4.260E+00	 5.676E+00
    6.3000	 1.183E+01	-2.788E-02	 0.000E+00	 1.957E+00	-6.621E-02	 1.976E+01	-6.948E-01	 3.072E+00	-7.933E-01	 2.600E+00	 2.487E+00	 2.495E+00	 2.195E+02	 7.956E+01	 2.924E+01	-3.053E+02	 1.507E+03	-1.212E+02	-2.277E+02	 3.170E+02	-6.239E+00	 3.366E+02	-4.587E+00	 5.699E+00
    6.3500	 1.185E+01	-3.887E-02	 0.000E+00	 1.981E+00	-6.836E-02	 1.961E+01	-1.017E+00	 3.271E+00	-8.774E-01	 2.600E+00	 1.922E+00	 1.910E+00	 1.681E+02	 8.052E+01	 2.904E+01	-3.034E+02	 1.527E+03	-1.440E+02	-2.139E+02	 3.153E+02	-4.647E+00	 3.314E+02	-5.959E+00	 5.727E+00
    6.4000	 1.186E+01	-4.988E-02	 0.000E+00	 2.007E+00	-7.257E-02	 1.933E+01	-1.198E+00	 3.527E+00	-9.535E-01	 2.600E+00	 1.796E+00	 1.776E+00	 1.562E+02	 8.144E+01	 2.854E+01	-2.970E+02	 1.547E+03	-1.655E+02	-1.982E+02	 3.119E+02	-3.140E+00	 3.254E+02	-6.696E+00	 5.754E+00
    6.4500	 1.188E+01	-6.394E-02	 0.000E+00	 2.035E+00	-7.914E-02	 1.928E+01	-1.236E+00	 3.791E+00	-1.012E+00	 2.600E+00	 2.226E+00	 2.221E+00	 1.954E+02	 8.238E+01	 2.770E+01	-2.857E+02	 1.567E+03	-1.857E+02	-1.804E+02	 3.067E+02	-2.262E+00	 3.191E+02	-5.493E+00	 5.772E+00
    6.5000	 1.189E+01	-7.804E-02	 0.000E+00	 2.063E+00	-8.752E-02	 1.940E+01	-1.323E+00	 4.044E+00	-1.045E+00	 2.600E+00	 2.838E+00	 2.843E+00	 2.501E+02	 8.330E+01	 2.649E+01	-2.700E+02	 1.589E+03	-2.042E+02	-1.606E+02	 3.001E+02	-2.093E+00	 3.122E+02	-2.414E+00	 5.778E+00
    6.5500	 1.191E+01	-9.522E-02	 0.000E+00	 2.092E+00	-9.721E-02	 1.950E+01	-1.565E+00	 4.317E+00	-1.056E+00	 2.600E+00	 3.232E+00	 3.245E+00	 2.855E+02	 8.413E+01	 2.484E+01	-2.499E+02	 1.609E+03	-2.207E+02	-1.387E+02	 2.927E+02	-2.115E+00	 3.037E+02	 1.064E+00	 5.772E+00
    6.6000	 1.193E+01	-1.125E-01	 0.000E+00	 2.121E+00	-1.084E-01	 1.952E+01	-1.872E+00	 4.588E+00	-1.060E+00	 2.600E+00	 3.310E+00	 3.314E+00	 2.915E+02	 8.480E+01	 2.275E+01	-2.250E+02	 1.627E+03	-2.346E+02	-1.153E+02	 2.848E+02	-1.622E+00	 2.930E+02	 3.159E+00	 5.757E+00
    6.6500	 1.196E+01	-1.330E-01	 0.000E+00	 2.148E+00	-1.216E-01	 1.967E+01	-2.076E+00	 4.840E+00	-1.069E+00	 2.600E+00	 3.223E+00	 3.224E+00	 2.836E+02	 8.539E+01	 2.027E+01	-1.946E+02	 1.643E+03	-2.457E+02	-9.052E+01	 2.767E+02	-3.066E-01	 2.804E+02	 3.168E+00	 5.741E+00
    6.7000	 1.198E+01	-1.537E-01	 0.000E+00	 2.173E+00	-1.370E-01	 2.010E+01	-2.105E+00	 5.057E+00	-1.083E+00	 2.600E+00	 3.157E+00	 3.152E+00	 2.773E+02	 8.592E+01	 1.740E+01	-1.585E+02	 1.658E+03	-2.541E+02	-6.478E+01	 2.681E+02	 1.446E+00	 2.671E+02	 2.014E+00	 5.724E+00
    6.7500	 1.201E+01	-1.774E-01	 0.000E+00	 2.195E+00	-1.544E-01	 2.071E+01	-2.024E+00	 5.266E+00	-1.096E+00	 2.600E+00	 3.183E+00	 3.183E+00	 2.800E+02	 8.635E+01	 1.418E+01	-1.176E+02	 1.671E+03	-2.600E+02	-3.809E+01	 2.588E+02	 2.876E+00	 2.541E+02	 1.464E+00	 5.711E+00
    6.8000	 1.203E+01	-2.012E-01	 0.000E+00	 2.215E+00	-1.729E-01	 2.124E+01	-1.932E+00	 5.468E+00	-1.102E+00	 2.600E+00	 3.321E+00	 3.300E+00	 2.903E+02	 8.657E+01	 1.062E+01	-7.305E+01	 1.681E+03	-2.632E+02	-1.055E+01	 2.490E+02	 3.454E+00	 2.419E+02	 2.694E+00	 5.700E+00
    6.8500	 1.206E+01	-2.284E-01	 0.000E+00	 2.232E+00	-1.921E-01	 2.158E+01	-1.883E+00	 5.649E+00	-1.097E+00	 2.600E+00	 3.505E+00	 3.502E+00	 3.081E+02	 8.659E+01	 6.829E+00	-2.604E+01	 1.688E+03	-2.635E+02	 1.750E+01	 2.390E+02	 3.308E+00	 2.302E+02	 5.369E+00	 5.692E+00
    6.9000	 1.210E+01	-2.557E-01	 0.000E+00	 2.246E+00	-2.114E-01	 2.189E+01	-1.858E+00	 5.768E+00	-1.090E+00	 2.600E+00	 3.729E+00	 3.730E+00	 3.281E+02	 8.643E+01	 2.875E+00	 2.244E+01	 1.691E+03	-2.608E+02	 4.552E+01	 2.292E+02	 3.056E+00	 2.185E+02	 7.976E+00	 5.685E+00
    6.9500	 1.213E+01	-2.863E-01	 0.000E+00	 2.256E+00	-2.306E-01	 2.237E+01	-1.858E+00	 5.829E+00	-1.081E+00	 2.600E+00	 3.882E+00	 3.890E+00	 3.422E+02	 8.623E+01	-1.154E+00	 7.144E+01	 1.693E+03	-2.551E+02	 7.295E+01	 2.201E+02	 3.291E+00	 2.065E+02	 9.057E+00	 5.683E+00
    7.0000	 1.216E+01	-3.170E-01	 0.000E+00	 2.262E+00	-2.493E-01	 2.305E+01	-1.922E+00	 5.846E+00	-1.068E+00	 2.600E+00	 3.859E+00	 3.862E+00	 3.397E+02	 8.602E+01	-5.224E+00	 1.202E+02	 1.693E+03	-2.464E+02	 9.944E+01	 2.117E+02	 4.102E+00	 1.945E+02	 8.309E+00	 5.683E+00
    7.0500	 1.220E+01	-3.511E-01	 0.000E+00	 2.265E+00	-2.671E-01	 2.379E+01	-2.055E+00	 5.856E+00	-1.049E+00	 2.600E+00	 3.677E+00	 3.680E+00	 3.237E+02	 8.582E+01	-9.328E+00	 1.686E+02	 1.691E+03	-2.348E+02	 1.248E+02	 2.040E+02	 5.068E+00	 1.832E+02	 6.707E+00	 5.691E+00
    7.1000	 1.224E+01	-3.854E-01	 0.000E+00	 2.265E+00	-2.845E-01	 2.441E+01	-2.213E+00	 5.853E+00	-1.022E+00	 2.600E+00	 3.477E+00	 3.472E+00	 3.054E+02	 8.556E+01	-1.346E+01	 2.168E+02	 1.688E+03	-2.205E+02	 1.490E+02	 1.968E+02	 5.601E+00	 1.734E+02	 5.674E+00	 5.703E+00
    7.1500	 1.228E+01	-4.230E-01	 0.000E+00	 2.263E+00	-3.016E-01	 2.479E+01	-2.303E+00	 5.831E+00	-9.943E-01	 2.600E+00	 3.419E+00	 3.415E+00	 3.004E+02	 8.525E+01	-1.761E+01	 2.650E+02	 1.684E+03	-2.036E+02	 1.719E+02	 1.903E+02	 5.414E+00	 1.654E+02	 5.976E+00	 5.725E+00
    7.2000	 1.232E+01	-4.607E-01	 0.000E+00	 2.260E+00	-3.187E-01	 2.503E+01	-2.263E+00	 5.766E+00	-9.726E-01	 2.600E+00	 3.546E+00	 3.542E+00	 3.116E+02	 8.491E+01	-2.174E+01	 3.133E+02	 1.679E+03	-1.840E+02	 1.930E+02	 1.846E+02	 4.679E+00	 1.591E+02	 7.235E+00	 5.754E+00
    7.2500	 1.236E+01	-5.020E-01	 0.000E+00	 2.255E+00	-3.356E-01	 2.524E+01	-2.096E+00	 5.680E+00	-9.663E-01	 2.600E+00	 3.766E+00	 3.791E+00	 3.334E+02	 8.464E+01	-2.575E+01	 3.608E+02	 1.673E+03	-1.622E+02	 2.119E+02	 1.800E+02	 3.852E+00	 1.540E+02	 8.320E+00	 5.797E+00
    7.3000	 1.241E+01	-5.436E-01	 0.000E+00	 2.248E+00	-3.516E-01	 2.546E+01	-1.893E+00	 5.596E+00	-9.818E-01	 2.600E+00	 3.926E+00	 3.925E+00	 3.453E+02	 8.449E+01	-2.956E+01	 4.057E+02	 1.669E+03	-1.384E+02	 2.282E+02	 1.769E+02	 3.294E+00	 1.499E+02	 8.234E+00	 5.849E+00
    7.3500	 1.245E+01	-5.886E-01	 0.000E+00	 2.241E+00	-3.662E-01	 2.563E+01	-1.792E+00	 5.544E+00	-1.000E+00	 2.600E+00	 3.767E+00	 3.772E+00	 3.318E+02	 8.447E+01	-3.313E+01	 4.471E+02	 1.665E+03	-1.130E+02	 2.418E+02	 1.751E+02	 3.125E+00	 1.468E+02	 6.741E+00	 5.917E+00
    7.4000	 1.250E+01	-6.340E-01	 0.000E+00	 2.234E+00	-3.789E-01	 2.569E+01	-1.777E+00	 5.516E+00	-1.019E+00	 2.600E+00	 3.466E+00	 3.463E+00	 3.046E+02	 8.455E+01	-3.640E+01	 4.841E+02	 1.663E+03	-8.628E+01	 2.524E+02	 1.746E+02	 3.083E+00	 1.452E+02	 4.552E+00	 5.993E+00
    7.4500	 1.255E+01	-6.827E-01	 0.000E+00	 2.227E+00	-3.922E-01	 2.511E+01	-1.761E+00	 5.328E+00	-1.018E+00	 2.665E+00	 3.190E+00	 3.675E+00	 3.233E+02	 8.442E+01	-3.924E+01	 5.159E+02	 1.660E+03	-5.854E+01	 2.600E+02	 1.752E+02	 2.898E+00	 1.456E+02	 2.673E+00	 6.082E+00
    7.5000	 1.260E+01	-7.318E-01	 0.000E+00	 2.220E+00	-4.039E-01	 2.448E+01	-1.780E+00	 5.254E+00	-1.041E+00	 2.750E+00	 3.293E+00	 3.716E+00	 3.269E+02	 8.466E+01	-4.166E+01	 5.416E+02	 1.659E+03	-2.993E+01	 2.647E+02	 1.768E+02	 2.042E+00	 1.481E+02	 2.023E+00	 6.178E+00
    7.5500	 1.265E+01	-7.846E-01	 0.000E+00	 2.211E+00	-4.132E-01	 2.414E+01	-1.979E+00	 5.168E+00	-1.050E+00	 2.839E+00	 3.290E+00	 3.721E+00	 3.273E+02	 8.500E+01	-4.371E+01	 5.619E+02	 1.659E+03	-7.809E-01	 2.661E+02	 1.796E+02	 7.009E-01	 1.526E+02	 2.280E+00	 6.290E+00
    7.6000	 1.270E+01	-8.378E-01	 0.000E+00	 2.201E+00	-4.206E-01	 2.394E+01	-2.163E+00	 5.130E+00	-1.054E+00	 2.930E+00	 3.299E+00	 3.748E+00	 3.297E+02	 8.536E+01	-4.533E+01	 5.773E+02	 1.658E+03	 2.835E+01	 2.642E+02	 1.835E+02	-6.400E-01	 1.583E+02	 2.389E+00	 6.414E+00
    7.6500	 1.275E+01	-8.945E-01	 0.000E+00	 2.190E+00	-4.266E-01	 2.368E+01	-2.203E+00	 5.176E+00	-1.061E+00	 3.024E+00	 3.388E+00	 3.862E+00	 3.397E+02	 8.569E+01	-4.650E+01	 5.882E+02	 1.656E+03	 5.694E+01	 2.591E+02	 1.887E+02	-1.551E+00	 1.651E+02	 1.427E+00	 6.560E+00
    7.7000	 1.281E+01	-9.516E-01	 0.000E+00	 2.178E+00	-4.313E-01	 2.340E+01	-2.150E+00	 5.263E+00	-1.071E+00	 3.122E+00	 3.465E+00	 3.960E+00	 3.484E+02	 8.600E+01	-4.723E+01	 5.946E+02	 1.654E+03	 8.462E+01	 2.508E+02	 1.950E+02	-2.023E+00	 1.729E+02	-6.220E-01	 6.718E+00
    7.7500	 1.287E+01	-1.012E+00	 0.000E+00	 2.166E+00	-4.343E-01	 2.321E+01	-2.126E+00	 5.344E+00	-1.079E+00	 3.224E+00	 3.426E+00	 3.941E+00	 3.466E+02	 8.635E+01	-4.753E+01	 5.958E+02	 1.653E+03	 1.112E+02	 2.396E+02	 2.021E+02	-2.405E+00	 1.818E+02	-2.940E+00	 6.896E+00
    7.8000	 1.292E+01	-1.074E+00	 0.000E+00	 2.155E+00	-4.353E-01	 2.308E+01	-2.167E+00	 5.384E+00	-1.083E+00	 3.328E+00	 3.310E+00	 3.821E+00	 3.361E+02	 8.673E+01	-4.740E+01	 5.917E+02	 1.651E+03	 1.365E+02	 2.256E+02	 2.099E+02	-3.070E+00	 1.920E+02	-4.591E+00	 7.083E+00
    7.8500	 1.298E+01	-1.139E+00	 0.000E+00	 2.143E+00	-4.344E-01	 2.292E+01	-2.202E+00	 5.408E+00	-1.083E+00	 3.431E+00	 3.270E+00	 3.782E+00	 3.327E+02	 8.712E+01	-4.683E+01	 5.826E+02	 1.651E+03	 1.601E+02	 2.089E+02	 2.181E+02	-4.096E+00	 2.033E+02	-5.246E+00	 7.286E+00
    7.9000	 1.304E+01	-1.204E+00	 0.000E+00	 2.133E+00	-4.319E-01	 2.266E+01	-2.165E+00	 5.425E+00	-1.084E+00	 3.536E+00	 3.406E+00	 3.935E+00	 3.461E+02	 8.748E+01	-4.579E+01	 5.684E+02	 1.650E+03	 1.818E+02	 1.896E+02	 2.267E+02	-5.260E+00	 2.151E+02	-5.317E+00	 7.495E+00
    7.9500	 1.310E+01	-1.274E+00	 0.000E+00	 2.124E+00	-4.279E-01	 2.236E+01	-2.096E+00	 5.437E+00	-1.087E+00	 3.646E+00	 3.647E+00	 4.219E+00	 3.711E+02	 8.781E+01	-4.426E+01	 5.488E+02	 1.649E+03	 2.011E+02	 1.680E+02	 2.356E+02	-6.238E+00	 2.271E+02	-5.544E+00	 7.719E+00
    8.0000	 1.316E+01	-1.343E+00	 0.000E+00	 2.115E+00	-4.220E-01	 2.210E+01	-2.102E+00	 5.416E+00	-1.093E+00	 3.764E+00	 3.822E+00	 4.432E+00	 3.899E+02	 8.811E+01	-4.224E+01	 5.231E+02	 1.649E+03	 2.178E+02	 1.444E+02	 2.448E+02	-6.856E+00	 2.389E+02	-6.392E+00	 7.948E+00
    8.0500	 1.323E+01	-1.417E+00	 0.000E+00	 2.106E+00	-4.139E-01	 2.195E+01	-2.247E+00	 5.366E+00	-1.103E+00	 3.887E+00	 3.837E+00	 4.470E+00	 3.932E+02	 8.838E+01	-3.978E+01	 4.916E+02	 1.648E+03	 2.317E+02	 1.192E+02	 2.541E+02	-7.160E+00	 2.503E+02	-7.770E+00	 8.191E+00
    8.1000	 1.329E+01	-1.491E+00	 0.000E+00	 2.097E+00	-4.038E-01	 2.188E+01	-2.479E+00	 5.288E+00	-1.117E+00	 4.013E+00	 3.771E+00	 4.404E+00	 3.874E+02	 8.857E+01	-3.693E+01	 4.552E+02	 1.646E+03	 2.428E+02	 9.267E+01	 2.631E+02	-7.347E+00	 2.614E+02	-9.145E+00	 8.439E+00
    8.1500	 1.336E+01	-1.569E+00	 0.000E+00	 2.087E+00	-3.923E-01	 2.189E+01	-2.682E+00	 5.205E+00	-1.136E+00	 4.139E+00	 3.794E+00	 4.436E+00	 3.902E+02	 8.864E+01	-3.374E+01	 4.149E+02	 1.643E+03	 2.509E+02	 6.508E+01	 2.718E+02	-7.600E+00	 2.723E+02	-9.958E+00	 8.701E+00
    8.2000	 1.342E+01	-1.648E+00	 0.000E+00	 2.077E+00	-3.799E-01	 2.196E+01	-2.780E+00	 5.110E+00	-1.164E+00	 4.269E+00	 4.003E+00	 4.671E+00	 4.109E+02	 8.860E+01	-3.023E+01	 3.719E+02	 1.639E+03	 2.561E+02	 3.673E+01	 2.799E+02	-7.985E+00	 2.827E+02	-9.982E+00	 8.965E+00
    8.2500	 1.349E+01	-1.731E+00	 0.000E+00	 2.067E+00	-3.669E-01	 2.211E+01	-2.803E+00	 4.999E+00	-1.202E+00	 4.406E+00	 4.334E+00	 5.059E+00	 4.450E+02	 8.849E+01	-2.646E+01	 3.262E+02	 1.634E+03	 2.582E+02	 7.980E+00	 2.873E+02	-8.406E+00	 2.925E+02	-9.454E+00	 9.239E+00
    8.3000	 1.355E+01	-1.814E+00	 0.000E+00	 2.056E+00	-3.531E-01	 2.231E+01	-2.836E+00	 4.860E+00	-1.253E+00	 4.551E+00	 4.632E+00	 5.415E+00	 4.764E+02	 8.833E+01	-2.247E+01	 2.779E+02	 1.629E+03	 2.571E+02	-2.079E+01	 2.941E+02	-8.688E+00	 3.013E+02	-8.876E+00	 9.512E+00
    8.3500	 1.362E+01	-1.901E+00	 0.000E+00	 2.044E+00	-3.385E-01	 2.253E+01	-2.941E+00	 4.706E+00	-1.316E+00	 4.705E+00	 4.781E+00	 5.612E+00	 4.936E+02	 8.814E+01	-1.829E+01	 2.270E+02	 1.624E+03	 2.529E+02	-4.919E+01	 3.002E+02	-8.678E+00	 3.088E+02	-8.670E+00	 9.792E+00
    8.4000	 1.369E+01	-1.989E+00	 0.000E+00	 2.033E+00	-3.231E-01	 2.274E+01	-3.094E+00	 4.552E+00	-1.392E+00	 4.864E+00	 4.837E+00	 5.696E+00	 5.010E+02	 8.791E+01	-1.397E+01	 1.741E+02	 1.618E+03	 2.456E+02	-7.687E+01	 3.055E+02	-8.347E+00	 3.151E+02	-8.896E+00	 1.007E+01
    8.4500	 1.376E+01	-2.081E+00	 0.000E+00	 2.021E+00	-3.073E-01	 2.296E+01	-3.234E+00	 4.419E+00	-1.480E+00	 5.027E+00	 4.924E+00	 5.815E+00	 5.115E+02	 8.764E+01	-9.545E+00	 1.201E+02	 1.612E+03	 2.354E+02	-1.036E+02	 3.098E+02	-7.824E+00	 3.201E+02	-9.205E+00	 1.035E+01
    8.5000	 1.383E+01	-2.174E+00	 0.000E+00	 2.011E+00	-2.915E-01	 2.315E+01	-3.335E+00	 4.298E+00	-1.576E+00	 5.195E+00	 5.116E+00	 6.044E+00	 5.316E+02	 8.733E+01	-5.056E+00	 6.559E+01	 1.605E+03	 2.223E+02	-1.291E+02	 3.130E+02	-7.320E+00	 3.241E+02	-9.089E+00	 1.063E+01
    8.5500	 1.390E+01	-2.271E+00	 0.000E+00	 2.000E+00	-2.761E-01	 2.332E+01	-3.420E+00	 4.193E+00	-1.673E+00	 5.369E+00	 5.391E+00	 6.370E+00	 5.603E+02	 8.703E+01	-5.578E-01	 1.113E+01	 1.600E+03	 2.064E+02	-1.531E+02	 3.151E+02	-6.969E+00	 3.270E+02	-8.278E+00	 1.092E+01
    8.6000	 1.397E+01	-2.368E+00	 0.000E+00	 1.991E+00	-2.611E-01	 2.339E+01	-3.529E+00	 4.102E+00	-1.769E+00	 5.551E+00	 5.676E+00	 6.706E+00	 5.899E+02	 8.674E+01	 3.899E+00	-4.291E+01	 1.595E+03	 1.880E+02	-1.753E+02	 3.162E+02	-6.728E+00	 3.286E+02	-6.955E+00	 1.120E+01
    8.6500	 1.404E+01	-2.470E+00	 0.000E+00	 1.983E+00	-2.467E-01	 2.345E+01	-3.672E+00	 4.050E+00	-1.868E+00	 5.742E+00	 5.942E+00	 7.016E+00	 6.171E+02	 8.650E+01	 8.263E+00	-9.601E+01	 1.591E+03	 1.671E+02	-1.954E+02	 3.162E+02	-6.412E+00	 3.288E+02	-5.628E+00	 1.149E+01
    8.7000	 1.411E+01	-2.572E+00	 0.000E+00	 1.976E+00	-2.332E-01	 2.333E+01	-3.855E+00	 3.986E+00	-1.959E+00	 5.940E+00	 6.087E+00	 7.211E+00	 6.344E+02	 8.628E+01	 1.246E+01	-1.473E+02	 1.588E+03	 1.442E+02	-2.130E+02	 3.152E+02	-5.867E+00	 3.273E+02	-4.721E+00	 1.177E+01
    8.7500	 1.418E+01	-2.678E+00	 0.000E+00	 1.970E+00	-2.210E-01	 2.309E+01	-4.031E+00	 3.970E+00	-2.049E+00	 6.144E+00	 6.184E+00	 7.370E+00	 6.483E+02	 8.607E+01	 1.642E+01	-1.957E+02	 1.586E+03	 1.194E+02	-2.279E+02	 3.132E+02	-5.064E+00	 3.243E+02	-4.315E+00	 1.206E+01
    8.8000	 1.425E+01	-2.786E+00	 0.000E+00	 1.965E+00	-2.105E-01	 2.363E+01	-4.166E+00	 3.932E+00	-2.139E+00	 6.352E+00	 6.351E+00	 7.579E+00	 6.667E+02	 8.596E+01	 2.010E+01	-2.404E+02	 1.585E+03	 9.315E+01	-2.400E+02	 3.102E+02	-4.145E+00	 3.202E+02	-4.079E+00	 1.235E+01
    8.8500	 1.432E+01	-2.897E+00	 0.000E+00	 1.961E+00	-2.018E-01	 2.332E+01	-4.229E+00	 4.050E+00	-2.214E+00	 6.567E+00	 6.479E+00	 7.747E+00	 6.815E+02	 8.572E+01	 2.343E+01	-2.808E+02	 1.582E+03	 6.557E+01	-2.492E+02	 3.061E+02	-3.361E+00	 3.150E+02	-3.514E+00	 1.264E+01
    8.9000	 1.439E+01	-3.009E+00	 0.000E+00	 1.957E+00	-1.953E-01	 2.275E+01	-4.276E+00	 4.236E+00	-2.277E+00	 6.787E+00	 6.628E+00	 7.908E+00	 6.956E+02	 8.553E+01	 2.637E+01	-3.165E+02	 1.580E+03	 3.697E+01	-2.551E+02	 3.009E+02	-2.806E+00	 3.089E+02	-2.436E+00	 1.293E+01
    8.9500	 1.446E+01	-3.125E+00	 0.000E+00	 1.954E+00	-1.907E-01	 2.259E+01	-4.331E+00	 4.375E+00	-2.325E+00	 7.013E+00	 6.792E+00	 8.124E+00	 7.146E+02	 8.530E+01	 2.894E+01	-3.474E+02	 1.578E+03	 7.690E+00	-2.579E+02	 2.948E+02	-2.377E+00	 3.018E+02	-1.090E+00	 1.323E+01
    9.0000	 1.453E+01	-3.243E+00	 0.000E+00	 1.949E+00	-1.880E-01	 2.263E+01	-4.389E+00	 4.473E+00	-2.363E+00	 7.245E+00	 6.969E+00	 8.364E+00	 7.358E+02	 8.513E+01	 3.108E+01	-3.731E+02	 1.577E+03	-2.189E+01	-2.573E+02	 2.880E+02	-1.930E+00	 2.936E+02	 1.138E-01	 1.353E+01
    9.0500	 1.461E+01	-3.363E+00	 0.000E+00	 1.944E+00	-1.873E-01	 2.251E+01	-4.464E+00	 4.618E+00	-2.384E+00	 7.484E+00	 7.054E+00	 8.486E+00	 7.465E+02	 8.489E+01	 3.276E+01	-3.935E+02	 1.575E+03	-5.128E+01	-2.532E+02	 2.806E+02	-1.386E+00	 2.843E+02	 8.962E-01	 1.384E+01
    9.1000	 1.468E+01	-3.485E+00	 0.000E+00	 1.937E+00	-1.886E-01	 2.214E+01	-4.549E+00	 4.816E+00	-2.386E+00	 7.727E+00	 7.038E+00	 8.485E+00	 7.464E+02	 8.451E+01	 3.396E+01	-4.081E+02	 1.570E+03	-8.010E+01	-2.458E+02	 2.727E+02	-7.559E-01	 2.740E+02	 1.243E+00	 1.415E+01
    9.1500	 1.475E+01	-3.611E+00	 0.000E+00	 1.928E+00	-1.917E-01	 2.180E+01	-4.616E+00	 5.020E+00	-2.372E+00	 7.972E+00	 6.993E+00	 8.459E+00	 7.441E+02	 8.399E+01	 3.464E+01	-4.164E+02	 1.563E+03	-1.080E+02	-2.351E+02	 2.642E+02	-1.388E-01	 2.632E+02	 1.403E+00	 1.447E+01
    9.2000	 1.482E+01	-3.738E+00	 0.000E+00	 1.916E+00	-1.969E-01	 2.169E+01	-4.643E+00	 5.177E+00	-2.342E+00	 8.220E+00	 6.979E+00	 8.471E+00	 7.451E+02	 8.339E+01	 3.480E+01	-4.181E+02	 1.554E+03	-1.347E+02	-2.212E+02	 2.553E+02	 3.209E-01	 2.522E+02	 1.709E+00	 1.479E+01
    9.2500	 1.489E+01	-3.869E+00	 0.000E+00	 1.900E+00	-2.039E-01	 2.174E+01	-4.625E+00	 5.305E+00	-2.296E+00	 8.471E+00	 6.997E+00	 8.513E+00	 7.489E+02	 8.269E+01	 3.442E+01	-4.130E+02	 1.543E+03	-1.598E+02	-2.042E+02	 2.460E+02	 5.420E-01	 2.412E+02	 2.318E+00	 1.513E+01
    9.3000	 1.496E+01	-4.001E+00	 0.000E+00	 1.881E+00	-2.126E-01	 2.175E+01	-4.571E+00	 5.443E+00	-2.238E+00	 8.726E+00	 6.998E+00	 8.535E+00	 7.508E+02	 8.185E+01	 3.349E+01	-4.013E+02	 1.529E+03	-1.830E+02	-1.843E+02	 2.365E+02	 5.641E-01	 2.302E+02	 3.079E+00	 1.547E+01
    9.3500	 1.503E+01	-4.137E+00	 0.000E+00	 1.857E+00	-2.229E-01	 2.165E+01	-4.501E+00	 5.563E+00	-2.164E+00	 8.984E+00	 6.899E+00	 8.475E+00	 7.455E+02	 8.088E+01	 3.201E+01	-3.831E+02	 1.512E+03	-2.037E+02	-1.616E+02	 2.272E+02	 5.076E-01	 2.190E+02	 3.654E+00	 1.582E+01
    9.4000	 1.509E+01	-4.274E+00	 0.000E+00	 1.829E+00	-2.344E-01	 2.156E+01	-4.398E+00	 5.626E+00	-2.085E+00	 9.244E+00	 6.745E+00	 8.345E+00	 7.341E+02	 7.982E+01	 3.000E+01	-3.586E+02	 1.492E+03	-2.216E+02	-1.366E+02	 2.181E+02	 4.895E-01	 2.079E+02	 3.757E+00	 1.618E+01
    9.4500	 1.516E+01	-4.415E+00	 0.000E+00	 1.797E+00	-2.470E-01	 2.158E+01	-4.256E+00	 5.629E+00	-1.999E+00	 9.504E+00	 6.557E+00	 8.156E+00	 7.174E+02	 7.858E+01	 2.752E+01	-3.285E+02	 1.469E+03	-2.365E+02	-1.095E+02	 2.092E+02	 5.122E-01	 1.970E+02	 3.380E+00	 1.656E+01
    9.5000	 1.523E+01	-4.556E+00	 0.000E+00	 1.760E+00	-2.604E-01	 2.165E+01	-4.075E+00	 5.593E+00	-1.909E+00	 9.764E+00	 6.374E+00	 7.957E+00	 7.000E+02	 7.726E+01	 2.460E+01	-2.931E+02	 1.444E+03	-2.482E+02	-8.074E+01	 2.007E+02	 4.745E-01	 1.868E+02	 2.772E+00	 1.694E+01
    9.5500	 1.529E+01	-4.702E+00	 0.000E+00	 1.719E+00	-2.743E-01	 2.150E+01	-3.858E+00	 5.510E+00	-1.822E+00	 1.002E+01	 6.263E+00	 7.773E+00	 6.837E+02	 7.634E+01	 2.120E+01	-2.527E+02	 1.420E+03	-2.564E+02	-5.055E+01	 1.923E+02	 2.269E-01	 1.777E+02	 2.250E+00	 1.733E+01
    9.6000	 1.536E+01	-4.849E+00	 0.000E+00	 1.675E+00	-2.885E-01	 2.158E+01	-3.712E+00	 5.397E+00	-1.712E+00	 1.028E+01	 5.908E+00	 7.511E+00	 6.607E+02	 7.456E+01	 1.753E+01	-2.088E+02	 1.390E+03	-2.610E+02	-1.960E+01	 1.846E+02	-2.631E-01	 1.692E+02	 1.958E+00	 1.773E+01
    9.6500	 1.542E+01	-4.998E+00	 0.000E+00	 1.628E+00	-3.029E-01	 2.150E+01	-3.490E+00	 5.256E+00	-1.618E+00	 1.054E+01	 5.740E+00	 7.309E+00	 6.429E+02	 7.304E+01	 1.354E+01	-1.616E+02	 1.359E+03	-2.620E+02	 1.187E+01	 1.775E+02	-9.050E-01	 1.615E+02	 1.685E+00	 1.814E+01
    9.7000	 1.549E+01	-5.150E+00	 0.000E+00	 1.578E+00	-3.174E-01	 2.128E+01	-3.258E+00	 5.064E+00	-1.521E+00	 1.080E+01	 5.515E+00	 7.087E+00	 6.234E+02	 7.161E+01	 9.288E+00	-1.115E+02	 1.328E+03	-2.591E+02	 4.333E+01	 1.709E+02	-1.588E+00	 1.546E+02	 1.173E+00	 1.856E+01
    9.7500	 1.555E+01	-5.304E+00	 0.000E+00	 1.527E+00	-3.317E-01	 2.101E+01	-3.024E+00	 4.862E+00	-1.427E+00	 1.106E+01	 5.232E+00	 6.807E+00	 5.987E+02	 7.026E+01	 4.860E+00	-5.953E+01	 1.297E+03	-2.523E+02	 7.423E+01	 1.650E+02	-2.224E+00	 1.485E+02	 2.447E-01	 1.898E+01
    9.8000	 1.561E+01	-5.460E+00	 0.000E+00	 1.474E+00	-3.456E-01	 2.070E+01	-2.791E+00	 4.649E+00	-1.336E+00	 1.131E+01	 4.902E+00	 6.441E+00	 5.666E+02	 6.910E+01	 3.043E-01	-6.323E+00	 1.267E+03	-2.417E+02	 1.041E+02	 1.597E+02	-2.831E+00	 1.431E+02	-1.041E+00	 1.941E+01
    9.8500	 1.567E+01	-5.619E+00	 0.000E+00	 1.421E+00	-3.591E-01	 2.032E+01	-2.522E+00	 4.415E+00	-1.243E+00	 1.156E+01	 4.551E+00	 6.088E+00	 5.356E+02	 6.806E+01	-4.309E+00	 4.749E+01	 1.238E+03	-2.273E+02	 1.325E+02	 1.550E+02	-3.458E+00	 1.385E+02	-2.453E+00	 1.985E+01
    9.9000	 1.573E+01	-5.780E+00	 0.000E+00	 1.367E+00	-3.720E-01	 1.980E+01	-2.205E+00	 4.161E+00	-1.153E+00	 1.181E+01	 4.263E+00	 5.783E+00	 5.087E+02	 6.712E+01	-8.918E+00	 1.010E+02	 1.209E+03	-2.095E+02	 1.590E+02	 1.509E+02	-4.189E+00	 1.347E+02	-3.711E+00	 2.029E+01
    9.9500	 1.579E+01	-5.943E+00	 0.000E+00	 1.314E+00	-3.839E-01	 1.916E+01	-1.949E+00	 3.899E+00	-1.063E+00	 1.206E+01	 3.899E+00	 5.403E+00	 4.753E+02	 6.629E+01	-1.346E+01	 1.533E+02	 1.182E+03	-1.883E+02	 1.832E+02	 1.474E+02	-5.097E+00	 1.316E+02	-4.661E+00	 2.074E+01
   10.0000	 1.585E+01	-6.108E+00	 0.000E+00	 1.261E+00	-3.947E-01	 1.844E+01	-1.704E+00	 3.649E+00	-9.749E-01	 1.230E+01	 3.485E+00	 4.972E+00	 4.374E+02	 6.556E+01	-1.787E+01	 2.037E+02	 1.157E+03	-1.642E+02	 2.046E+02	 1.444E+02	-6.095E+00	 1.292E+02	-5.438E+00	 2.119E+01
   10.0500	 1.590E+01	-6.276E+00	 0.000E+00	 1.210E+00	-4.035E-01	 1.811E+01	-1.405E+00	 3.604E+00	-9.079E-01	 1.249E+01	 3.323E+00	 4.392E+00	 3.863E+02	 6.516E+01	-2.206E+01	 2.515E+02	 1.133E+03	-1.376E+02	 2.229E+02	 1.420E+02	-7.078E+00	 1.275E+02	-6.275E+00	 2.166E+01
   10.1000	 1.596E+01	-6.445E+00	 0.000E+00	 1.161E+00	-4.115E-01	 1.757E+01	-1.124E+00	 3.477E+00	-8.175E-01	 1.267E+01	 2.987E+00	 4.059E+00	 3.571E+02	 6.472E+01	-2.597E+01	 2.965E+02	 1.111E+03	-1.089E+02	 2.378E+02	 1.401E+02	-7.840E+00	 1.263E+02	-7.405E+00	 2.214E+01
   10.1500	 1.601E+01	-6.617E+00	 0.000E+00	 1.116E+00	-4.186E-01	 1.689E+01	-7.889E-01	 3.368E+00	-7.298E-01	 1.284E+01	 2.740E+00	 3.800E+00	 3.343E+02	 6.442E+01	-2.949E+01	 3.372E+02	 1.091E+03	-7.855E+01	 2.491E+02	 1.388E+02	-8.482E+00	 1.257E+02	-8.649E+00	 2.263E+01
   10.2000	 1.606E+01	-6.790E+00	 0.000E+00	 1.075E+00	-4.244E-01	 1.587E+01	-5.525E-01	 3.285E+00	-6.493E-01	 1.301E+01	 2.495E+00	 3.520E+00	 3.096E+02	 6.416E+01	-3.258E+01	 3.723E+02	 1.073E+03	-4.696E+01	 2.566E+02	 1.380E+02	-9.155E+00	 1.256E+02	-9.679E+00	 2.314E+01