
Predictions were generated on 06-Nov-2020 at 13:56:50 using OpenFAST, compiled as a 64-bit application using double precision at commit v2.4.0-50-g416ff436-dirty
 linked with  NWTC Subroutine Library; ElastoDyn; InflowWind; AeroDyn; ServoDyn

Description from the FAST input file: FAST Certification Test #12: WindPACT 1.5 MW Baseline with many DOFs with VS and VP and ECD wind.

Time	Wind1VelX	Wind1VelY	Wind1VelZ	OoPDefl3	IPDefl3	TipALxb3	TipALyb3	Spn4ALxb1	Spn4ALyb1	BldPitch3	RotAccel	LSSGagA	HSShftA	RootFxb3	RootFyb3	RootMEdg3	RootMFlp3	LSShftFya	LSShftFza	YawBrFxp	YawBrFyp	TwrBsFxt	TwrBsFyt	RtSkew
(s)	(m/s)	(m/s)	(m/s)	(m)	(m)	(m/s^2)	(m/s^2)	(m/s^2)	(m/s^2)	(deg)	(deg/s^2)	(deg/s^2)	(deg/s^2)	(kN)	(kN)	(kN-m)	(kN-m)	(kN)	(kN)	(kN)	(kN)	(kN)	(kN)	(deg)
    5.0000	 1.180E+01	 0.000E+00	 0.000E+00	 1.334E+00	-4.111E-01	 1.311E+01	 4.517E-01	 3.131E+00	 1.800E-01	 7.500E+00	 4.860E-02	 5.045E-02	 4.438E+00	 6.065E+01	-4.144E+01	 4.917E+02	 1.100E+03	 2.111E+02	 1.618E+02	 1.079E+02	 5.047E+00	 8.953E+01	 9.330E+00	 5.108E+00
    5.0500	 1.180E+01	 0.000E+00	 0.000E+00	 1.374E+00	-3.036E-01	 5.229E+01	-3.864E+00	 5.997E+00	 1.690E+00	 2.600E+00	-1.313E+01	-4.880E+00	-4.293E+02	 5.780E+01	-4.547E+01	 5.385E+02	 1.073E+03	 2.265E+02	 1.387E+02	 1.100E+02	 3.577E+00	 9.227E+01	 7.752E+00	 5.260E+00
    5.1000	 1.180E+01	 0.000E+00	 0.000E+00	 1.466E+00	-3.341E-01	 2.132E+01	 6.662E+00	 9.974E+00	 3.590E-01	 2.600E+00	 6.297E+00	 1.074E+00	 9.450E+01	 5.460E+01	-4.061E+01	 5.362E+02	 1.059E+03	 2.386E+02	 1.153E+02	 1.127E+02	 6.325E+00	 9.522E+01	 1.522E+00	 5.472E+00
    5.1500	 1.180E+01	 0.000E+00	 0.000E+00	 1.580E+00	-3.474E-01	 9.374E+00	 8.273E+00	 8.343E+00	 2.919E-01	 2.600E+00	 8.236E+00	 7.807E+00	 6.867E+02	 5.956E+01	-3.883E+01	 5.221E+02	 1.157E+03	 2.503E+02	 9.098E+01	 1.177E+02	 7.357E+00	 1.005E+02	-2.150E-01	 5.579E+00
    5.2000	 1.180E+01	 0.000E+00	 0.000E+00	 1.684E+00	-3.306E-01	 1.832E+01	 2.614E+00	 2.743E+00	 3.377E-01	 2.600E+00	 1.499E+00	 2.430E+00	 2.138E+02	 7.075E+01	-3.689E+01	 4.698E+02	 1.335E+03	 2.609E+02	 6.364E+01	 1.262E+02	 2.274E+00	 1.054E+02	 5.929E+00	 5.584E+00
    5.2500	 1.180E+01	 0.000E+00	 0.000E+00	 1.792E+00	-3.051E-01	 2.099E+01	-2.575E+00	-5.464E-01	 3.002E-01	 2.600E+00	-5.217E+00	-5.390E+00	-4.742E+02	 7.889E+01	-3.404E+01	 4.082E+02	 1.474E+03	 2.667E+02	 3.477E+01	 1.376E+02	-3.121E+00	 1.070E+02	 1.100E+01	 5.514E+00
    5.3000	 1.180E+01	 0.000E+00	 0.000E+00	 1.907E+00	-2.948E-01	 7.094E+00	-2.273E+00	 1.191E+00	 1.495E-01	 2.600E+00	-5.571E+00	-5.900E+00	-5.190E+02	 7.925E+01	-3.037E+01	 3.650E+02	 1.509E+03	 2.671E+02	 7.144E+00	 1.490E+02	-3.250E+00	 1.084E+02	 7.155E+00	 5.391E+00
    5.3500	 1.180E+01	 0.000E+00	 0.000E+00	 1.994E+00	-2.987E-01	-6.558E+00	 1.465E+00	 4.534E+00	-1.196E-01	 2.600E+00	-1.637E-01	-1.576E-01	-1.386E+01	 7.591E+01	-2.616E+01	 3.370E+02	 1.484E+03	 2.646E+02	-1.883E+01	 1.585E+02	 7.638E-01	 1.166E+02	-3.102E+00	 5.260E+00
    5.4000	 1.180E+01	 0.000E+00	 0.000E+00	 2.020E+00	-2.977E-01	-3.029E+00	 3.302E+00	 5.399E+00	-3.648E-01	 2.600E+00	 4.622E+00	 4.801E+00	 4.223E+02	 7.484E+01	-2.189E+01	 3.032E+02	 1.472E+03	 2.611E+02	-4.511E+01	 1.664E+02	 3.409E+00	 1.347E+02	-1.029E+01	 5.163E+00
    5.4500	 1.180E+01	 0.000E+00	 0.000E+00	 1.992E+00	-2.789E-01	 1.272E+01	 1.209E+00	 4.047E+00	-4.301E-01	 2.600E+00	 4.455E+00	 4.567E+00	 4.018E+02	 7.664E+01	-1.780E+01	 2.515E+02	 1.485E+03	 2.555E+02	-7.294E+01	 1.746E+02	 1.062E+00	 1.580E+02	-8.326E+00	 5.116E+00
    5.5000	 1.180E+01	 0.000E+00	 0.000E+00	 1.948E+00	-2.484E-01	 2.367E+01	-2.154E+00	 3.504E+00	-3.144E-01	 2.600E+00	 1.151E+00	 1.111E+00	 9.770E+01	 7.750E+01	-1.376E+01	 1.902E+02	 1.483E+03	 2.458E+02	-1.009E+02	 1.850E+02	-4.499E+00	 1.789E+02	-5.381E-01	 5.109E+00
    5.5500	 1.180E+01	 0.000E+00	 0.000E+00	 1.913E+00	-2.209E-01	 2.267E+01	-3.431E+00	 4.963E+00	-1.679E-01	 2.600E+00	-7.730E-01	-8.734E-01	-7.683E+01	 7.534E+01	-9.668E+00	 1.352E+02	 1.444E+03	 2.320E+02	-1.264E+02	 1.979E+02	-8.495E+00	 1.938E+02	 4.370E+00	 5.129E+00
    5.6000	 1.180E+01	 0.000E+00	 0.000E+00	 1.888E+00	-2.035E-01	 1.750E+01	-2.156E+00	 6.546E+00	-1.218E-01	 2.600E+00	 4.432E-01	 3.976E-01	 3.498E+01	 7.199E+01	-5.522E+00	 9.242E+01	 1.392E+03	 2.161E+02	-1.485E+02	 2.120E+02	-8.222E+00	 2.054E+02	 1.197E+00	 5.171E+00
    5.6500	 1.180E+01	 0.000E+00	 0.000E+00	 1.861E+00	-1.914E-01	 1.771E+01	-3.634E-01	 6.292E+00	-1.621E-01	 2.600E+00	 2.619E+00	 2.679E+00	 2.356E+02	 7.057E+01	-1.537E+00	 5.521E+01	 1.365E+03	 1.993E+02	-1.683E+02	 2.260E+02	-5.272E+00	 2.182E+02	-7.342E+00	 5.233E+00
    5.7000	 1.180E+01	 0.000E+00	 0.000E+00	 1.832E+00	-1.766E-01	 2.289E+01	 9.864E-02	 4.669E+00	-1.904E-01	 2.600E+00	 2.861E+00	 2.939E+00	 2.585E+02	 7.150E+01	 2.144E+00	 1.480E+01	 1.370E+03	 1.812E+02	-1.871E+02	 2.389E+02	-3.362E+00	 2.345E+02	-1.413E+01	 5.306E+00
    5.7500	 1.180E+01	 0.000E+00	 0.000E+00	 1.814E+00	-1.574E-01	 2.583E+01	-6.363E-01	 3.566E+00	-1.513E-01	 2.600E+00	 9.525E-01	 9.535E-01	 8.388E+01	 7.275E+01	 5.544E+00	-2.979E+01	 1.381E+03	 1.608E+02	-2.048E+02	 2.503E+02	-4.516E+00	 2.533E+02	-1.463E+01	 5.376E+00
    5.8000	 1.180E+01	 0.000E+00	 0.000E+00	 1.812E+00	-1.390E-01	 2.314E+01	-1.147E+00	 3.742E+00	-9.675E-02	 2.600E+00	-7.819E-01	-8.515E-01	-7.490E+01	 7.285E+01	 8.827E+00	-7.282E+01	 1.382E+03	 1.378E+02	-2.205E+02	 2.606E+02	-7.587E+00	 2.716E+02	-1.026E+01	 5.436E+00
    5.8500	 1.180E+01	 0.000E+00	 0.000E+00	 1.822E+00	-1.256E-01	 1.864E+01	-6.027E-01	 4.203E+00	-1.047E-01	 2.600E+00	-4.244E-01	-4.803E-01	-4.225E+01	 7.236E+01	 1.214E+01	-1.101E+02	 1.378E+03	 1.132E+02	-2.334E+02	 2.707E+02	-9.987E+00	 2.870E+02	-5.918E+00	 5.487E+00
    5.9000	 1.180E+01	 0.000E+00	 0.000E+00	 1.834E+00	-1.161E-01	 1.722E+01	 3.953E-01	 3.872E+00	-1.844E-01	 2.600E+00	 1.422E+00	 1.440E+00	 1.267E+02	 7.257E+01	 1.545E+01	-1.439E+02	 1.384E+03	 8.805E+01	-2.434E+02	 2.810E+02	-1.027E+01	 2.983E+02	-5.216E+00	 5.537E+00
    5.9500	 1.180E+01	 0.000E+00	 0.000E+00	 1.842E+00	-1.057E-01	 1.892E+01	 6.772E-01	 2.954E+00	-2.759E-01	 2.600E+00	 2.603E+00	 2.662E+00	 2.342E+02	 7.371E+01	 1.859E+01	-1.791E+02	 1.401E+03	 6.249E+01	-2.507E+02	 2.913E+02	-9.009E+00	 3.064E+02	-7.978E+00	 5.585E+00
    6.0000	 1.180E+01	 0.000E+00	 0.000E+00	 1.852E+00	-9.201E-02	 2.028E+01	-1.333E-01	 2.377E+00	-3.287E-01	 2.600E+00	 1.983E+00	 2.014E+00	 1.772E+02	 7.488E+01	 2.140E+01	-2.165E+02	 1.418E+03	 3.642E+01	-2.553E+02	 3.003E+02	-7.622E+00	 3.128E+02	-1.151E+01	 5.623E+00
    6.0500	 1.180E+01	-1.545E-03	 0.000E+00	 1.865E+00	-7.769E-02	 1.954E+01	-1.296E+00	 2.505E+00	-3.535E-01	 2.600E+00	 5.396E-01	 5.111E-01	 4.496E+01	 7.542E+01	 2.381E+01	-2.513E+02	 1.428E+03	 9.832E+00	-2.576E+02	 3.069E+02	-6.996E+00	 3.198E+02	-1.325E+01	 5.644E+00
    6.1000	 1.180E+01	-3.090E-03	 0.000E+00	 1.880E+00	-6.735E-02	 1.823E+01	-1.821E+00	 2.874E+00	-3.960E-01	 2.600E+00	 1.773E-02	-3.276E-02	-2.881E+00	 7.565E+01	 2.581E+01	-2.774E+02	 1.434E+03	-1.705E+01	-2.574E+02	 3.109E+02	-7.089E+00	 3.277E+02	-1.238E+01	 5.651E+00
    6.1500	 1.181E+01	-7.729E-03	 0.000E+00	 1.894E+00	-6.305E-02	 1.840E+01	-1.456E+00	 2.978E+00	-4.781E-01	 2.600E+00	 9.680E-01	 9.491E-01	 8.348E+01	 7.623E+01	 2.740E+01	-2.928E+02	 1.445E+03	-4.388E+01	-2.546E+02	 3.131E+02	-7.447E+00	 3.350E+02	-9.646E+00	 5.651E+00
    6.2000	 1.181E+01	-1.237E-02	 0.000E+00	 1.908E+00	-6.300E-02	 1.973E+01	-7.683E-01	 2.870E+00	-5.818E-01	 2.600E+00	 2.367E+00	 2.392E+00	 2.104E+02	 7.727E+01	 2.850E+01	-3.004E+02	 1.462E+03	-7.026E+01	-2.488E+02	 3.143E+02	-7.666E+00	 3.392E+02	-6.552E+00	 5.655E+00
    6.2500	 1.182E+01	-2.012E-02	 0.000E+00	 1.925E+00	-6.414E-02	 2.042E+01	-4.459E-01	 2.882E+00	-6.788E-01	 2.600E+00	 2.934E+00	 2.969E+00	 2.611E+02	 7.836E+01	 2.908E+01	-3.043E+02	 1.481E+03	-9.571E+01	-2.399E+02	 3.152E+02	-7.441E+00	 3.386E+02	-4.550E+00	 5.669E+00
    6.3000	 1.183E+01	-2.788E-02	 0.000E+00	 1.947E+00	-6.516E-02	 1.977E+01	-6.414E-01	 3.115E+00	-7.637E-01	 2.600E+00	 2.455E+00	 2.464E+00	 2.167E+02	 7.920E+01	 2.922E+01	-3.060E+02	 1.499E+03	-1.198E+02	-2.282E+02	 3.154E+02	-6.534E+00	 3.340E+02	-4.375E+00	 5.693E+00
    6.3500	 1.185E+01	-3.887E-02	 0.000E+00	 1.972E+00	-6.704E-02	 1.889E+01	-1.002E+00	 3.368E+00	-8.460E-01	 2.600E+00	 1.748E+00	 1.730E+00	 1.522E+02	 7.990E+01	 2.903E+01	-3.046E+02	 1.516E+03	-1.426E+02	-2.145E+02	 3.140E+02	-4.987E+00	 3.278E+02	-5.559E+00	 5.723E+00
    6.4000	 1.186E+01	-4.988E-02	 0.000E+00	 1.998E+00	-7.120E-02	 1.887E+01	-1.169E+00	 3.514E+00	-9.285E-01	 2.600E+00	 1.645E+00	 1.623E+00	 1.428E+02	 8.083E+01	 2.858E+01	-2.985E+02	 1.536E+03	-1.641E+02	-1.991E+02	 3.105E+02	-3.295E+00	 3.221E+02	-6.556E+00	 5.752E+00
    6.4500	 1.188E+01	-6.394E-02	 0.000E+00	 2.026E+00	-7.784E-02	 1.944E+01	-1.155E+00	 3.665E+00	-9.947E-01	 2.600E+00	 2.180E+00	 2.175E+00	 1.913E+02	 8.193E+01	 2.782E+01	-2.875E+02	 1.559E+03	-1.844E+02	-1.817E+02	 3.048E+02	-2.151E+00	 3.172E+02	-5.768E+00	 5.773E+00
    6.5000	 1.189E+01	-7.804E-02	 0.000E+00	 2.054E+00	-8.613E-02	 1.965E+01	-1.214E+00	 3.963E+00	-1.030E+00	 2.600E+00	 2.819E+00	 2.829E+00	 2.488E+02	 8.291E+01	 2.666E+01	-2.723E+02	 1.581E+03	-2.032E+02	-1.622E+02	 2.978E+02	-1.844E+00	 3.114E+02	-2.847E+00	 5.779E+00
    6.5500	 1.191E+01	-9.522E-02	 0.000E+00	 2.084E+00	-9.548E-02	 1.926E+01	-1.493E+00	 4.346E+00	-1.037E+00	 2.600E+00	 3.143E+00	 3.152E+00	 2.772E+02	 8.362E+01	 2.504E+01	-2.530E+02	 1.600E+03	-2.199E+02	-1.405E+02	 2.903E+02	-1.929E+00	 3.031E+02	 8.838E-01	 5.772E+00
    6.6000	 1.193E+01	-1.125E-01	 0.000E+00	 2.113E+00	-1.062E-01	 1.892E+01	-1.866E+00	 4.643E+00	-1.038E+00	 2.600E+00	 3.168E+00	 3.169E+00	 2.788E+02	 8.419E+01	 2.298E+01	-2.288E+02	 1.617E+03	-2.338E+02	-1.170E+02	 2.828E+02	-1.578E+00	 2.915E+02	 3.424E+00	 5.755E+00
    6.6500	 1.196E+01	-1.330E-01	 0.000E+00	 2.139E+00	-1.191E-01	 1.930E+01	-2.105E+00	 4.803E+00	-1.047E+00	 2.600E+00	 3.134E+00	 3.131E+00	 2.754E+02	 8.481E+01	 2.052E+01	-1.988E+02	 1.633E+03	-2.450E+02	-9.234E+01	 2.752E+02	-3.251E-01	 2.779E+02	 3.736E+00	 5.739E+00
    6.7000	 1.198E+01	-1.537E-01	 0.000E+00	 2.163E+00	-1.345E-01	 2.022E+01	-2.120E+00	 4.946E+00	-1.064E+00	 2.600E+00	 3.165E+00	 3.165E+00	 2.784E+02	 8.548E+01	 1.769E+01	-1.629E+02	 1.649E+03	-2.535E+02	-6.672E+01	 2.668E+02	 1.505E+00	 2.641E+02	 2.573E+00	 5.723E+00
    6.7500	 1.201E+01	-1.774E-01	 0.000E+00	 2.184E+00	-1.518E-01	 2.099E+01	-2.010E+00	 5.185E+00	-1.079E+00	 2.600E+00	 3.224E+00	 3.224E+00	 2.836E+02	 8.599E+01	 1.449E+01	-1.221E+02	 1.663E+03	-2.596E+02	-4.021E+01	 2.575E+02	 3.081E+00	 2.515E+02	 1.796E+00	 5.710E+00
    6.8000	 1.203E+01	-2.012E-01	 0.000E+00	 2.205E+00	-1.703E-01	 2.122E+01	-1.916E+00	 5.474E+00	-1.086E+00	 2.600E+00	 3.284E+00	 3.281E+00	 2.886E+02	 8.620E+01	 1.095E+01	-7.773E+01	 1.674E+03	-2.632E+02	-1.281E+01	 2.473E+02	 3.781E+00	 2.402E+02	 2.797E+00	 5.698E+00
    6.8500	 1.206E+01	-2.284E-01	 0.000E+00	 2.223E+00	-1.894E-01	 2.123E+01	-1.882E+00	 5.684E+00	-1.086E+00	 2.600E+00	 3.416E+00	 3.411E+00	 3.001E+02	 8.616E+01	 7.149E+00	-3.076E+01	 1.680E+03	-2.639E+02	 1.520E+01	 2.371E+02	 3.674E+00	 2.293E+02	 5.413E+00	 5.689E+00
    6.9000	 1.210E+01	-2.557E-01	 0.000E+00	 2.238E+00	-2.088E-01	 2.153E+01	-1.873E+00	 5.761E+00	-1.086E+00	 2.600E+00	 3.657E+00	 3.658E+00	 3.218E+02	 8.606E+01	 3.174E+00	 1.791E+01	 1.684E+03	-2.614E+02	 4.325E+01	 2.274E+02	 3.388E+00	 2.179E+02	 8.160E+00	 5.682E+00
    6.9500	 1.213E+01	-2.863E-01	 0.000E+00	 2.248E+00	-2.281E-01	 2.226E+01	-1.874E+00	 5.768E+00	-1.085E+00	 2.600E+00	 3.889E+00	 3.893E+00	 3.424E+02	 8.600E+01	-8.744E-01	 6.719E+01	 1.687E+03	-2.558E+02	 7.073E+01	 2.186E+02	 3.544E+00	 2.054E+02	 9.491E+00	 5.680E+00
    7.0000	 1.216E+01	-3.170E-01	 0.000E+00	 2.254E+00	-2.468E-01	 2.315E+01	-1.918E+00	 5.792E+00	-1.077E+00	 2.600E+00	 3.921E+00	 3.930E+00	 3.457E+02	 8.592E+01	-4.934E+00	 1.161E+02	 1.688E+03	-2.473E+02	 9.723E+01	 2.106E+02	 4.288E+00	 1.927E+02	 8.942E+00	 5.682E+00
    7.0500	 1.220E+01	-3.511E-01	 0.000E+00	 2.258E+00	-2.648E-01	 2.382E+01	-2.041E+00	 5.842E+00	-1.059E+00	 2.600E+00	 3.744E+00	 3.746E+00	 3.295E+02	 8.577E+01	-9.018E+00	 1.644E+02	 1.688E+03	-2.359E+02	 1.226E+02	 2.032E+02	 5.242E+00	 1.810E+02	 7.353E+00	 5.691E+00
    7.1000	 1.224E+01	-3.854E-01	 0.000E+00	 2.259E+00	-2.821E-01	 2.426E+01	-2.218E+00	 5.864E+00	-1.031E+00	 2.600E+00	 3.505E+00	 3.500E+00	 3.079E+02	 8.552E+01	-1.313E+01	 2.123E+02	 1.685E+03	-2.220E+02	 1.469E+02	 1.961E+02	 5.834E+00	 1.716E+02	 6.132E+00	 5.704E+00
    7.1500	 1.228E+01	-4.230E-01	 0.000E+00	 2.258E+00	-2.992E-01	 2.456E+01	-2.341E+00	 5.821E+00	-1.000E+00	 2.600E+00	 3.413E+00	 3.402E+00	 2.993E+02	 8.522E+01	-1.728E+01	 2.604E+02	 1.682E+03	-2.054E+02	 1.699E+02	 1.894E+02	 5.726E+00	 1.645E+02	 6.175E+00	 5.726E+00
    7.2000	 1.232E+01	-4.607E-01	 0.000E+00	 2.256E+00	-3.165E-01	 2.483E+01	-2.321E+00	 5.727E+00	-9.766E-01	 2.600E+00	 3.537E+00	 3.533E+00	 3.108E+02	 8.492E+01	-2.141E+01	 3.089E+02	 1.677E+03	-1.862E+02	 1.913E+02	 1.836E+02	 5.028E+00	 1.590E+02	 7.279E+00	 5.754E+00
    7.2500	 1.236E+01	-5.020E-01	 0.000E+00	 2.252E+00	-3.336E-01	 2.509E+01	-2.160E+00	 5.627E+00	-9.665E-01	 2.600E+00	 3.751E+00	 3.754E+00	 3.302E+02	 8.470E+01	-2.546E+01	 3.569E+02	 1.673E+03	-1.645E+02	 2.104E+02	 1.791E+02	 4.167E+00	 1.542E+02	 8.399E+00	 5.795E+00
    7.3000	 1.241E+01	-5.436E-01	 0.000E+00	 2.246E+00	-3.501E-01	 2.532E+01	-1.947E+00	 5.553E+00	-9.692E-01	 2.600E+00	 3.843E+00	 3.888E+00	 3.420E+02	 8.461E+01	-2.935E+01	 4.029E+02	 1.669E+03	-1.409E+02	 2.270E+02	 1.763E+02	 3.554E+00	 1.497E+02	 8.475E+00	 5.846E+00
    7.3500	 1.245E+01	-5.886E-01	 0.000E+00	 2.239E+00	-3.653E-01	 2.553E+01	-1.757E+00	 5.513E+00	-9.943E-01	 2.600E+00	 3.833E+00	 3.847E+00	 3.384E+02	 8.466E+01	-3.295E+01	 4.452E+02	 1.667E+03	-1.155E+02	 2.407E+02	 1.749E+02	 3.259E+00	 1.461E+02	 7.208E+00	 5.913E+00
    7.4000	 1.250E+01	-6.340E-01	 0.000E+00	 2.233E+00	-3.784E-01	 2.561E+01	-1.709E+00	 5.495E+00	-1.017E+00	 2.600E+00	 3.580E+00	 3.573E+00	 3.143E+02	 8.479E+01	-3.626E+01	 4.830E+02	 1.665E+03	-8.894E+01	 2.516E+02	 1.747E+02	 3.127E+00	 1.444E+02	 5.103E+00	 5.989E+00
    7.4500	 1.255E+01	-6.827E-01	 0.000E+00	 2.228E+00	-3.897E-01	 2.549E+01	-1.745E+00	 5.484E+00	-1.035E+00	 2.600E+00	 3.321E+00	 3.313E+00	 2.914E+02	 8.498E+01	-3.923E+01	 5.160E+02	 1.664E+03	-6.130E+01	 2.596E+02	 1.754E+02	 2.807E+00	 1.452E+02	 3.145E+00	 6.080E+00
    7.5000	 1.260E+01	-7.318E-01	 0.000E+00	 2.223E+00	-4.012E-01	 2.468E+01	-1.721E+00	 5.468E+00	-1.059E+00	 2.655E+00	 3.401E+00	 3.638E+00	 3.200E+02	 8.521E+01	-4.176E+01	 5.437E+02	 1.664E+03	-3.284E+01	 2.646E+02	 1.769E+02	 2.154E+00	 1.484E+02	 2.004E+00	 6.179E+00
    7.5500	 1.265E+01	-7.846E-01	 0.000E+00	 2.217E+00	-4.116E-01	 2.389E+01	-1.740E+00	 5.374E+00	-1.087E+00	 2.741E+00	 3.709E+00	 3.894E+00	 3.425E+02	 8.558E+01	-4.381E+01	 5.651E+02	 1.665E+03	-3.795E+00	 2.665E+02	 1.797E+02	 9.509E-01	 1.534E+02	 1.898E+00	 6.294E+00
    7.6000	 1.270E+01	-8.378E-01	 0.000E+00	 2.211E+00	-4.196E-01	 2.355E+01	-1.951E+00	 5.253E+00	-1.099E+00	 2.835E+00	 3.750E+00	 3.944E+00	 3.469E+02	 8.608E+01	-4.545E+01	 5.807E+02	 1.668E+03	 2.538E+01	 2.649E+02	 1.838E+02	-4.915E-01	 1.594E+02	 2.079E+00	 6.418E+00
    7.6500	 1.275E+01	-8.945E-01	 0.000E+00	 2.202E+00	-4.256E-01	 2.334E+01	-2.170E+00	 5.223E+00	-1.104E+00	 2.932E+00	 3.646E+00	 3.848E+00	 3.385E+02	 8.661E+01	-4.666E+01	 5.912E+02	 1.669E+03	 5.411E+01	 2.600E+02	 1.893E+02	-1.688E+00	 1.659E+02	 1.498E+00	 6.563E+00
    7.7000	 1.281E+01	-9.516E-01	 0.000E+00	 2.193E+00	-4.301E-01	 2.308E+01	-2.237E+00	 5.318E+00	-1.113E+00	 3.029E+00	 3.587E+00	 3.783E+00	 3.327E+02	 8.704E+01	-4.742E+01	 5.974E+02	 1.669E+03	 8.192E+01	 2.520E+02	 1.960E+02	-2.378E+00	 1.732E+02	-3.068E-01	 6.721E+00
    7.7500	 1.287E+01	-1.012E+00	 0.000E+00	 2.183E+00	-4.335E-01	 2.279E+01	-2.166E+00	 5.462E+00	-1.126E+00	 3.128E+00	 3.627E+00	 3.832E+00	 3.371E+02	 8.739E+01	-4.774E+01	 5.993E+02	 1.668E+03	 1.086E+02	 2.410E+02	 2.034E+02	-2.745E+00	 1.820E+02	-2.804E+00	 6.897E+00
    7.8000	 1.292E+01	-1.074E+00	 0.000E+00	 2.173E+00	-4.352E-01	 2.257E+01	-2.082E+00	 5.552E+00	-1.140E+00	 3.229E+00	 3.707E+00	 3.922E+00	 3.450E+02	 8.771E+01	-4.764E+01	 5.963E+02	 1.666E+03	 1.339E+02	 2.274E+02	 2.112E+02	-3.243E+00	 1.926E+02	-4.911E+00	 7.083E+00
    7.8500	 1.298E+01	-1.139E+00	 0.000E+00	 2.162E+00	-4.350E-01	 2.248E+01	-2.072E+00	 5.569E+00	-1.148E+00	 3.334E+00	 3.765E+00	 3.985E+00	 3.506E+02	 8.807E+01	-4.711E+01	 5.880E+02	 1.665E+03	 1.578E+02	 2.110E+02	 2.193E+02	-4.176E+00	 2.045E+02	-5.895E+00	 7.284E+00
    7.9000	 1.304E+01	-1.204E+00	 0.000E+00	 2.151E+00	-4.327E-01	 2.242E+01	-2.113E+00	 5.564E+00	-1.151E+00	 3.443E+00	 3.827E+00	 4.052E+00	 3.564E+02	 8.844E+01	-4.612E+01	 5.740E+02	 1.664E+03	 1.798E+02	 1.920E+02	 2.279E+02	-5.436E+00	 2.171E+02	-5.939E+00	 7.492E+00
    7.9500	 1.310E+01	-1.274E+00	 0.000E+00	 2.140E+00	-4.285E-01	 2.227E+01	-2.143E+00	 5.583E+00	-1.154E+00	 3.554E+00	 3.948E+00	 4.182E+00	 3.679E+02	 8.879E+01	-4.464E+01	 5.543E+02	 1.663E+03	 1.994E+02	 1.706E+02	 2.370E+02	-6.620E+00	 2.293E+02	-5.902E+00	 7.715E+00
    8.0000	 1.316E+01	-1.343E+00	 0.000E+00	 2.131E+00	-4.226E-01	 2.204E+01	-2.157E+00	 5.609E+00	-1.161E+00	 3.671E+00	 4.115E+00	 4.364E+00	 3.839E+02	 8.908E+01	-4.267E+01	 5.291E+02	 1.662E+03	 2.163E+02	 1.472E+02	 2.465E+02	-7.378E+00	 2.409E+02	-6.564E+00	 7.945E+00
    8.0500	 1.323E+01	-1.417E+00	 0.000E+00	 2.122E+00	-4.148E-01	 2.183E+01	-2.219E+00	 5.595E+00	-1.173E+00	 3.793E+00	 4.243E+00	 4.506E+00	 3.964E+02	 8.931E+01	-4.024E+01	 4.983E+02	 1.661E+03	 2.305E+02	 1.221E+02	 2.560E+02	-7.676E+00	 2.521E+02	-8.010E+00	 8.190E+00
    8.1000	 1.329E+01	-1.491E+00	 0.000E+00	 2.113E+00	-4.052E-01	 2.170E+01	-2.376E+00	 5.521E+00	-1.188E+00	 3.920E+00	 4.278E+00	 4.548E+00	 4.001E+02	 8.946E+01	-3.741E+01	 4.624E+02	 1.659E+03	 2.418E+02	 9.578E+01	 2.653E+02	-7.773E+00	 2.632E+02	-9.628E+00	 8.440E+00
    8.1500	 1.336E+01	-1.569E+00	 0.000E+00	 2.103E+00	-3.938E-01	 2.171E+01	-2.587E+00	 5.415E+00	-1.206E+00	 4.049E+00	 4.286E+00	 4.556E+00	 4.008E+02	 8.953E+01	-3.425E+01	 4.224E+02	 1.656E+03	 2.504E+02	 6.835E+01	 2.739E+02	-7.973E+00	 2.743E+02	-1.064E+01	 8.703E+00
    8.2000	 1.342E+01	-1.648E+00	 0.000E+00	 2.093E+00	-3.814E-01	 2.181E+01	-2.754E+00	 5.314E+00	-1.230E+00	 4.180E+00	 4.395E+00	 4.672E+00	 4.109E+02	 8.952E+01	-3.078E+01	 3.792E+02	 1.652E+03	 2.560E+02	 4.009E+01	 2.820E+02	-8.385E+00	 2.853E+02	-1.071E+01	 8.969E+00
    8.2500	 1.349E+01	-1.731E+00	 0.000E+00	 2.082E+00	-3.682E-01	 2.197E+01	-2.817E+00	 5.224E+00	-1.265E+00	 4.317E+00	 4.673E+00	 4.967E+00	 4.369E+02	 8.943E+01	-2.704E+01	 3.336E+02	 1.647E+03	 2.584E+02	 1.137E+01	 2.894E+02	-8.872E+00	 2.955E+02	-1.009E+01	 9.244E+00
    8.3000	 1.355E+01	-1.814E+00	 0.000E+00	 2.071E+00	-3.547E-01	 2.213E+01	-2.813E+00	 5.125E+00	-1.317E+00	 4.461E+00	 5.036E+00	 5.356E+00	 4.712E+02	 8.928E+01	-2.306E+01	 2.856E+02	 1.642E+03	 2.578E+02	-1.742E+01	 2.962E+02	-9.188E+00	 3.043E+02	-9.406E+00	 9.518E+00
    8.3500	 1.362E+01	-1.901E+00	 0.000E+00	 2.060E+00	-3.404E-01	 2.230E+01	-2.838E+00	 4.997E+00	-1.385E+00	 4.615E+00	 5.328E+00	 5.672E+00	 4.989E+02	 8.908E+01	-1.889E+01	 2.351E+02	 1.636E+03	 2.539E+02	-4.587E+01	 3.024E+02	-9.165E+00	 3.117E+02	-9.147E+00	 9.800E+00
    8.4000	 1.369E+01	-1.989E+00	 0.000E+00	 2.049E+00	-3.254E-01	 2.244E+01	-2.948E+00	 4.850E+00	-1.467E+00	 4.775E+00	 5.468E+00	 5.825E+00	 5.124E+02	 8.882E+01	-1.455E+01	 1.823E+02	 1.630E+03	 2.469E+02	-7.364E+01	 3.078E+02	-8.806E+00	 3.176E+02	-9.356E+00	 1.008E+01
    8.4500	 1.376E+01	-2.081E+00	 0.000E+00	 2.037E+00	-3.096E-01	 2.259E+01	-3.118E+00	 4.701E+00	-1.558E+00	 4.941E+00	 5.520E+00	 5.882E+00	 5.174E+02	 8.851E+01	-1.011E+01	 1.280E+02	 1.624E+03	 2.371E+02	-1.005E+02	 3.122E+02	-8.266E+00	 3.224E+02	-9.659E+00	 1.036E+01
    8.5000	 1.383E+01	-2.174E+00	 0.000E+00	 2.026E+00	-2.937E-01	 2.277E+01	-3.268E+00	 4.581E+00	-1.656E+00	 5.110E+00	 5.645E+00	 6.010E+00	 5.286E+02	 8.818E+01	-5.610E+00	 7.306E+01	 1.617E+03	 2.244E+02	-1.262E+02	 3.154E+02	-7.732E+00	 3.263E+02	-9.557E+00	 1.064E+01
    8.5500	 1.390E+01	-2.271E+00	 0.000E+00	 2.016E+00	-2.781E-01	 2.298E+01	-3.358E+00	 4.502E+00	-1.758E+00	 5.284E+00	 5.931E+00	 6.314E+00	 5.554E+02	 8.784E+01	-1.084E+00	 1.826E+01	 1.611E+03	 2.090E+02	-1.504E+02	 3.174E+02	-7.317E+00	 3.293E+02	-8.775E+00	 1.092E+01
    8.6000	 1.397E+01	-2.368E+00	 0.000E+00	 2.006E+00	-2.630E-01	 2.313E+01	-3.424E+00	 4.452E+00	-1.862E+00	 5.466E+00	 6.314E+00	 6.725E+00	 5.915E+02	 8.754E+01	 3.414E+00	-3.604E+01	 1.606E+03	 1.909E+02	-1.729E+02	 3.182E+02	-7.001E+00	 3.311E+02	-7.440E+00	 1.121E+01
    8.6500	 1.404E+01	-2.470E+00	 0.000E+00	 1.997E+00	-2.487E-01	 2.319E+01	-3.532E+00	 4.412E+00	-1.964E+00	 5.658E+00	 6.656E+00	 7.090E+00	 6.237E+02	 8.727E+01	 7.824E+00	-8.952E+01	 1.602E+03	 1.704E+02	-1.934E+02	 3.181E+02	-6.645E+00	 3.312E+02	-5.999E+00	 1.149E+01
    8.7000	 1.411E+01	-2.572E+00	 0.000E+00	 1.989E+00	-2.350E-01	 2.313E+01	-3.704E+00	 4.385E+00	-2.064E+00	 5.858E+00	 6.872E+00	 7.323E+00	 6.441E+02	 8.701E+01	 1.208E+01	-1.415E+02	 1.598E+03	 1.476E+02	-2.113E+02	 3.171E+02	-6.091E+00	 3.295E+02	-4.915E+00	 1.178E+01
    8.7500	 1.418E+01	-2.678E+00	 0.000E+00	 1.983E+00	-2.225E-01	 2.278E+01	-3.891E+00	 4.423E+00	-2.165E+00	 6.065E+00	 7.012E+00	 7.464E+00	 6.565E+02	 8.673E+01	 1.614E+01	-1.912E+02	 1.595E+03	 1.230E+02	-2.267E+02	 3.150E+02	-5.291E+00	 3.263E+02	-4.346E+00	 1.207E+01
    8.8000	 1.425E+01	-2.786E+00	 0.000E+00	 1.977E+00	-2.115E-01	 2.303E+01	-4.085E+00	 4.382E+00	-2.262E+00	 6.276E+00	 7.137E+00	 7.628E+00	 6.710E+02	 8.654E+01	 1.991E+01	-2.373E+02	 1.593E+03	 9.683E+01	-2.392E+02	 3.120E+02	-4.336E+00	 3.218E+02	-4.035E+00	 1.235E+01
    8.8500	 1.432E+01	-2.897E+00	 0.000E+00	 1.972E+00	-2.023E-01	 2.329E+01	-4.159E+00	 4.428E+00	-2.348E+00	 6.492E+00	 7.335E+00	 7.831E+00	 6.889E+02	 8.631E+01	 2.337E+01	-2.790E+02	 1.590E+03	 6.932E+01	-2.488E+02	 3.078E+02	-3.463E+00	 3.163E+02	-3.499E+00	 1.265E+01
    8.9000	 1.439E+01	-3.009E+00	 0.000E+00	 1.968E+00	-1.954E-01	 2.253E+01	-4.180E+00	 4.683E+00	-2.419E+00	 6.715E+00	 7.516E+00	 8.005E+00	 7.041E+02	 8.591E+01	 2.644E+01	-3.160E+02	 1.586E+03	 4.073E+01	-2.553E+02	 3.024E+02	-2.829E+00	 3.101E+02	-2.442E+00	 1.294E+01
    8.9500	 1.446E+01	-3.125E+00	 0.000E+00	 1.964E+00	-1.905E-01	 2.204E+01	-4.209E+00	 4.911E+00	-2.476E+00	 6.944E+00	 7.735E+00	 8.242E+00	 7.250E+02	 8.556E+01	 2.911E+01	-3.480E+02	 1.583E+03	 1.143E+01	-2.586E+02	 2.962E+02	-2.361E+00	 3.030E+02	-1.032E+00	 1.324E+01
    9.0000	 1.453E+01	-3.243E+00	 0.000E+00	 1.960E+00	-1.875E-01	 2.209E+01	-4.265E+00	 5.022E+00	-2.520E+00	 7.179E+00	 7.978E+00	 8.506E+00	 7.482E+02	 8.532E+01	 3.136E+01	-3.751E+02	 1.581E+03	-1.821E+01	-2.586E+02	 2.893E+02	-1.910E+00	 2.948E+02	 3.086E-01	 1.354E+01
    9.0500	 1.461E+01	-3.363E+00	 0.000E+00	 1.953E+00	-1.864E-01	 2.215E+01	-4.351E+00	 5.118E+00	-2.550E+00	 7.421E+00	 8.143E+00	 8.684E+00	 7.639E+02	 8.513E+01	 3.313E+01	-3.969E+02	 1.579E+03	-4.775E+01	-2.551E+02	 2.818E+02	-1.367E+00	 2.854E+02	 1.223E+00	 1.384E+01
    9.1000	 1.468E+01	-3.485E+00	 0.000E+00	 1.946E+00	-1.870E-01	 2.181E+01	-4.467E+00	 5.306E+00	-2.558E+00	 7.669E+00	 8.141E+00	 8.690E+00	 7.644E+02	 8.472E+01	 3.440E+01	-4.130E+02	 1.574E+03	-7.679E+01	-2.481E+02	 2.738E+02	-7.339E-01	 2.750E+02	 1.637E+00	 1.416E+01
    9.1500	 1.475E+01	-3.611E+00	 0.000E+00	 1.937E+00	-1.896E-01	 2.136E+01	-4.562E+00	 5.547E+00	-2.548E+00	 7.919E+00	 8.084E+00	 8.624E+00	 7.586E+02	 8.414E+01	 3.515E+01	-4.227E+02	 1.566E+03	-1.050E+02	-2.378E+02	 2.654E+02	-9.272E-02	 2.639E+02	 1.765E+00	 1.447E+01
    9.2000	 1.482E+01	-3.738E+00	 0.000E+00	 1.924E+00	-1.943E-01	 2.118E+01	-4.594E+00	 5.743E+00	-2.522E+00	 8.171E+00	 8.093E+00	 8.632E+00	 7.593E+02	 8.347E+01	 3.537E+01	-4.255E+02	 1.556E+03	-1.319E+02	-2.243E+02	 2.565E+02	 4.278E-01	 2.527E+02	 1.954E+00	 1.480E+01
    9.2500	 1.489E+01	-3.869E+00	 0.000E+00	 1.907E+00	-2.009E-01	 2.130E+01	-4.563E+00	 5.866E+00	-2.481E+00	 8.427E+00	 8.167E+00	 8.717E+00	 7.668E+02	 8.277E+01	 3.504E+01	-4.215E+02	 1.544E+03	-1.574E+02	-2.077E+02	 2.472E+02	 7.069E-01	 2.418E+02	 2.452E+00	 1.513E+01
    9.3000	 1.496E+01	-4.001E+00	 0.000E+00	 1.887E+00	-2.094E-01	 2.140E+01	-4.501E+00	 5.970E+00	-2.423E+00	 8.687E+00	 8.208E+00	 8.766E+00	 7.711E+02	 8.195E+01	 3.416E+01	-4.106E+02	 1.530E+03	-1.809E+02	-1.880E+02	 2.377E+02	 7.295E-01	 2.309E+02	 3.207E+00	 1.547E+01
    9.3500	 1.503E+01	-4.137E+00	 0.000E+00	 1.862E+00	-2.194E-01	 2.129E+01	-4.425E+00	 6.091E+00	-2.351E+00	 8.950E+00	 8.142E+00	 8.697E+00	 7.650E+02	 8.100E+01	 3.271E+01	-3.932E+02	 1.513E+03	-2.021E+02	-1.656E+02	 2.283E+02	 6.153E-01	 2.200E+02	 3.874E+00	 1.582E+01
    9.4000	 1.509E+01	-4.274E+00	 0.000E+00	 1.834E+00	-2.307E-01	 2.112E+01	-4.318E+00	 6.189E+00	-2.271E+00	 9.215E+00	 8.003E+00	 8.549E+00	 7.521E+02	 7.994E+01	 3.073E+01	-3.694E+02	 1.493E+03	-2.205E+02	-1.407E+02	 2.192E+02	 5.311E-01	 2.090E+02	 4.067E+00	 1.618E+01
    9.4500	 1.516E+01	-4.415E+00	 0.000E+00	 1.801E+00	-2.432E-01	 2.112E+01	-4.164E+00	 6.205E+00	-2.188E+00	 9.480E+00	 7.855E+00	 8.400E+00	 7.389E+02	 7.887E+01	 2.827E+01	-3.397E+02	 1.471E+03	-2.359E+02	-1.137E+02	 2.105E+02	 5.349E-01	 1.982E+02	 3.679E+00	 1.655E+01
    9.5000	 1.523E+01	-4.556E+00	 0.000E+00	 1.764E+00	-2.565E-01	 2.124E+01	-3.987E+00	 6.138E+00	-2.099E+00	 9.746E+00	 7.684E+00	 8.222E+00	 7.233E+02	 7.779E+01	 2.535E+01	-3.048E+02	 1.447E+03	-2.481E+02	-8.498E+01	 2.020E+02	 5.017E-01	 1.880E+02	 2.981E+00	 1.693E+01
    9.5500	 1.529E+01	-4.702E+00	 0.000E+00	 1.723E+00	-2.703E-01	 2.130E+01	-3.820E+00	 6.039E+00	-2.005E+00	 1.001E+01	 7.456E+00	 7.987E+00	 7.026E+02	 7.665E+01	 2.201E+01	-2.651E+02	 1.422E+03	-2.569E+02	-5.486E+01	 1.939E+02	 2.619E-01	 1.786E+02	 2.356E+00	 1.733E+01
    9.6000	 1.536E+01	-4.849E+00	 0.000E+00	 1.679E+00	-2.846E-01	 2.122E+01	-3.652E+00	 5.930E+00	-1.906E+00	 1.028E+01	 7.192E+00	 7.708E+00	 6.780E+02	 7.534E+01	 1.831E+01	-2.211E+02	 1.394E+03	-2.620E+02	-2.374E+01	 1.863E+02	-2.489E-01	 1.703E+02	 1.976E+00	 1.773E+01
    9.6500	 1.542E+01	-4.998E+00	 0.000E+00	 1.632E+00	-2.992E-01	 2.104E+01	-3.442E+00	 5.794E+00	-1.804E+00	 1.054E+01	 6.983E+00	 7.490E+00	 6.589E+02	 7.408E+01	 1.426E+01	-1.734E+02	 1.366E+03	-2.634E+02	 7.930E+00	 1.791E+02	-9.348E-01	 1.629E+02	 1.674E+00	 1.814E+01
    9.7000	 1.549E+01	-5.150E+00	 0.000E+00	 1.583E+00	-3.140E-01	 2.082E+01	-3.193E+00	 5.615E+00	-1.714E+00	 1.080E+01	 6.836E+00	 7.299E+00	 6.421E+02	 7.300E+01	 9.932E+00	-1.224E+02	 1.338E+03	-2.608E+02	 3.968E+01	 1.725E+02	-1.676E+00	 1.563E+02	 1.170E+00	 1.855E+01
    9.7500	 1.555E+01	-5.304E+00	 0.000E+00	 1.532E+00	-3.288E-01	 2.071E+01	-2.923E+00	 5.395E+00	-1.610E+00	 1.107E+01	 6.588E+00	 7.094E+00	 6.240E+02	 7.180E+01	 5.424E+00	-6.949E+01	 1.309E+03	-2.544E+02	 7.091E+01	 1.668E+02	-2.368E+00	 1.503E+02	 2.658E-01	 1.897E+01
    9.8000	 1.561E+01	-5.460E+00	 0.000E+00	 1.479E+00	-3.432E-01	 2.038E+01	-2.629E+00	 5.151E+00	-1.508E+00	 1.133E+01	 6.251E+00	 6.741E+00	 5.930E+02	 7.076E+01	 7.626E-01	-1.523E+01	 1.281E+03	-2.441E+02	 1.012E+02	 1.616E+02	-3.042E+00	 1.449E+02	-1.004E+00	 1.940E+01
    9.8500	 1.567E+01	-5.619E+00	 0.000E+00	 1.426E+00	-3.570E-01	 1.988E+01	-2.372E+00	 4.903E+00	-1.405E+00	 1.159E+01	 5.758E+00	 6.224E+00	 5.475E+02	 6.987E+01	-3.981E+00	 3.951E+01	 1.253E+03	-2.301E+02	 1.301E+02	 1.571E+02	-3.773E+00	 1.404E+02	-2.424E+00	 1.984E+01
    9.9000	 1.573E+01	-5.780E+00	 0.000E+00	 1.373E+00	-3.701E-01	 1.935E+01	-2.114E+00	 4.639E+00	-1.300E+00	 1.184E+01	 5.247E+00	 5.685E+00	 5.001E+02	 6.913E+01	-8.716E+00	 9.410E+01	 1.227E+03	-2.126E+02	 1.571E+02	 1.531E+02	-4.596E+00	 1.368E+02	-3.779E+00	 2.028E+01
    9.9500	 1.579E+01	-5.943E+00	 0.000E+00	 1.321E+00	-3.827E-01	 1.878E+01	-1.803E+00	 4.387E+00	-1.199E+00	 1.209E+01	 4.853E+00	 5.276E+00	 4.641E+02	 6.851E+01	-1.335E+01	 1.479E+02	 1.203E+03	-1.917E+02	 1.818E+02	 1.496E+02	-5.498E+00	 1.341E+02	-4.954E+00	 2.073E+01
   10.0000	 1.585E+01	-6.108E+00	 0.000E+00	 1.269E+00	-3.947E-01	 1.811E+01	-1.429E+00	 4.145E+00	-1.105E+00	 1.233E+01	 4.567E+00	 4.979E+00	 4.380E+02	 6.801E+01	-1.782E+01	 1.999E+02	 1.179E+03	-1.679E+02	 2.038E+02	 1.466E+02	-6.457E+00	 1.320E+02	-5.947E+00	 2.119E+01
   10.0500	 1.590E+01	-6.276E+00	 0.000E+00	 1.219E+00	-4.046E-01	 1.779E+01	-1.115E+00	 3.926E+00	-1.000E+00	 1.253E+01	 4.202E+00	 4.489E+00	 3.949E+02	 6.761E+01	-2.209E+01	 2.494E+02	 1.157E+03	-1.415E+02	 2.227E+02	 1.443E+02	-7.483E+00	 1.304E+02	-6.828E+00	 2.165E+01
   10.1000	 1.596E+01	-6.445E+00	 0.000E+00	 1.172E+00	-4.133E-01	 1.712E+01	-8.444E-01	 3.813E+00	-8.934E-01	 1.271E+01	 3.772E+00	 4.057E+00	 3.569E+02	 6.724E+01	-2.607E+01	 2.953E+02	 1.136E+03	-1.128E+02	 2.382E+02	 1.426E+02	-8.394E+00	 1.293E+02	-7.844E+00	 2.213E+01
   10.1500	 1.601E+01	-6.617E+00	 0.000E+00	 1.127E+00	-4.208E-01	 1.621E+01	-5.629E-01	 3.733E+00	-7.955E-01	 1.288E+01	 3.415E+00	 3.693E+00	 3.249E+02	 6.695E+01	-2.968E+01	 3.369E+02	 1.117E+03	-8.247E+01	 2.499E+02	 1.414E+02	-9.150E+00	 1.287E+02	-9.040E+00	 2.263E+01
   10.2000	 1.606E+01	-6.790E+00	 0.000E+00	 1.085E+00	-4.268E-01	 1.543E+01	-3.497E-01	 3.573E+00	-7.058E-01	 1.305E+01	 3.121E+00	 3.385E+00	 2.978E+02	 6.683E+01	-3.284E+01	 3.729E+02	 1.100E+03	-5.089E+01	 2.580E+02	 1.406E+02	-9.810E+00	 1.287E+02	-1.024E+01	 2.313E+01
   10.2500	 1.611E+01	-6.966E+00	 0.000E+00	 1.047E+00	-4.310E-01	 1.458E+01	-2.123E-01	 3.399E+00	-6.219E-01	 1.322E+01	 2.791E+00	 3.045E+00	 2.679E+02	 6.676E+01	-3.552E+01	 4.030E+02	 1.085E+03	-1.849E+01	 2.621E+02	 1.404E+02	-1.049E+01	 1.294E+02	-1.120E+01	 2.364E+01