
Predictions were generated on 27-Feb-2025 at 15:14:38 using HydroDyn Driver, compiled on Feb 26 2025 at 11:10:13 as a 64-bit application using double precision at commit v3.5.3-2311-gca3fb2d1-dirty
 linked with  NWTC Subroutine Library

Description from the driver input file: Compatible with HydroDyn v4.00 - Regression test for MHstLMod=2

Time	Wave1Elev	HydroFxi	HydroFyi	HydroFzi	HydroMxi	HydroMyi	HydroMzi	M1N1FBxi	M1N1FByi	M1N1FBzi	M1N1MBxi	M1N1MByi	M1N1MBzi	M1N2FBxi	M1N2FByi	M1N2FBzi	M1N2MBxi	M1N2MByi	M1N2MBzi	M1N3FBxi	M1N3FByi	M1N3FBzi	M1N3MBxi	M1N3MByi	M1N3MBzi	M1N4FBxi	M1N4FByi	M1N4FBzi	M1N4MBxi	M1N4MByi	M1N4MBzi	M1N5FBxi	M1N5FByi	M1N5FBzi	M1N5MBxi	M1N5MByi	M1N5MBzi	M1N6FBxi	M1N6FByi	M1N6FBzi	M1N6MBxi	M1N6MByi	M1N6MBzi	M1N7FBxi	M1N7FByi	M1N7FBzi	M1N7MBxi	M1N7MByi	M1N7MBzi	M1N8FBxi	M1N8FByi	M1N8FBzi	M1N8MBxi	M1N8MByi	M1N8MBzi	M1N9FBxi	M1N9FByi	M1N9FBzi	M1N9MBxi	M1N9MByi	M1N9MBzi	J1FBxi	J1FByi	J1FBzi	J1MBxi	J1MByi	J1MBzi	J2FBxi	J2FByi	J2FBzi	J2MBxi	J2MByi	J2MBzi
(s)	(m)	(N)	(N)	(N)	(N-m)	(N-m)	(N-m)	(N/m)	(N/m)	(N/m)	(N-m/m)	(N-m/m)	(N-m/m)	(N/m)	(N/m)	(N/m)	(N-m/m)	(N-m/m)	(N-m/m)	(N/m)	(N/m)	(N/m)	(N-m/m)	(N-m/m)	(N-m/m)	(N/m)	(N/m)	(N/m)	(N-m/m)	(N-m/m)	(N-m/m)	(N/m)	(N/m)	(N/m)	(N-m/m)	(N-m/m)	(N-m/m)	(N/m)	(N/m)	(N/m)	(N-m/m)	(N-m/m)	(N-m/m)	(N/m)	(N/m)	(N/m)	(N-m/m)	(N-m/m)	(N-m/m)	(N/m)	(N/m)	(N/m)	(N-m/m)	(N-m/m)	(N-m/m)	(N/m)	(N/m)	(N/m)	(N-m/m)	(N-m/m)	(N-m/m)	(N)	(N)	(N)	(N-m)	(N-m)	(N-m)	(N)	(N)	(N)	(N-m)	(N-m)	(N-m)
    0.0000	   9.331236E-01	   1.317236E+05	   3.536605E+04	   6.945873E+06	  -4.562720E+06	   9.913844E+06	  -1.256366E+06	  -1.046737E+04	  -1.924522E+04	   2.509424E+05	  -4.628187E+04	  -5.958092E+04	  -1.843834E+04	  -1.004257E+04	  -1.922502E+04	   2.355930E+05	  -5.080204E+04	  -6.805016E+04	  -1.891556E+04	  -9.239562E+03	  -1.868030E+04	   2.151737E+05	  -5.331295E+04	  -7.365408E+04	  -1.868226E+04	  -8.083034E+03	  -1.758181E+04	   1.909800E+05	  -5.283573E+04	  -7.456196E+04	  -1.757563E+04	  -6.576918E+03	  -1.592351E+04	   1.629934E+05	  -4.893826E+04	  -6.991971E+04	  -1.551422E+04	  -4.722765E+03	  -1.370964E+04	   1.312442E+05	  -4.120919E+04	  -5.890518E+04	  -1.242470E+04	  -2.529711E+03	  -1.092729E+04	   9.569444E+04	  -2.917546E+04	  -4.059524E+04	  -8.215593E+03	   7.709731E+00	  -7.582123E+03	   5.636341E+04	  -1.239382E+04	  -1.411712E+04	  -2.806114E+03	   2.599706E+03	  -4.036294E+03	   1.725445E+04	   7.402406E+03	   1.785065E+04	   3.236694E+03	   3.421824E+05	   6.065961E+05	   6.221498E+04	   1.028612E+06	  -6.314261E+05	   4.990358E+05	   4.383017E+04	   7.769893E+04	   7.969121E+03	   2.300674E+04	  -1.837746E+04	   5.264316E+04
    0.0500	   8.558517E-01	   1.229092E+05	   3.298934E+04	   6.941528E+06	  -4.539579E+06	   1.000561E+07	  -1.209794E+06	  -1.057370E+04	  -1.917026E+04	   2.508685E+05	  -4.632311E+04	  -5.962549E+04	  -1.844384E+04	  -1.015042E+04	  -1.914018E+04	   2.355162E+05	  -5.064286E+04	  -6.771425E+04	  -1.888902E+04	  -9.348207E+03	  -1.858526E+04	   2.150944E+05	  -5.290528E+04	  -7.285962E+04	  -1.861339E+04	  -8.191582E+03	  -1.747734E+04	   1.908988E+05	  -5.215259E+04	  -7.327142E+04	  -1.745746E+04	  -6.684039E+03	  -1.581069E+04	   1.629112E+05	  -4.795415E+04	  -6.809799E+04	  -1.534009E+04	  -4.827722E+03	  -1.358926E+04	   1.311617E+05	  -3.990345E+04	  -5.652559E+04	  -1.218888E+04	  -2.630726E+03	  -1.080085E+04	   9.561283E+04	  -2.752960E+04	  -3.763463E+04	  -7.912886E+03	  -8.866424E+01	  -7.450476E+03	   5.628327E+04	  -1.039415E+04	  -1.056037E+04	  -2.432234E+03	   2.509352E+03	  -3.901499E+03	   1.717697E+04	   9.732305E+03	   2.195694E+04	   3.678188E+03	   3.424327E+05	   6.070398E+05	   6.226049E+04	   1.027663E+06	  -6.308484E+05	   4.986252E+05	   3.944700E+04	   6.992877E+04	   7.172182E+03	   2.143730E+04	  -1.732185E+04	   5.098285E+04
    0.1000	   7.783685E-01	   1.139791E+05	   3.058362E+04	   6.937126E+06	  -4.520131E+06	   1.009148E+07	  -1.162548E+06	  -1.068171E+04	  -1.909781E+04	   2.507942E+05	  -4.642367E+04	  -5.978890E+04	  -1.845728E+04	  -1.026022E+04	  -1.905765E+04	   2.354389E+05	  -5.054679E+04	  -6.750337E+04	  -1.887119E+04	  -9.459125E+03	  -1.849229E+04	   2.150142E+05	  -5.256441E+04	  -7.219609E+04	  -1.855402E+04	  -8.302729E+03	  -1.737466E+04	   1.908166E+05	  -5.153920E+04	  -7.211632E+04	  -1.734942E+04	  -6.794122E+03	  -1.569932E+04	   1.628278E+05	  -4.704203E+04	  -6.641498E+04	  -1.517662E+04	  -4.935987E+03	  -1.346999E+04	   1.310776E+05	  -3.867100E+04	  -5.428626E+04	  -1.196405E+04	  -2.735431E+03	  -1.067513E+04	   9.552935E+04	  -2.595742E+04	  -3.481430E+04	  -7.621340E+03	  -1.890956E+02	  -7.319163E+03	   5.620098E+04	  -8.467451E+03	  -7.141990E+03	  -2.069468E+03	   2.414583E+03	  -3.766644E+03	   1.709705E+04	   1.199077E+04	   2.592818E+04	   4.108789E+03	   3.425491E+05	   6.072462E+05	   6.228166E+04	   1.027227E+06	  -6.305962E+05	   4.985640E+05	   3.521635E+04	   6.242898E+04	   6.402973E+03	   1.939771E+04	  -1.596658E+04	   4.898676E+04
    0.1500	   7.006934E-01	   1.049418E+05	   2.815099E+04	   6.932670E+06	  -4.504396E+06	   1.017142E+07	  -1.114680E+06	  -1.079130E+04	  -1.902794E+04	   2.507197E+05	  -4.658382E+04	  -6.007067E+04	  -1.847891E+04	  -1.037187E+04	  -1.897752E+04	   2.353610E+05	  -5.051423E+04	  -6.741731E+04	  -1.886235E+04	  -9.572209E+03	  -1.840146E+04	   2.149334E+05	  -5.229090E+04	  -7.166359E+04	  -1.850443E+04	  -8.416368E+03	  -1.727385E+04	   1.907333E+05	  -5.099629E+04	  -7.109712E+04	  -1.725183E+04	  -6.907061E+03	  -1.558952E+04	   1.627431E+05	  -4.620283E+04	  -6.487151E+04	  -1.502414E+04	  -5.047455E+03	  -1.335195E+04	   1.309920E+05	  -3.751295E+04	  -5.218843E+04	  -1.175059E+04	  -2.843732E+03	  -1.055026E+04	   9.544408E+04	  -2.446029E+04	  -3.213592E+04	  -7.341366E+03	  -2.934871E+02	  -7.188308E+03	   5.611661E+04	  -6.615338E+03	  -3.864101E+03	  -1.718266E+03	   2.315492E+03	  -3.631855E+03	   1.701478E+04	   1.417599E+04	   2.976182E+04	   4.528017E+03	   3.425316E+05	   6.072150E+05	   6.227846E+04	   1.027269E+06	  -6.306471E+05	   4.988280E+05	   3.114211E+04	   5.520646E+04	   5.662201E+03	   1.692558E+04	  -1.433557E+04	   4.668107E+04
    0.2000	   6.228455E-01	   9.580567E+04	   2.569358E+04	   6.928166E+06	  -4.492390E+06	   1.024538E+07	  -1.066244E+06	  -1.090238E+04	  -1.896071E+04	   2.506448E+05	  -4.680378E+04	  -6.047028E+04	  -1.850896E+04	  -1.048527E+04	  -1.889985E+04	   2.352827E+05	  -5.054555E+04	  -6.745579E+04	  -1.886275E+04	  -9.687352E+03	  -1.831288E+04	   2.148519E+05	  -5.208527E+04	  -7.126217E+04	  -1.846490E+04	  -8.532391E+03	  -1.717503E+04	   1.906492E+05	  -5.052454E+04	  -7.021419E+04	  -1.716501E+04	  -7.022747E+03	  -1.548139E+04	   1.626572E+05	  -4.543744E+04	  -6.346834E+04	  -1.488300E+04	  -5.162019E+03	  -1.323525E+04	   1.309050E+05	  -3.643043E+04	  -5.023327E+04	  -1.154887E+04	  -2.955520E+03	  -1.042636E+04	   9.535709E+04	  -2.303954E+04	  -2.960108E+04	  -7.073374E+03	  -4.017380E+02	  -7.058035E+03	   5.603024E+04	  -4.839379E+03	  -7.287609E+02	  -1.379078E+03	   2.212175E+03	  -3.497261E+03	   1.693022E+04	   1.628616E+04	   3.345537E+04	   4.935382E+03	   3.423800E+05	   6.069464E+05	   6.225091E+04	   1.027754E+06	  -6.309783E+05	   4.993928E+05	   2.722802E+04	   4.826786E+04	   4.950550E+03	   1.406031E+04	  -1.245383E+04	   4.409316E+04
    0.2500	   5.448438E-01	   8.657945E+04	   2.321355E+04	   6.923616E+06	  -4.484126E+06	   1.031332E+07	  -1.017294E+06	  -1.101483E+04	  -1.889620E+04	   2.505697E+05	  -4.708375E+04	  -6.098710E+04	  -1.854770E+04	  -1.060030E+04	  -1.882473E+04	   2.352040E+05	  -5.064106E+04	  -6.761845E+04	  -1.887266E+04	  -9.804443E+03	  -1.822663E+04	   2.147698E+05	  -5.194800E+04	  -7.099177E+04	  -1.843572E+04	  -8.650686E+03	  -1.707827E+04	   1.905643E+05	  -5.012462E+04	  -6.946782E+04	  -1.708926E+04	  -7.141070E+03	  -1.537502E+04	   1.625702E+05	  -4.474670E+04	  -6.220612E+04	  -1.475355E+04	  -5.279567E+03	  -1.312001E+04	   1.308166E+05	  -3.542448E+04	  -4.842182E+04	  -1.135927E+04	  -3.070687E+03	  -1.030354E+04	   9.526846E+04	  -2.169644E+04	  -2.721126E+04	  -6.817772E+03	  -5.137424E+02	  -6.928468E+03	   5.594196E+04	  -3.141083E+03	   2.262114E+03	  -1.052347E+03	   2.104733E+03	  -3.362989E+03	   1.684347E+04	   1.831954E+04	   3.700649E+04	   5.330406E+03	   3.420947E+05	   6.064405E+05	   6.219903E+04	   1.028645E+06	  -6.315671E+05	   5.002336E+05	   2.347771E+04	   4.161958E+04	   4.268675E+03	   1.084301E+04	  -1.034750E+04	   4.125161E+04
    0.3000	   4.667075E-01	   7.727179E+04	   2.071308E+04	   6.919026E+06	  -4.479615E+06	   1.037520E+07	  -9.678816E+05	  -1.112855E+04	  -1.883446E+04	   2.504945E+05	  -4.742390E+04	  -6.162046E+04	  -1.859534E+04	  -1.071687E+04	  -1.875222E+04	   2.351251E+05	  -5.080105E+04	  -6.790485E+04	  -1.889234E+04	  -9.923372E+03	  -1.814278E+04	   2.146872E+05	  -5.187953E+04	  -7.085223E+04	  -1.841718E+04	  -8.771141E+03	  -1.698368E+04	   1.904786E+05	  -4.979715E+04	  -6.885822E+04	  -1.702490E+04	  -7.261916E+03	  -1.527053E+04	   1.624823E+05	  -4.413142E+04	  -6.108541E+04	  -1.463611E+04	  -5.399989E+03	  -1.300633E+04	   1.307270E+05	  -3.449611E+04	  -4.675506E+04	  -1.118216E+04	  -3.189125E+03	  -1.018192E+04	   9.517830E+04	  -2.043222E+04	  -2.496783E+04	  -6.574967E+03	  -6.293926E+02	  -6.799728E+03	   5.585185E+04	  -1.521936E+03	   5.106678E+03	  -7.385217E+02	   1.993272E+03	  -3.229167E+03	   1.675460E+04	   2.027444E+04	   4.041293E+04	   5.712606E+03	   3.416757E+05	   6.056979E+05	   6.212286E+04	   1.029906E+06	  -6.323904E+05	   5.013254E+05	   1.989464E+04	   3.526777E+04	   3.617207E+03	   7.316441E+03	  -8.043748E+03	   3.818612E+04
    0.3500	   3.884562E-01	   6.789150E+04	   1.819431E+04	   6.914400E+06	  -4.478860E+06	   1.043098E+07	  -9.180611E+05	  -1.124343E+04	  -1.877555E+04	   2.504193E+05	  -4.782435E+04	  -6.236961E+04	  -1.865213E+04	  -1.083485E+04	  -1.868239E+04	   2.350459E+05	  -5.102577E+04	  -6.831447E+04	  -1.892203E+04	  -1.004402E+04	  -1.806142E+04	   2.146041E+05	  -5.188025E+04	  -7.084334E+04	  -1.840955E+04	  -8.893641E+03	  -1.689134E+04	   1.903922E+05	  -4.954270E+04	  -6.838548E+04	  -1.697222E+04	  -7.385170E+03	  -1.516800E+04	   1.623934E+05	  -4.359236E+04	  -6.010666E+04	  -1.453102E+04	  -5.523167E+03	  -1.289431E+04	   1.306362E+05	  -3.364631E+04	  -4.523384E+04	  -1.101790E+04	  -3.310718E+03	  -1.006161E+04	   9.508667E+04	  -1.924808E+04	  -2.287207E+04	  -6.345360E+03	  -7.485744E+02	  -6.671939E+03	   5.576000E+04	   1.663606E+01	   7.803214E+03	  -4.380423E+02	   1.877900E+03	  -3.095921E+03	   1.666371E+04	   2.214919E+04	   4.367254E+04	   6.081503E+03	   3.411236E+05	   6.047191E+05	   6.202248E+04	   1.031500E+06	  -6.334249E+05	   5.026433E+05	   1.648208E+04	   2.921824E+04	   2.996743E+03	   3.524874E+03	  -5.570691E+03	   3.492743E+04
    0.4000	   3.101093E-01	   5.844739E+04	   1.565947E+04	   6.909742E+06	  -4.481866E+06	   1.048063E+07	  -8.678844E+05	  -1.135935E+04	  -1.871953E+04	   2.503441E+05	  -4.828519E+04	  -6.323370E+04	  -1.871829E+04	  -1.095414E+04	  -1.861532E+04	   2.349665E+05	  -5.131541E+04	  -6.884671E+04	  -1.896198E+04	  -1.016629E+04	  -1.798262E+04	   2.145207E+05	  -5.195054E+04	  -7.096480E+04	  -1.841309E+04	  -9.018067E+03	  -1.680134E+04	   1.903053E+05	  -4.936179E+04	  -6.804962E+04	  -1.693153E+04	  -7.510713E+03	  -1.506754E+04	   1.623038E+05	  -4.313024E+04	  -5.927027E+04	  -1.443860E+04	  -5.648984E+03	  -1.278407E+04	   1.305444E+05	  -3.287600E+04	  -4.385894E+04	  -1.086686E+04	  -3.435347E+03	  -9.942732E+03	   9.499367E+04	  -1.814517E+04	  -2.092515E+04	  -6.129351E+03	  -8.711752E+02	  -6.545221E+03	   5.566649E+04	   1.473244E+03	   1.035010E+04	  -1.513480E+02	   1.758729E+03	  -2.963378E+03	   1.657088E+04	   2.394218E+04	   4.678328E+04	   6.436620E+03	   3.404388E+05	   6.035052E+05	   6.189797E+04	   1.033391E+06	  -6.346474E+05	   5.041620E+05	   1.324320E+04	   2.347659E+04	   2.407855E+03	  -4.859358E+02	  -2.957402E+03	   3.150732E+04
    0.4500	   2.316856E-01	   4.892727E+04	   1.310524E+04	   6.905496E+06	  -4.478959E+06	   1.051740E+07	  -8.170242E+05	  -1.147622E+04	  -1.866645E+04	   2.502690E+05	  -4.880646E+04	  -6.421186E+04	  -1.879404E+04	  -1.107462E+04	  -1.855106E+04	   2.348871E+05	  -5.167016E+04	  -6.950090E+04	  -1.901243E+04	  -1.029004E+04	  -1.790646E+04	   2.144370E+05	  -5.209069E+04	  -7.121620E+04	  -1.842807E+04	  -9.144305E+03	  -1.671377E+04	   1.902180E+05	  -4.925491E+04	  -6.785058E+04	  -1.690311E+04	  -7.638427E+03	  -1.496924E+04	   1.622133E+05	  -4.274573E+04	  -5.857649E+04	  -1.435919E+04	  -5.777319E+03	  -1.267571E+04	   1.304515E+05	  -3.218605E+04	  -4.263100E+04	  -1.072940E+04	  -3.562896E+03	  -9.825395E+03	   9.489939E+04	  -1.712457E+04	  -1.912815E+04	  -5.927334E+03	  -9.970772E+02	  -6.419692E+03	   5.557142E+04	   2.846556E+03	   1.274583E+04	   1.211273E+02	   1.594486E+03	  -2.873196E+03	   1.691182E+04	   2.494953E+04	   4.823811E+04	   6.567218E+03	   3.396220E+05	   6.020572E+05	   6.174946E+04	   1.035542E+06	  -6.360348E+05	   5.058563E+05	   1.020126E+04	   1.808405E+04	   1.854774E+03	  -4.650566E+03	  -2.603490E+02	   2.811652E+04
    0.5000	   1.532048E-01	   3.928094E+04	   1.051804E+04	   6.902941E+06	  -4.442571E+06	   1.052212E+07	  -7.644921E+05	  -1.159392E+04	  -1.861636E+04	   2.501940E+05	  -4.938816E+04	  -6.530309E+04	  -1.887959E+04	  -1.119617E+04	  -1.848967E+04	   2.348077E+05	  -5.209013E+04	  -7.027630E+04	  -1.907361E+04	  -1.041517E+04	  -1.783301E+04	   2.143532E+05	  -5.230099E+04	  -7.159709E+04	  -1.845475E+04	  -9.272230E+03	  -1.662870E+04	   1.901301E+05	  -4.922252E+04	  -6.778820E+04	  -1.688725E+04	  -7.768189E+03	  -1.487319E+04	   1.621222E+05	  -4.243945E+04	  -5.802551E+04	  -1.429309E+04	  -5.908051E+03	  -1.256933E+04	   1.303578E+05	  -3.157731E+04	  -4.155062E+04	  -1.060586E+04	  -3.693241E+03	  -9.709709E+03	   9.480392E+04	  -1.618736E+04	  -1.748203E+04	  -5.739699E+03	  -1.126158E+03	  -6.295474E+03	   5.547488E+04	   4.135271E+03	   1.498898E+04	   3.789507E+02	   1.282756E+03	  -2.930719E+03	   1.878141E+04	   2.298858E+04	   4.459228E+04	   5.936661E+03	   3.386739E+05	   6.003765E+05	   6.157708E+04	   1.037917E+06	  -6.375634E+05	   5.077011E+05	   7.418640E+03	   1.315123E+04	   1.348844E+03	  -8.855467E+03	   2.406207E+03	   2.524455E+04
    0.5500	   7.468608E-02	   2.952921E+04	   7.903217E+03	   6.901940E+06	  -4.376847E+06	   1.049771E+07	  -7.105888E+05	  -1.171234E+04	  -1.856931E+04	   2.501193E+05	  -5.003027E+04	  -6.650636E+04	  -1.897514E+04	  -1.131869E+04	  -1.843122E+04	   2.347284E+05	  -5.257540E+04	  -7.117207E+04	  -1.914574E+04	  -1.054156E+04	  -1.776234E+04	   2.142692E+05	  -5.258167E+04	  -7.210690E+04	  -1.849338E+04	  -9.401724E+03	  -1.654622E+04	   1.900420E+05	  -4.926500E+04	  -6.786225E+04	  -1.688424E+04	  -7.899875E+03	  -1.477949E+04	   1.620306E+05	  -4.221198E+04	  -5.761744E+04	  -1.424063E+04	  -6.041053E+03	  -1.246503E+04	   1.302632E+05	  -3.105057E+04	  -4.061825E+04	  -1.049660E+04	  -3.826258E+03	  -9.595783E+03	   9.470734E+04	  -1.533452E+04	  -1.598767E+04	  -5.566830E+03	  -1.258293E+03	  -6.172684E+03	   5.537695E+04	   5.338147E+03	   1.707824E+04	   6.216971E+02	   9.570869E+02	  -3.005955E+03	   2.080070E+04	   2.065906E+04	   4.051911E+04	   5.237455E+03	   3.375954E+05	   5.984646E+05	   6.138099E+04	   1.040478E+06	  -6.392104E+05	   5.096713E+05	   4.893137E+03	   8.674197E+03	   8.896613E+02	  -1.303411E+04	   5.006604E+03	   2.287320E+04
    0.6000	  -3.850810E-03	   1.969913E+04	   5.267778E+03	   6.902236E+06	  -4.288266E+06	   1.044874E+07	  -6.557147E+05	  -1.183137E+04	  -1.852534E+04	   2.500449E+05	  -5.073271E+04	  -6.782058E+04	  -1.908089E+04	  -1.144206E+04	  -1.837576E+04	   2.346492E+05	  -5.312601E+04	  -7.218732E+04	  -1.922904E+04	  -1.066908E+04	  -1.769452E+04	   2.141852E+05	  -5.293291E+04	  -7.274502E+04	  -1.854420E+04	  -9.532660E+03	  -1.646641E+04	   1.899536E+05	  -4.938271E+04	  -6.807238E+04	  -1.689433E+04	  -8.033360E+03	  -1.468822E+04	   1.619384E+05	  -4.206387E+04	  -5.735226E+04	  -1.420209E+04	  -6.176200E+03	  -1.236292E+04	   1.301679E+05	  -3.060655E+04	  -3.983429E+04	  -1.040196E+04	  -3.961818E+03	  -9.483728E+03	   9.460977E+04	  -1.456702E+04	  -1.464584E+04	  -5.409106E+03	  -1.393357E+03	  -6.051436E+03	   5.527773E+04	   6.453993E+03	   1.901241E+04	   8.489461E+02	   6.456503E+02	  -3.071516E+03	   2.267883E+04	   1.858935E+04	   3.690967E+04	   4.614286E+03	   3.363875E+05	   5.963232E+05	   6.116136E+04	   1.043190E+06	  -6.409525E+05	   5.117419E+05	   2.617199E+03	   4.639580E+03	   4.758543E+02	  -1.712729E+04	   7.513113E+03	   2.094725E+04
    0.6500	  -8.238699E-02	   9.818918E+03	   2.619117E+03	   6.903564E+06	  -4.183282E+06	   1.037975E+07	  -6.002741E+05	  -1.195088E+04	  -1.848451E+04	   2.499708E+05	  -5.149535E+04	  -6.924455E+04	  -1.919703E+04	  -1.156615E+04	  -1.832334E+04	   2.345702E+05	  -5.374196E+04	  -7.332109E+04	  -1.932372E+04	  -1.079762E+04	  -1.762961E+04	   2.141012E+05	  -5.335485E+04	  -7.351071E+04	  -1.860743E+04	  -9.664917E+03	  -1.638934E+04	   1.898651E+05	  -4.957595E+04	  -6.841820E+04	  -1.691780E+04	  -8.168517E+03	  -1.459948E+04	   1.618459E+05	  -4.199559E+04	  -5.722990E+04	  -1.417779E+04	  -6.313362E+03	  -1.226308E+04	   1.300720E+05	  -3.024596E+04	  -3.919900E+04	  -1.032226E+04	  -4.099793E+03	  -9.373646E+03	   9.451127E+04	  -1.388576E+04	  -1.345720E+04	  -5.266897E+03	  -1.531219E+03	  -5.931846E+03	   5.517733E+04	   7.481664E+03	   2.079040E+04	   1.060284E+03	   3.489502E+02	  -3.127410E+03	   2.441370E+04	   1.676787E+04	   3.374241E+04	   4.063943E+03	   3.350512E+05	   5.939544E+05	   6.091841E+04	   1.046016E+06	  -6.427669E+05	   5.138882E+05	   5.827902E+02	   1.033128E+03	   1.059619E+02	  -2.107957E+04	   9.899977E+03	   1.941289E+04
    0.7000	  -1.609028E-01	  -8.261037E+01	  -3.544959E+01	   6.905648E+06	  -4.068201E+06	   1.029516E+07	  -5.446704E+05	  -1.207077E+04	  -1.844684E+04	   2.498973E+05	  -5.231804E+04	  -7.077704E+04	  -1.932373E+04	  -1.169085E+04	  -1.827401E+04	   2.344916E+05	  -5.442320E+04	  -7.457232E+04	  -1.942997E+04	  -1.092704E+04	  -1.756768E+04	   2.140173E+05	  -5.384758E+04	  -7.440320E+04	  -1.868331E+04	  -9.798368E+03	  -1.631509E+04	   1.897765E+05	  -4.984497E+04	  -6.889920E+04	  -1.695490E+04	  -8.305218E+03	  -1.451333E+04	   1.617531E+05	  -4.200759E+04	  -5.725018E+04	  -1.416800E+04	  -6.452409E+03	  -1.216561E+04	   1.299755E+05	  -2.996943E+04	  -3.871258E+04	  -1.025784E+04	  -4.240051E+03	  -9.265644E+03	   9.441194E+04	  -1.329159E+04	  -1.242234E+04	  -5.140569E+03	  -1.678568E+03	  -5.820849E+03	   5.514745E+04	   8.302534E+03	   2.216662E+04	   1.220810E+03	   6.746056E+01	  -3.173646E+03	   2.600335E+04	   1.518238E+04	   3.099457E+04	   3.583031E+03	   3.335879E+05	   5.913604E+05	   6.065234E+04	   1.048921E+06	  -6.446308E+05	   5.160856E+05	  -1.218574E+03	  -2.160200E+03	  -2.215590E+02	  -2.483952E+04	   1.214353E+04	   1.821795E+04
    0.7500	  -2.393788E-01	  -9.975646E+03	  -2.688201E+03	   6.908208E+06	  -3.949242E+06	   1.019931E+07	  -4.893057E+05	  -1.219093E+04	  -1.841238E+04	   2.498242E+05	  -5.320057E+04	  -7.241674E+04	  -1.946115E+04	  -1.181605E+04	  -1.822783E+04	   2.344134E+05	  -5.516963E+04	  -7.593991E+04	  -1.954798E+04	  -1.105724E+04	  -1.750878E+04	   2.139337E+05	  -5.441114E+04	  -7.542162E+04	  -1.877205E+04	  -9.932886E+03	  -1.624372E+04	   1.896879E+05	  -5.019000E+04	  -6.951480E+04	  -1.700587E+04	  -8.443331E+03	  -1.442988E+04	   1.616600E+05	  -4.210023E+04	  -5.741282E+04	  -1.417300E+04	  -6.593207E+03	  -1.207061E+04	   1.298785E+05	  -2.977756E+04	  -3.837512E+04	  -1.020901E+04	  -4.382458E+03	  -9.159822E+03	   9.431189E+04	  -1.278532E+04	  -1.154172E+04	  -5.030479E+03	  -1.851933E+03	  -5.735848E+03	   5.536742E+04	   8.580922E+03	   2.256437E+04	   1.243318E+03	  -1.983723E+02	  -3.210240E+03	   2.744602E+04	   1.382000E+04	   2.864221E+04	   3.167978E+03	   3.319988E+05	   5.885434E+05	   6.036342E+04	   1.051869E+06	  -6.465219E+05	   5.183100E+05	  -2.795817E+03	  -4.956222E+03	  -5.083304E+02	  -2.836000E+04	   1.422234E+04	   1.731218E+04
    0.8000	  -3.177957E-01	  -1.982968E+04	  -5.331147E+03	   6.910948E+06	  -3.832479E+06	   1.009645E+07	  -4.345759E+05	  -1.231124E+04	  -1.838116E+04	   2.497517E+05	  -5.414269E+04	  -7.416228E+04	  -1.960945E+04	  -1.194162E+04	  -1.818483E+04	   2.343355E+05	  -5.598111E+04	  -7.742266E+04	  -1.967793E+04	  -1.118809E+04	  -1.745297E+04	   2.138503E+05	  -5.504555E+04	  -7.656502E+04	  -1.887386E+04	  -1.006834E+04	  -1.617531E+04	   1.895994E+05	  -5.061118E+04	  -7.026434E+04	  -1.707095E+04	  -8.582727E+03	  -1.434919E+04	   1.615668E+05	  -4.227388E+04	  -5.771748E+04	  -1.419307E+04	  -6.735625E+03	  -1.197816E+04	   1.297813E+05	  -2.967088E+04	  -3.818664E+04	  -1.017608E+04	  -4.526879E+03	  -9.056283E+03	   9.421121E+04	  -1.236770E+04	  -1.081571E+04	  -4.936972E+03	  -2.063042E+03	  -5.690828E+03	   5.597539E+04	   8.052862E+03	   2.156430E+04	   1.062331E+03	  -4.481355E+02	  -3.237212E+03	   2.874008E+04	   1.266725E+04	   2.666036E+04	   2.815048E+03	   3.302855E+05	   5.855061E+05	   6.005190E+04	   1.054825E+06	  -6.484180E+05	   5.205374E+05	  -4.158271E+03	  -7.371480E+03	  -7.560493E+02	  -3.159845E+04	   1.611733E+04	   1.664748E+04
    0.8500	  -3.961344E-01	  -2.961364E+04	  -7.956111E+03	   6.913572E+06	  -3.723794E+06	   9.990683E+06	  -3.808683E+05	  -1.243159E+04	  -1.835321E+04	   2.496799E+05	  -5.514411E+04	  -7.601222E+04	  -1.976878E+04	  -1.206744E+04	  -1.814507E+04	   2.342583E+05	  -5.685746E+04	  -7.901933E+04	  -1.981997E+04	  -1.131946E+04	  -1.740030E+04	   2.137674E+05	  -5.575074E+04	  -7.783238E+04	  -1.898892E+04	  -1.020461E+04	  -1.610993E+04	   1.895111E+05	  -5.110863E+04	  -7.114707E+04	  -1.715037E+04	  -8.723271E+03	  -1.427134E+04	   1.614736E+05	  -4.252879E+04	  -5.816372E+04	  -1.422846E+04	  -6.879524E+03	  -1.188836E+04	   1.296837E+05	  -2.964987E+04	  -3.814702E+04	  -1.015935E+04	  -4.673175E+03	  -8.955124E+03	   9.410999E+04	  -1.203943E+04	  -1.024460E+04	  -4.860389E+03	  -2.288482E+03	  -5.665545E+03	   5.674663E+04	   7.138895E+03	   1.993084E+04	   7.905142E+02	  -6.814469E+02	  -3.254584E+03	   2.988410E+04	   1.171009E+04	   2.502300E+04	   2.520354E+03	   3.284494E+05	   5.822512E+05	   5.971807E+04	   1.057756E+06	  -6.502975E+05	   5.227444E+05	  -5.315647E+03	  -9.423193E+03	  -9.664814E+02	  -3.451704E+04	   1.781185E+04	   1.617817E+04
    0.9000	  -4.743753E-01	  -3.929609E+04	  -1.055479E+04	   6.915776E+06	  -3.628835E+06	   9.885925E+06	  -3.285581E+05	  -1.255186E+04	  -1.832856E+04	   2.496088E+05	  -5.620448E+04	  -7.796505E+04	  -1.993926E+04	  -1.219340E+04	  -1.810857E+04	   2.341816E+05	  -5.779843E+04	  -8.072858E+04	  -1.997427E+04	  -1.145122E+04	  -1.735084E+04	   2.136848E+05	  -5.652662E+04	  -7.922260E+04	  -1.911742E+04	  -1.034156E+04	  -1.604762E+04	   1.894231E+05	  -5.168240E+04	  -7.216216E+04	  -1.724433E+04	  -8.864832E+03	  -1.419641E+04	   1.613804E+05	  -4.286522E+04	  -5.875099E+04	  -1.427942E+04	  -7.024770E+03	  -1.180128E+04	   1.295860E+05	  -2.971497E+04	  -3.825609E+04	  -1.015910E+04	  -4.821208E+03	  -8.856441E+03	   9.400833E+04	  -1.180114E+04	  -9.828562E+03	  -4.801059E+03	  -2.503721E+03	  -5.637579E+03	   5.743757E+04	   6.289581E+03	   1.845671E+04	   5.462246E+02	  -8.979537E+02	  -3.262383E+03	   3.087677E+04	   1.093401E+04	   2.370326E+04	   2.279872E+03	   3.264923E+05	   5.787818E+05	   5.936224E+04	   1.060627E+06	  -6.521391E+05	   5.249079E+05	  -6.278007E+03	  -1.112919E+04	  -1.141456E+03	  -3.708296E+04	   1.929180E+04	   1.586118E+04
    0.9500	  -5.524990E-01	  -4.884550E+04	  -1.311883E+04	   6.917253E+06	  -3.552974E+06	   9.785903E+06	  -2.780047E+05	  -1.267194E+04	  -1.830723E+04	   2.495385E+05	  -5.732343E+04	  -8.001921E+04	  -2.012101E+04	  -1.231937E+04	  -1.807537E+04	   2.341056E+05	  -5.880375E+04	  -8.254901E+04	  -2.014096E+04	  -1.158326E+04	  -1.730461E+04	   2.136028E+05	  -5.737303E+04	  -8.073452E+04	  -1.925952E+04	  -1.047906E+04	  -1.598846E+04	   1.893354E+05	  -5.233250E+04	  -7.330871E+04	  -1.735304E+04	  -9.007274E+03	  -1.412447E+04	   1.612873E+05	  -4.328333E+04	  -5.947868E+04	  -1.434619E+04	  -7.171223E+03	  -1.171702E+04	   1.294882E+05	  -2.986656E+04	  -3.851356E+04	  -1.017561E+04	  -4.970836E+03	  -8.760328E+03	   9.390633E+04	  -1.165342E+04	  -9.567679E+03	  -4.759300E+03	  -2.701344E+03	  -5.600112E+03	   5.797428E+04	   5.647084E+03	   1.734575E+04	   3.623678E+02	  -1.097338E+03	  -3.260639E+03	   3.171698E+04	   1.032400E+04	   2.267341E+04	   2.089449E+03	   3.244160E+05	   5.751011E+05	   5.898473E+04	   1.063406E+06	  -6.539219E+05	   5.270053E+05	  -7.055741E+03	  -1.250791E+04	  -1.282862E+03	  -3.926851E+04	   2.054570E+04	   1.565628E+04
    1.0000	  -6.304863E-01	  -5.823038E+04	  -1.563990E+04	   6.917694E+06	  -3.501284E+06	   9.694115E+06	  -2.295493E+05	  -1.279171E+04	  -1.828925E+04	   2.494690E+05	  -5.850051E+04	  -8.217307E+04	  -2.031414E+04	  -1.244523E+04	  -1.804552E+04	   2.340303E+05	  -5.987307E+04	  -8.447916E+04	  -2.032018E+04	  -1.171544E+04	  -1.726168E+04	   2.135214E+05	  -5.828977E+04	  -8.236686E+04	  -1.941539E+04	  -1.061698E+04	  -1.593251E+04	   1.892481E+05	  -5.305888E+04	  -7.458572E+04	  -1.747669E+04	  -9.150463E+03	  -1.405559E+04	   1.611945E+05	  -4.378325E+04	  -6.034609E+04	  -1.442899E+04	  -7.318745E+03	  -1.163564E+04	   1.293904E+05	  -3.010495E+04	  -3.891907E+04	  -1.020914E+04	  -5.121917E+03	  -8.666877E+03	   9.380408E+04	  -1.159680E+04	  -9.461937E+03	  -4.735420E+03	  -2.881105E+03	  -5.553199E+03	   5.835616E+04	   5.195707E+03	   1.656900E+04	   2.345836E+02	  -1.279316E+03	  -3.249385E+03	   3.240380E+04	   9.864682E+03	   2.190500E+04	   1.944820E+03	   3.222224E+05	   5.712124E+05	   5.858589E+04	   1.066061E+06	  -6.556255E+05	   5.290148E+05	  -7.659539E+03	  -1.357827E+04	  -1.392643E+03	  -4.105134E+04	   2.156473E+04	   1.552622E+04
    1.0500	  -7.083184E-01	  -6.741939E+04	  -1.810966E+04	   6.916790E+06	  -3.478511E+06	   9.613826E+06	  -1.835130E+05	  -1.291106E+04	  -1.827463E+04	   2.494005E+05	  -5.973524E+04	  -8.442494E+04	  -2.051875E+04	  -1.257088E+04	  -1.801902E+04	   2.339559E+05	  -6.100603E+04	  -8.651751E+04	  -2.051203E+04	  -1.184764E+04	  -1.722208E+04	   2.134406E+05	  -5.927659E+04	  -8.411832E+04	  -1.958516E+04	  -1.075519E+04	  -1.587981E+04	   1.891613E+05	  -5.386145E+04	  -7.599212E+04	  -1.761545E+04	  -9.294261E+03	  -1.398983E+04	   1.611020E+05	  -4.436505E+04	  -6.135244E+04	  -1.452803E+04	  -7.467195E+03	  -1.155724E+04	   1.292927E+05	  -3.043041E+04	  -3.947216E+04	  -1.025996E+04	  -5.274324E+03	  -8.576314E+03	   9.370267E+04	  -1.163324E+04	  -9.514813E+03	  -4.730226E+03	  -3.042795E+03	  -5.496896E+03	   5.858280E+04	   4.919402E+03	   1.609685E+04	   1.584151E+02	  -1.443636E+03	  -3.228659E+03	   3.293645E+04	   9.540296E+03	   2.136895E+04	   1.841620E+03	   3.199135E+05	   5.671194E+05	   5.816609E+04	   1.068560E+06	  -6.572302E+05	   5.309149E+05	  -8.100355E+03	  -1.435972E+04	  -1.472792E+03	  -4.241450E+04	   2.234285E+04	   1.543697E+04
    1.1000	  -7.859755E-01	  -7.638155E+04	  -2.051988E+04	   6.914232E+06	  -3.489054E+06	   9.548042E+06	  -1.401945E+05	  -1.302988E+04	  -1.826340E+04	   2.493330E+05	  -6.102709E+04	  -8.677306E+04	  -2.073490E+04	  -1.269617E+04	  -1.799593E+04	   2.338824E+05	  -6.220218E+04	  -8.866245E+04	  -2.071662E+04	  -1.197974E+04	  -1.718585E+04	   2.133606E+05	  -6.033318E+04	  -8.598750E+04	  -1.976897E+04	  -1.089356E+04	  -1.583041E+04	   1.890752E+05	  -5.474003E+04	  -7.752676E+04	  -1.776949E+04	  -9.438531E+03	  -1.392726E+04	   1.610098E+05	  -4.502873E+04	  -6.249683E+04	  -1.464352E+04	  -7.616432E+03	  -1.148188E+04	   1.291952E+05	  -3.084314E+04	  -4.017228E+04	  -1.032830E+04	  -5.421744E+03	  -8.484185E+03	   9.354831E+04	  -1.166704E+04	  -9.551823E+03	  -4.718351E+03	  -3.186236E+03	  -5.431266E+03	   5.865394E+04	   4.801827E+03	   1.589918E+04	   1.293236E+02	  -1.590079E+03	  -3.198500E+03	   3.331432E+04	   9.334784E+03	   2.103562E+04	   1.775397E+03	   3.174914E+05	   5.628257E+05	   5.772571E+04	   1.070874E+06	  -6.587168E+05	   5.326847E+05	  -8.389383E+03	  -1.487209E+04	  -1.525342E+03	  -4.334657E+04	   2.287675E+04	   1.535781E+04
    1.1500	  -8.634387E-01	  -8.508648E+04	  -2.286244E+04	   6.909714E+06	  -3.536939E+06	   9.499500E+06	  -9.986784E+04	  -1.314804E+04	  -1.825556E+04	   2.492665E+05	  -6.237549E+04	  -8.921562E+04	  -2.096266E+04	  -1.282101E+04	  -1.797624E+04	   2.338098E+05	  -6.346104E+04	  -9.091232E+04	  -2.093404E+04	  -1.211161E+04	  -1.715302E+04	   2.132815E+05	  -6.145919E+04	  -8.797294E+04	  -1.996694E+04	  -1.103195E+04	  -1.578437E+04	   1.889897E+05	  -5.569443E+04	  -7.918841E+04	  -1.793895E+04	  -9.583140E+03	  -1.386794E+04	   1.609182E+05	  -4.577426E+04	  -6.377831E+04	  -1.477564E+04	  -7.766315E+03	  -1.140964E+04	   1.290980E+05	  -3.134330E+04	  -4.101877E+04	  -1.041438E+04	  -5.549121E+03	  -8.378622E+03	   9.320437E+04	  -1.144903E+04	  -9.146169E+03	  -4.635593E+03	  -3.311287E+03	  -5.356371E+03	   5.856949E+04	   4.826388E+03	   1.594544E+04	   1.427007E+02	  -1.718464E+03	  -3.158951E+03	   3.353700E+04	   9.231829E+03	   2.087493E+04	   1.741627E+03	   3.149584E+05	   5.583354E+05	   5.726517E+04	   1.072972E+06	  -6.600666E+05	   5.343042E+05	  -8.538028E+03	  -1.513560E+04	  -1.552369E+03	  -4.384178E+04	   2.316598E+04	   1.526148E+04