
Linearized model: Predictions were generated on 17-Mar-2022 at 12:26:38 using OpenFAST, compiled as a 64-bit application using double precision at commit v3.1.0-55-gaeae69fe-dirty
 linked with  NWTC Subroutine Library; ElastoDyn; ServoDyn

Description from the FAST input file: FAST Certification Test #25: NREL 5.0 MW Baseline Wind Turbine with OC4-DeepCwind semi configuration, for use in offshore analysis

Simulation information:
   Simulation time:                     0.0000 s
   Rotor Speed:                         1.2566 rad/s
   Azimuth:                             0.0000 rad
   Wind Speed:                          0.0000 m/s
   Number of continuous states:         8
   Number of discrete states:           0
   Number of constraint states:         0
   Number of inputs:                    6
   Number of outputs:                  19
   Jacobians included in this file?    No

Order of continuous states:
   Row/Column Operating Point                     Rotating Frame? Derivative Order Description
   ---------- ---------------                     --------------- ---------------- -----------
          1    0.000E+00                                 F               2         SrvD Tower StC 1 local displacement state X  m
          2    0.000E+00                                 F               2         SrvD Tower StC 1 local displacement state Y  m
          3    0.000E+00                                 F               2         SrvD Tower StC 1 local displacement state Z  m
          4    0.000E+00                                 F               2         SrvD Tower StC 1 local displacement state dX/dt  m/s
          5    0.000E+00                                 F               2         SrvD Tower StC 1 local displacement state dY/dt  m/s
          6    0.000E+00                                 F               2         SrvD Tower StC 1 local displacement state dZ/dt  m/s
          7    0.000E+00                                 F               2         ED Platform pitch tilt rotation DOF (internal DOF index = DOF_P), rad
          8    0.000E+00                                 F               2         ED First time derivative of Platform pitch tilt rotation DOF (internal DOF index = DOF_P), rad/s

Order of continuous state derivatives:
   Row/Column Operating Point                     Rotating Frame? Derivative Order Description
   ---------- ---------------                     --------------- ---------------- -----------
          1    0.000E+00                                 F               2         First time derivative of SrvD Tower StC 1 local displacement state X  m/s
          2    0.000E+00                                 F               2         First time derivative of SrvD Tower StC 1 local displacement state Y  m/s
          3    0.000E+00                                 F               2         First time derivative of SrvD Tower StC 1 local displacement state Z  m/s
          4    1.941E-02                                 F               2         First time derivative of SrvD Tower StC 1 local displacement state dX/dt  m/s/s
          5    0.000E+00                                 F               2         First time derivative of SrvD Tower StC 1 local displacement state dY/dt  m/s/s
          6    0.000E+00                                 F               2         First time derivative of SrvD Tower StC 1 local displacement state dZ/dt  m/s/s
          7    0.000E+00                                 F               2         First time derivative of ED Platform pitch tilt rotation DOF (internal DOF index = DOF_P), rad/s
          8   -2.216E-04                                 F               2         First time derivative of ED First time derivative of Platform pitch tilt rotation DOF (internal DOF index = DOF_P), rad/s/s

Order of inputs:
     Column   Operating Point                     Rotating Frame? Derivative Order Description
   ---------- ---------------                     --------------- ---------------- -----------
          1    0.000E+00                                 T               0         ED Blade 1 pitch command, rad
          2    0.000E+00                                 T               0         ED Blade 2 pitch command, rad
          3    0.000E+00                                 T               0         ED Blade 3 pitch command, rad
          4   -0.000E+00                                 F               0         ED Yaw moment, Nm
          5    7.126E+00                                 F               0         ED Generator torque, Nm
          6    0.000E+00                                 F               0         ED Extended input: collective blade-pitch command, rad

Order of outputs:
        Row   Operating Point                     Rotating Frame? Derivative Order Description
   ---------- ---------------                     --------------- ---------------- -----------
          1   -5.182E+00                                 F               0         SrvD GenPwr, (kW)
          2    7.126E-03                                 F               0         SrvD GenTq, (kN-m)
          3    0.000E+00                                 F               0         SrvD SStC1_ZQ, INVALID
          4    0.000E+00                                 F               0         SrvD SStC1_ZQD, INVALID
          5    0.000E+00                                 F               0         SrvD SStC1_Fzl, INVALID
          6    0.000E+00                                 F               0         SrvD NStC1_XQ, INVALID
          7    0.000E+00                                 F               0         SrvD NStC1_XQD, INVALID
          8    0.000E+00                                 F               0         SrvD NStC1_Fxl, INVALID
          9    0.000E+00                                 F               0         SrvD TStC1_XQ, (m)
         10    0.000E+00                                 F               0         SrvD TStC1_XQD, (m/s)
         11    0.000E+00                                 F               0         SrvD TStC1_Fxl, (kN)
         12    0.000E+00                                 F               0         ED PtfmSurge, (m)
         13    0.000E+00                                 F               0         ED PtfmSway, (m)
         14    0.000E+00                                 F               0         ED PtfmHeave, (m)
         15    0.000E+00                                 F               0         ED PtfmRoll, (deg)
         16    0.000E+00                                 F               0         ED PtfmPitch, (deg)
         17    0.000E+00                                 F               0         ED PtfmYaw, (deg)
         18   -1.429E-12                                 F               0         ED YawBrMzp, (kN-m)
         19    0.000E+00                                 F               0         ED TTDspFA, (m)


Linearized state matrices:

A: 8 x 8
    0.000E+00  0.000E+00  0.000E+00  1.000E+00  0.000E+00  0.000E+00  0.000E+00  0.000E+00
    0.000E+00  0.000E+00  0.000E+00  0.000E+00  0.000E+00  0.000E+00  0.000E+00  0.000E+00
    0.000E+00  0.000E+00  0.000E+00  0.000E+00  0.000E+00  0.000E+00  0.000E+00  0.000E+00
   -1.000E-01  0.000E+00  0.000E+00 -1.000E-02  0.000E+00  0.000E+00  8.602E+00  2.982E-16
    0.000E+00  0.000E+00  0.000E+00  0.000E+00  0.000E+00  0.000E+00  0.000E+00  0.000E+00
    0.000E+00  0.000E+00  0.000E+00  0.000E+00  0.000E+00  0.000E+00  0.000E+00  0.000E+00
    0.000E+00  0.000E+00  0.000E+00  0.000E+00  0.000E+00  0.000E+00  0.000E+00  1.000E+00
    0.000E+00  0.000E+00  0.000E+00  0.000E+00  0.000E+00  0.000E+00  1.371E-02 -3.494E-18
B: 8 x 6
    0.000E+00  0.000E+00  0.000E+00  0.000E+00  0.000E+00  0.000E+00
    0.000E+00  0.000E+00  0.000E+00  0.000E+00  0.000E+00  0.000E+00
    0.000E+00  0.000E+00  0.000E+00  0.000E+00  0.000E+00  0.000E+00
    0.000E+00  0.000E+00  0.000E+00  0.000E+00  0.000E+00  0.000E+00
    0.000E+00  0.000E+00  0.000E+00  0.000E+00  0.000E+00  0.000E+00
    0.000E+00  0.000E+00  0.000E+00  0.000E+00  0.000E+00  0.000E+00
    0.000E+00  0.000E+00  0.000E+00  0.000E+00  0.000E+00  0.000E+00
    0.000E+00  0.000E+00  0.000E+00  0.000E+00  0.000E+00  0.000E+00
C: 19 x 8
    0.000E+00  0.000E+00  0.000E+00  0.000E+00  0.000E+00  0.000E+00  0.000E+00  0.000E+00
    0.000E+00  0.000E+00  0.000E+00  0.000E+00  0.000E+00  0.000E+00  0.000E+00  0.000E+00
    0.000E+00  0.000E+00  0.000E+00  0.000E+00  0.000E+00  0.000E+00  0.000E+00  0.000E+00
    0.000E+00  0.000E+00  0.000E+00  0.000E+00  0.000E+00  0.000E+00  0.000E+00  0.000E+00
    0.000E+00  0.000E+00  0.000E+00  0.000E+00  0.000E+00  0.000E+00  0.000E+00  0.000E+00
    0.000E+00  0.000E+00  0.000E+00  0.000E+00  0.000E+00  0.000E+00  0.000E+00  0.000E+00
    0.000E+00  0.000E+00  0.000E+00  0.000E+00  0.000E+00  0.000E+00  0.000E+00  0.000E+00
    0.000E+00  0.000E+00  0.000E+00  0.000E+00  0.000E+00  0.000E+00  0.000E+00  0.000E+00
    1.000E+00  0.000E+00  0.000E+00  0.000E+00  0.000E+00  0.000E+00  0.000E+00  0.000E+00
    0.000E+00  0.000E+00  0.000E+00  1.000E+00  0.000E+00  0.000E+00  0.000E+00  0.000E+00
    0.000E+00  0.000E+00  0.000E+00  0.000E+00  0.000E+00  0.000E+00  0.000E+00  0.000E+00
    0.000E+00  0.000E+00  0.000E+00  0.000E+00  0.000E+00  0.000E+00  0.000E+00  0.000E+00
    0.000E+00  0.000E+00  0.000E+00  0.000E+00  0.000E+00  0.000E+00  0.000E+00  0.000E+00
    0.000E+00  0.000E+00  0.000E+00  0.000E+00  0.000E+00  0.000E+00  0.000E+00  0.000E+00
    0.000E+00  0.000E+00  0.000E+00  0.000E+00  0.000E+00  0.000E+00  0.000E+00  0.000E+00
    0.000E+00  0.000E+00  0.000E+00  0.000E+00  0.000E+00  0.000E+00  5.730E+01  0.000E+00
    0.000E+00  0.000E+00  0.000E+00  0.000E+00  0.000E+00  0.000E+00  0.000E+00  0.000E+00
    0.000E+00  0.000E+00  0.000E+00  0.000E+00  0.000E+00  0.000E+00  5.018E-12  4.848E+04
    0.000E+00  0.000E+00  0.000E+00  0.000E+00  0.000E+00  0.000E+00 -1.420E-14  0.000E+00
D: 19 x 6
    0.000E+00  0.000E+00  0.000E+00  0.000E+00  0.000E+00  0.000E+00
    0.000E+00  0.000E+00  0.000E+00  0.000E+00  0.000E+00  0.000E+00
    0.000E+00  0.000E+00  0.000E+00  0.000E+00  0.000E+00  0.000E+00
    0.000E+00  0.000E+00  0.000E+00  0.000E+00  0.000E+00  0.000E+00
    0.000E+00  0.000E+00  0.000E+00  0.000E+00  0.000E+00  0.000E+00
    0.000E+00  0.000E+00  0.000E+00  0.000E+00  0.000E+00  0.000E+00
    0.000E+00  0.000E+00  0.000E+00  0.000E+00  0.000E+00  0.000E+00
    0.000E+00  0.000E+00  0.000E+00  0.000E+00  0.000E+00  0.000E+00
    0.000E+00  0.000E+00  0.000E+00  0.000E+00  0.000E+00  0.000E+00
    0.000E+00  0.000E+00  0.000E+00  0.000E+00  0.000E+00  0.000E+00
    0.000E+00  0.000E+00  0.000E+00  0.000E+00  0.000E+00  0.000E+00
    0.000E+00  0.000E+00  0.000E+00  0.000E+00  0.000E+00  0.000E+00
    0.000E+00  0.000E+00  0.000E+00  0.000E+00  0.000E+00  0.000E+00
    0.000E+00  0.000E+00  0.000E+00  0.000E+00  0.000E+00  0.000E+00
    0.000E+00  0.000E+00  0.000E+00  0.000E+00  0.000E+00  0.000E+00
    0.000E+00  0.000E+00  0.000E+00  0.000E+00  0.000E+00  0.000E+00
    0.000E+00  0.000E+00  0.000E+00  0.000E+00  0.000E+00  0.000E+00
    0.000E+00  0.000E+00  0.000E+00  0.000E+00  0.000E+00  0.000E+00
    0.000E+00  0.000E+00  0.000E+00  0.000E+00  0.000E+00  0.000E+00
