
Predictions were generated on 21-Jun-2017 at 13:13:12 using OpenFAST (v8.17.01b-dev, 18-Jan-2017), compiled as a 64-bit application using double precision
 linked with  NWTC Subroutine Library (v2.11.02, 13-Mar-2017); ElastoDyn (v1.04.00a-bjj, 26-Jul-2016); InflowWind (v3.04.00, 31-Dec-2016); AeroDyn (v15.04.02a, 10-May-2017); ServoDyn (v1.06.00a-bjj, 26-Jul-2016)

Description from the FAST input file: FAST Certification Test #12: WindPACT 1.5 MW Baseline with many DOFs with VS and VP and ECD wind.

Time      	Wind1VelX 	Wind1VelY 	Wind1VelZ 	OoPDefl3  	IPDefl3   	TipALxb3  	TipALyb3  	Spn4ALxb1 	Spn4ALyb1 	BldPitch3 	RotAccel  	LSSGagA   	HSShftA   	RootFxb3  	RootFyb3  	RootMEdg3 	RootMFlp3 	LSShftFya 	LSShftFza 	YawBrFxp  	YawBrFyp  	TwrBsFxt  	TwrBsFyt  	RtSkew    
(s)       	(m/s)     	(m/s)     	(m/s)     	(m)       	(m)       	(m/s^2)   	(m/s^2)   	(m/s^2)   	(m/s^2)   	(deg)     	(deg/s^2) 	(deg/s^2) 	(deg/s^2) 	(kN)      	(kN)      	(kN·m)    	(kN·m)    	(kN)      	(kN)      	(kN)      	(kN)      	(kN)      	(kN)      	(deg)     
    5.0000	 1.180E+01	 0.000E+00	 0.000E+00	 1.331E+00	-4.100E-01	 1.321E+01	 4.662E-01	 3.139E+00	 1.756E-01	 7.500E+00	 6.221E-02	 6.483E-02	 5.703E+00	 6.045E+01	-4.123E+01	 4.895E+02	 1.097E+03	 2.135E+02	 1.586E+02	 1.077E+02	 5.143E+00	 8.882E+01	 9.471E+00	 5.113E+00
    5.0500	 1.180E+01	 0.000E+00	 0.000E+00	 1.382E+00	-3.031E-01	 4.929E+01	-4.626E+00	 4.425E+00	 1.165E+00	 2.600E+00	-1.097E+01	-6.489E+00	-5.708E+02	 5.919E+01	-4.482E+01	 5.325E+02	 1.095E+03	 2.290E+02	 1.352E+02	 1.097E+02	 3.192E+00	 9.134E+01	 8.431E+00	 5.326E+00
    5.1000	 1.180E+01	 0.000E+00	 0.000E+00	 1.481E+00	-3.337E-01	 2.527E+01	 7.034E+00	 7.325E+00	-1.287E-01	 2.600E+00	 1.022E+01	-7.932E-01	-6.978E+01	 5.867E+01	-3.972E+01	 5.280E+02	 1.118E+03	 2.411E+02	 1.115E+02	 1.137E+02	 5.667E+00	 9.236E+01	 2.811E+00	 5.510E+00
    5.1500	 1.180E+01	 0.000E+00	 0.000E+00	 1.609E+00	-3.473E-01	 9.248E+00	 8.038E+00	 6.925E+00	 2.258E-01	 2.600E+00	 8.147E+00	 8.479E+00	 7.458E+02	 6.207E+01	-3.869E+01	 5.181E+02	 1.200E+03	 2.518E+02	 8.691E+01	 1.192E+02	 7.412E+00	 9.553E+01	 8.161E-01	 5.585E+00
    5.2000	 1.180E+01	 0.000E+00	 0.000E+00	 1.725E+00	-3.311E-01	 1.086E+01	 2.556E+00	 3.796E+00	 3.492E-01	 2.600E+00	 5.688E-01	 2.346E+00	 2.064E+02	 7.014E+01	-3.664E+01	 4.652E+02	 1.339E+03	 2.613E+02	 5.917E+01	 1.269E+02	 2.265E+00	 1.008E+02	 6.830E+00	 5.558E+00
    5.2500	 1.180E+01	 0.000E+00	 0.000E+00	 1.828E+00	-3.064E-01	 1.483E+01	-2.513E+00	 1.159E+00	 2.494E-01	 2.600E+00	-5.318E+00	-5.674E+00	-4.991E+02	 7.753E+01	-3.357E+01	 4.037E+02	 1.465E+03	 2.670E+02	 3.037E+01	 1.366E+02	-2.778E+00	 1.061E+02	 1.107E+01	 5.470E+00
    5.3000	 1.180E+01	 0.000E+00	 0.000E+00	 1.922E+00	-2.959E-01	 1.001E+01	-2.433E+00	 1.417E+00	 3.968E-02	 2.600E+00	-4.800E+00	-5.240E+00	-4.609E+02	 7.981E+01	-2.989E+01	 3.618E+02	 1.519E+03	 2.679E+02	 2.924E+00	 1.471E+02	-2.293E+00	 1.115E+02	 6.375E+00	 5.354E+00
    5.3500	 1.180E+01	 0.000E+00	 0.000E+00	 1.993E+00	-2.987E-01	 1.745E+00	 1.117E+00	 3.568E+00	-2.403E-01	 2.600E+00	 7.431E-01	 8.083E-01	 7.110E+01	 7.803E+01	-2.567E+01	 3.335E+02	 1.511E+03	 2.653E+02	-2.321E+01	 1.571E+02	 1.699E+00	 1.202E+02	-3.564E+00	 5.242E+00
    5.4000	 1.180E+01	 0.000E+00	 0.000E+00	 2.023E+00	-2.968E-01	 1.017E+00	 3.016E+00	 5.053E+00	-4.275E-01	 2.600E+00	 4.883E+00	 5.083E+00	 4.471E+02	 7.616E+01	-2.137E+01	 2.981E+02	 1.491E+03	 2.606E+02	-4.974E+01	 1.664E+02	 3.684E+00	 1.351E+02	-9.467E+00	 5.160E+00
    5.4500	 1.180E+01	 0.000E+00	 0.000E+00	 2.007E+00	-2.781E-01	 9.565E+00	 1.131E+00	 4.953E+00	-4.196E-01	 2.600E+00	 4.131E+00	 4.214E+00	 3.707E+02	 7.616E+01	-1.724E+01	 2.455E+02	 1.483E+03	 2.536E+02	-7.755E+01	 1.758E+02	 8.306E-01	 1.551E+02	-6.588E+00	 5.119E+00
    5.5000	 1.180E+01	 0.000E+00	 0.000E+00	 1.968E+00	-2.484E-01	 1.930E+01	-2.083E+00	 4.465E+00	-2.848E-01	 2.600E+00	 9.438E-01	 8.911E-01	 7.839E+01	 7.678E+01	-1.319E+01	 1.849E+02	 1.478E+03	 2.433E+02	-1.053E+02	 1.865E+02	-4.529E+00	 1.756E+02	 8.537E-01	 5.115E+00
    5.5500	 1.180E+01	 0.000E+00	 0.000E+00	 1.927E+00	-2.213E-01	 2.296E+01	-3.323E+00	 4.799E+00	-1.591E-01	 2.600E+00	-5.151E-01	-6.064E-01	-5.334E+01	 7.591E+01	-9.076E+00	 1.308E+02	 1.454E+03	 2.297E+02	-1.307E+02	 1.988E+02	-7.909E+00	 1.932E+02	 4.614E+00	 5.138E+00
    5.6000	 1.180E+01	 0.000E+00	 0.000E+00	 1.895E+00	-2.036E-01	 2.124E+01	-2.065E+00	 5.658E+00	-1.222E-01	 2.600E+00	 7.343E-01	 7.118E-01	 6.262E+01	 7.371E+01	-4.945E+00	 8.799E+01	 1.416E+03	 2.138E+02	-1.528E+02	 2.125E+02	-7.278E+00	 2.077E+02	 6.635E-01	 5.180E+00
    5.6500	 1.180E+01	 0.000E+00	 0.000E+00	 1.869E+00	-1.907E-01	 1.957E+01	-2.996E-01	 5.938E+00	-1.603E-01	 2.600E+00	 2.391E+00	 2.457E+00	 2.161E+02	 7.187E+01	-9.862E-01	 4.987E+01	 1.384E+03	 1.965E+02	-1.724E+02	 2.263E+02	-4.518E+00	 2.217E+02	-7.679E+00	 5.235E+00
    5.7000	 1.180E+01	 0.000E+00	 0.000E+00	 1.845E+00	-1.754E-01	 2.092E+01	 1.689E-01	 5.230E+00	-1.626E-01	 2.600E+00	 2.270E+00	 2.328E+00	 2.048E+02	 7.157E+01	 2.698E+00	 8.659E+00	 1.373E+03	 1.775E+02	-1.907E+02	 2.395E+02	-3.000E+00	 2.373E+02	-1.374E+01	 5.298E+00
    5.7500	 1.180E+01	 0.000E+00	 0.000E+00	 1.827E+00	-1.564E-01	 2.333E+01	-5.653E-01	 4.233E+00	-1.231E-01	 2.600E+00	 6.021E-01	 5.812E-01	 5.113E+01	 7.236E+01	 6.143E+00	-3.593E+01	 1.378E+03	 1.563E+02	-2.080E+02	 2.515E+02	-4.332E+00	 2.548E+02	-1.370E+01	 5.364E+00
    5.8000	 1.180E+01	 0.000E+00	 0.000E+00	 1.819E+00	-1.381E-01	 2.362E+01	-1.080E+00	 3.744E+00	-8.790E-02	 2.600E+00	-6.128E-01	-6.704E-01	-5.897E+01	 7.308E+01	 9.463E+00	-7.843E+01	 1.385E+03	 1.329E+02	-2.232E+02	 2.626E+02	-7.315E+00	 2.722E+02	-9.250E+00	 5.428E+00
    5.8500	 1.180E+01	 0.000E+00	 0.000E+00	 1.823E+00	-1.245E-01	 2.144E+01	-5.823E-01	 3.760E+00	-1.103E-01	 2.600E+00	-5.894E-02	-9.900E-02	-8.709E+00	 7.327E+01	 1.277E+01	-1.156E+02	 1.389E+03	 1.081E+02	-2.357E+02	 2.731E+02	-9.592E+00	 2.876E+02	-5.125E+00	 5.487E+00
    5.9000	 1.180E+01	 0.000E+00	 0.000E+00	 1.834E+00	-1.145E-01	 1.912E+01	 3.448E-01	 3.711E+00	-1.775E-01	 2.600E+00	 1.482E+00	 1.501E+00	 1.320E+02	 7.337E+01	 1.603E+01	-1.497E+02	 1.393E+03	 8.259E+01	-2.451E+02	 2.833E+02	-9.852E+00	 2.997E+02	-4.693E+00	 5.542E+00
    5.9500	 1.180E+01	 0.000E+00	 0.000E+00	 1.847E+00	-1.039E-01	 1.853E+01	 5.852E-01	 3.292E+00	-2.560E-01	 2.600E+00	 2.290E+00	 2.338E+00	 2.056E+02	 7.395E+01	 1.910E+01	-1.848E+02	 1.403E+03	 5.677E+01	-2.519E+02	 2.931E+02	-8.579E+00	 3.090E+02	-7.719E+00	 5.592E+00
    6.0000	 1.180E+01	 0.000E+00	 0.000E+00	 1.859E+00	-9.076E-02	 1.926E+01	-1.903E-01	 2.760E+00	-3.162E-01	 2.600E+00	 1.682E+00	 1.702E+00	 1.497E+02	 7.497E+01	 2.186E+01	-2.212E+02	 1.419E+03	 3.053E+01	-2.561E+02	 3.017E+02	-7.130E+00	 3.167E+02	-1.145E+01	 5.630E+00
    6.0500	 1.180E+01	-1.545E-03	 0.000E+00	 1.872E+00	-7.740E-02	 1.983E+01	-1.268E+00	 2.521E+00	-3.655E-01	 2.600E+00	 5.746E-01	 5.505E-01	 4.843E+01	 7.597E+01	 2.422E+01	-2.545E+02	 1.435E+03	 3.809E+00	-2.579E+02	 3.085E+02	-6.474E+00	 3.237E+02	-1.317E+01	 5.652E+00
    6.1000	 1.180E+01	-3.090E-03	 0.000E+00	 1.887E+00	-6.787E-02	 1.958E+01	-1.746E+00	 2.637E+00	-4.283E-01	 2.600E+00	 2.853E-01	 2.444E-01	 2.149E+01	 7.665E+01	 2.616E+01	-2.792E+02	 1.448E+03	-2.321E+01	-2.570E+02	 3.131E+02	-6.703E+00	 3.305E+02	-1.197E+01	 5.660E+00
    6.1500	 1.181E+01	-7.729E-03	 0.000E+00	 1.904E+00	-6.400E-02	 1.913E+01	-1.381E+00	 2.870E+00	-5.173E-01	 2.600E+00	 1.157E+00	 1.148E+00	 1.010E+02	 7.719E+01	 2.763E+01	-2.937E+02	 1.460E+03	-5.011E+01	-2.532E+02	 3.159E+02	-7.298E+00	 3.363E+02	-8.838E+00	 5.661E+00
    6.2000	 1.181E+01	-1.237E-02	 0.000E+00	 1.922E+00	-6.416E-02	 1.916E+01	-7.529E-01	 2.990E+00	-6.194E-01	 2.600E+00	 2.344E+00	 2.363E+00	 2.079E+02	 7.791E+01	 2.862E+01	-3.007E+02	 1.474E+03	-7.643E+01	-2.466E+02	 3.174E+02	-7.647E+00	 3.399E+02	-5.680E+00	 5.666E+00
    6.2500	 1.182E+01	-2.012E-02	 0.000E+00	 1.941E+00	-6.558E-02	 1.962E+01	-4.925E-01	 3.026E+00	-7.037E-01	 2.600E+00	 2.841E+00	 2.869E+00	 2.523E+02	 7.883E+01	 2.914E+01	-3.040E+02	 1.492E+03	-1.017E+02	-2.372E+02	 3.179E+02	-7.316E+00	 3.401E+02	-4.096E+00	 5.680E+00
    6.3000	 1.183E+01	-2.788E-02	 0.000E+00	 1.962E+00	-6.707E-02	 1.989E+01	-7.011E-01	 3.105E+00	-7.886E-01	 2.600E+00	 2.465E+00	 2.472E+00	 2.175E+02	 7.981E+01	 2.923E+01	-3.048E+02	 1.511E+03	-1.257E+02	-2.252E+02	 3.176E+02	-6.196E+00	 3.371E+02	-4.506E+00	 5.703E+00
    6.3500	 1.185E+01	-3.887E-02	 0.000E+00	 1.986E+00	-6.945E-02	 1.974E+01	-1.046E+00	 3.303E+00	-8.708E-01	 2.600E+00	 1.876E+00	 1.864E+00	 1.640E+02	 8.078E+01	 2.896E+01	-3.021E+02	 1.531E+03	-1.483E+02	-2.110E+02	 3.159E+02	-4.570E+00	 3.320E+02	-5.967E+00	 5.730E+00
    6.4000	 1.186E+01	-4.988E-02	 0.000E+00	 2.013E+00	-7.402E-02	 1.946E+01	-1.224E+00	 3.562E+00	-9.480E-01	 2.600E+00	 1.759E+00	 1.739E+00	 1.529E+02	 8.170E+01	 2.838E+01	-2.948E+02	 1.551E+03	-1.695E+02	-1.948E+02	 3.124E+02	-3.047E+00	 3.260E+02	-6.737E+00	 5.756E+00
    6.4500	 1.188E+01	-6.394E-02	 0.000E+00	 2.041E+00	-8.107E-02	 1.941E+01	-1.245E+00	 3.829E+00	-1.009E+00	 2.600E+00	 2.215E+00	 2.210E+00	 1.944E+02	 8.265E+01	 2.746E+01	-2.824E+02	 1.572E+03	-1.894E+02	-1.766E+02	 3.072E+02	-2.184E+00	 3.197E+02	-5.488E+00	 5.772E+00
    6.5000	 1.189E+01	-7.804E-02	 0.000E+00	 2.070E+00	-8.995E-02	 1.954E+01	-1.305E+00	 4.085E+00	-1.045E+00	 2.600E+00	 2.848E+00	 2.851E+00	 2.508E+02	 8.357E+01	 2.614E+01	-2.654E+02	 1.594E+03	-2.076E+02	-1.563E+02	 3.006E+02	-2.050E+00	 3.128E+02	-2.320E+00	 5.777E+00
    6.5500	 1.191E+01	-9.522E-02	 0.000E+00	 2.099E+00	-1.001E-01	 1.964E+01	-1.498E+00	 4.357E+00	-1.059E+00	 2.600E+00	 3.241E+00	 3.255E+00	 2.863E+02	 8.439E+01	 2.439E+01	-2.441E+02	 1.614E+03	-2.236E+02	-1.340E+02	 2.932E+02	-2.101E+00	 3.043E+02	 1.219E+00	 5.772E+00
    6.6000	 1.193E+01	-1.125E-01	 0.000E+00	 2.127E+00	-1.115E-01	 1.966E+01	-1.822E+00	 4.626E+00	-1.061E+00	 2.600E+00	 3.286E+00	 3.290E+00	 2.894E+02	 8.507E+01	 2.223E+01	-2.183E+02	 1.632E+03	-2.370E+02	-1.102E+02	 2.854E+02	-1.616E+00	 2.936E+02	 3.307E+00	 5.759E+00
    6.6500	 1.196E+01	-1.330E-01	 0.000E+00	 2.154E+00	-1.249E-01	 1.982E+01	-2.047E+00	 4.877E+00	-1.060E+00	 2.600E+00	 3.190E+00	 3.184E+00	 2.801E+02	 8.566E+01	 1.968E+01	-1.873E+02	 1.648E+03	-2.476E+02	-8.517E+01	 2.773E+02	-2.732E-01	 2.810E+02	 3.230E+00	 5.744E+00
    6.7000	 1.198E+01	-1.537E-01	 0.000E+00	 2.179E+00	-1.405E-01	 2.026E+01	-2.097E+00	 5.090E+00	-1.062E+00	 2.600E+00	 3.118E+00	 3.116E+00	 2.741E+02	 8.619E+01	 1.676E+01	-1.507E+02	 1.663E+03	-2.555E+02	-5.921E+01	 2.687E+02	 1.517E+00	 2.676E+02	 1.981E+00	 5.726E+00
    6.7500	 1.201E+01	-1.774E-01	 0.000E+00	 2.201E+00	-1.580E-01	 2.088E+01	-2.035E+00	 5.297E+00	-1.075E+00	 2.600E+00	 3.137E+00	 3.136E+00	 2.759E+02	 8.661E+01	 1.348E+01	-1.093E+02	 1.675E+03	-2.608E+02	-3.236E+01	 2.594E+02	 2.955E+00	 2.546E+02	 1.401E+00	 5.711E+00
    6.8000	 1.203E+01	-2.012E-01	 0.000E+00	 2.221E+00	-1.768E-01	 2.142E+01	-1.947E+00	 5.495E+00	-1.084E+00	 2.600E+00	 3.274E+00	 3.277E+00	 2.883E+02	 8.683E+01	 9.855E+00	-6.397E+01	 1.685E+03	-2.633E+02	-4.691E+00	 2.495E+02	 3.521E+00	 2.425E+02	 2.664E+00	 5.698E+00
    6.8500	 1.206E+01	-2.284E-01	 0.000E+00	 2.238E+00	-1.962E-01	 2.176E+01	-1.890E+00	 5.674E+00	-1.101E+00	 2.600E+00	 3.459E+00	 3.456E+00	 3.040E+02	 8.683E+01	 5.998E+00	-1.612E+01	 1.692E+03	-2.630E+02	 2.344E+01	 2.395E+02	 3.334E+00	 2.308E+02	 5.417E+00	 5.690E+00
    6.9000	 1.210E+01	-2.557E-01	 0.000E+00	 2.252E+00	-2.159E-01	 2.207E+01	-1.836E+00	 5.793E+00	-1.095E+00	 2.600E+00	 3.703E+00	 3.703E+00	 3.257E+02	 8.667E+01	 1.986E+00	 3.319E+01	 1.695E+03	-2.597E+02	 5.149E+01	 2.297E+02	 3.063E+00	 2.191E+02	 8.069E+00	 5.686E+00
    6.9500	 1.213E+01	-2.863E-01	 0.000E+00	 2.262E+00	-2.354E-01	 2.255E+01	-1.810E+00	 5.851E+00	-1.081E+00	 2.600E+00	 3.874E+00	 3.883E+00	 3.415E+02	 8.646E+01	-2.090E+00	 8.288E+01	 1.697E+03	-2.533E+02	 7.887E+01	 2.206E+02	 3.300E+00	 2.070E+02	 9.143E+00	 5.686E+00
    7.0000	 1.216E+01	-3.170E-01	 0.000E+00	 2.267E+00	-2.542E-01	 2.324E+01	-1.864E+00	 5.864E+00	-1.062E+00	 2.600E+00	 3.851E+00	 3.858E+00	 3.394E+02	 8.626E+01	-6.191E+00	 1.321E+02	 1.696E+03	-2.439E+02	 1.052E+02	 2.123E+02	 4.124E+00	 1.950E+02	 8.358E+00	 5.688E+00
    7.0500	 1.220E+01	-3.511E-01	 0.000E+00	 2.270E+00	-2.721E-01	 2.398E+01	-2.010E+00	 5.871E+00	-1.035E+00	 2.600E+00	 3.649E+00	 3.651E+00	 3.212E+02	 8.605E+01	-1.031E+01	 1.805E+02	 1.695E+03	-2.318E+02	 1.304E+02	 2.045E+02	 5.098E+00	 1.837E+02	 6.721E+00	 5.695E+00
    7.1000	 1.224E+01	-3.854E-01	 0.000E+00	 2.270E+00	-2.893E-01	 2.458E+01	-2.187E+00	 5.865E+00	-1.004E+00	 2.600E+00	 3.436E+00	 3.430E+00	 3.017E+02	 8.579E+01	-1.444E+01	 2.285E+02	 1.692E+03	-2.170E+02	 1.543E+02	 1.973E+02	 5.635E+00	 1.739E+02	 5.669E+00	 5.705E+00
    7.1500	 1.228E+01	-4.230E-01	 0.000E+00	 2.267E+00	-3.062E-01	 2.495E+01	-2.286E+00	 5.840E+00	-9.767E-01	 2.600E+00	 3.394E+00	 3.385E+00	 2.978E+02	 8.546E+01	-1.858E+01	 2.765E+02	 1.687E+03	-1.994E+02	 1.768E+02	 1.907E+02	 5.449E+00	 1.659E+02	 5.973E+00	 5.724E+00
    7.2000	 1.232E+01	-4.607E-01	 0.000E+00	 2.264E+00	-3.231E-01	 2.519E+01	-2.235E+00	 5.775E+00	-9.703E-01	 2.600E+00	 3.627E+00	 3.640E+00	 3.202E+02	 8.512E+01	-2.264E+01	 3.241E+02	 1.682E+03	-1.793E+02	 1.974E+02	 1.850E+02	 4.661E+00	 1.596E+02	 7.280E+00	 5.752E+00
    7.2500	 1.236E+01	-5.020E-01	 0.000E+00	 2.258E+00	-3.395E-01	 2.539E+01	-2.115E+00	 5.692E+00	-9.766E-01	 2.600E+00	 3.829E+00	 3.841E+00	 3.378E+02	 8.484E+01	-2.661E+01	 3.706E+02	 1.676E+03	-1.568E+02	 2.158E+02	 1.805E+02	 3.771E+00	 1.545E+02	 8.383E+00	 5.795E+00
    7.3000	 1.241E+01	-5.436E-01	 0.000E+00	 2.252E+00	-3.552E-01	 2.562E+01	-1.980E+00	 5.612E+00	-9.978E-01	 2.600E+00	 3.842E+00	 3.843E+00	 3.381E+02	 8.469E+01	-3.039E+01	 4.148E+02	 1.672E+03	-1.326E+02	 2.316E+02	 1.773E+02	 3.224E+00	 1.502E+02	 8.200E+00	 5.850E+00
    7.3500	 1.245E+01	-5.886E-01	 0.000E+00	 2.244E+00	-3.695E-01	 2.580E+01	-1.853E+00	 5.566E+00	-1.027E+00	 2.600E+00	 3.684E+00	 3.683E+00	 3.240E+02	 8.468E+01	-3.392E+01	 4.558E+02	 1.668E+03	-1.068E+02	 2.445E+02	 1.756E+02	 3.116E+00	 1.471E+02	 6.562E+00	 5.920E+00
    7.4000	 1.250E+01	-6.340E-01	 0.000E+00	 2.237E+00	-3.823E-01	 2.583E+01	-1.754E+00	 5.534E+00	-1.043E+00	 2.603E+00	 3.485E+00	 3.516E+00	 3.093E+02	 8.474E+01	-3.712E+01	 4.925E+02	 1.666E+03	-7.980E+01	 2.546E+02	 1.751E+02	 3.138E+00	 1.455E+02	 4.301E+00	 5.998E+00
    7.4500	 1.255E+01	-6.827E-01	 0.000E+00	 2.230E+00	-3.963E-01	 2.505E+01	-1.663E+00	 5.341E+00	-1.042E+00	 2.691E+00	 3.373E+00	 3.845E+00	 3.382E+02	 8.460E+01	-3.984E+01	 5.230E+02	 1.663E+03	-5.183E+01	 2.615E+02	 1.756E+02	 2.933E+00	 1.459E+02	 2.542E+00	 6.087E+00
    7.5000	 1.260E+01	-7.318E-01	 0.000E+00	 2.222E+00	-4.074E-01	 2.448E+01	-1.871E+00	 5.249E+00	-1.045E+00	 2.782E+00	 3.303E+00	 3.801E+00	 3.344E+02	 8.483E+01	-4.216E+01	 5.470E+02	 1.662E+03	-2.304E+01	 2.654E+02	 1.772E+02	 1.962E+00	 1.486E+02	 2.139E+00	 6.180E+00
    7.5500	 1.265E+01	-7.846E-01	 0.000E+00	 2.212E+00	-4.161E-01	 2.422E+01	-2.111E+00	 5.166E+00	-1.053E+00	 2.874E+00	 3.274E+00	 3.695E+00	 3.250E+02	 8.517E+01	-4.411E+01	 5.658E+02	 1.661E+03	 6.215E+00	 2.661E+02	 1.800E+02	 5.591E-01	 1.530E+02	 2.503E+00	 6.290E+00
    7.6000	 1.270E+01	-8.378E-01	 0.000E+00	 2.201E+00	-4.231E-01	 2.403E+01	-2.250E+00	 5.146E+00	-1.057E+00	 2.967E+00	 3.302E+00	 3.755E+00	 3.303E+02	 8.548E+01	-4.564E+01	 5.804E+02	 1.659E+03	 3.532E+01	 2.634E+02	 1.839E+02	-7.012E-01	 1.588E+02	 2.464E+00	 6.412E+00
    7.6500	 1.275E+01	-8.945E-01	 0.000E+00	 2.189E+00	-4.290E-01	 2.376E+01	-2.204E+00	 5.214E+00	-1.071E+00	 3.064E+00	 3.463E+00	 3.953E+00	 3.478E+02	 8.577E+01	-4.672E+01	 5.906E+02	 1.656E+03	 6.379E+01	 2.575E+02	 1.891E+02	-1.479E+00	 1.655E+02	 1.260E+00	 6.556E+00
    7.7000	 1.281E+01	-9.516E-01	 0.000E+00	 2.176E+00	-4.335E-01	 2.349E+01	-2.147E+00	 5.307E+00	-1.086E+00	 3.166E+00	 3.552E+00	 4.070E+00	 3.580E+02	 8.604E+01	-4.733E+01	 5.957E+02	 1.654E+03	 9.131E+01	 2.484E+02	 1.953E+02	-1.895E+00	 1.733E+02	-8.849E-01	 6.715E+00
    7.7500	 1.287E+01	-1.012E+00	 0.000E+00	 2.163E+00	-4.361E-01	 2.332E+01	-2.167E+00	 5.379E+00	-1.098E+00	 3.272E+00	 3.468E+00	 4.004E+00	 3.522E+02	 8.637E+01	-4.752E+01	 5.956E+02	 1.652E+03	 1.177E+02	 2.365E+02	 2.024E+02	-2.331E+00	 1.822E+02	-3.073E+00	 6.894E+00
    7.8000	 1.292E+01	-1.074E+00	 0.000E+00	 2.151E+00	-4.365E-01	 2.320E+01	-2.216E+00	 5.410E+00	-1.105E+00	 3.379E+00	 3.320E+00	 3.842E+00	 3.380E+02	 8.674E+01	-4.730E+01	 5.903E+02	 1.650E+03	 1.427E+02	 2.218E+02	 2.101E+02	-3.092E+00	 1.924E+02	-4.489E+00	 7.083E+00
    7.8500	 1.298E+01	-1.139E+00	 0.000E+00	 2.139E+00	-4.352E-01	 2.301E+01	-2.251E+00	 5.434E+00	-1.104E+00	 3.485E+00	 3.277E+00	 3.804E+00	 3.346E+02	 8.711E+01	-4.662E+01	 5.799E+02	 1.649E+03	 1.659E+02	 2.043E+02	 2.183E+02	-4.166E+00	 2.037E+02	-4.995E+00	 7.287E+00
    7.9000	 1.304E+01	-1.204E+00	 0.000E+00	 2.128E+00	-4.324E-01	 2.272E+01	-2.193E+00	 5.456E+00	-1.103E+00	 3.592E+00	 3.468E+00	 4.007E+00	 3.524E+02	 8.744E+01	-4.545E+01	 5.645E+02	 1.648E+03	 1.871E+02	 1.844E+02	 2.268E+02	-5.284E+00	 2.155E+02	-5.111E+00	 7.495E+00
    7.9500	 1.310E+01	-1.274E+00	 0.000E+00	 2.118E+00	-4.281E-01	 2.240E+01	-2.096E+00	 5.465E+00	-1.104E+00	 3.707E+00	 3.766E+00	 4.356E+00	 3.831E+02	 8.773E+01	-4.379E+01	 5.435E+02	 1.646E+03	 2.058E+02	 1.622E+02	 2.357E+02	-6.160E+00	 2.274E+02	-5.510E+00	 7.717E+00
    8.0000	 1.316E+01	-1.343E+00	 0.000E+00	 2.108E+00	-4.217E-01	 2.213E+01	-2.125E+00	 5.433E+00	-1.108E+00	 3.829E+00	 3.924E+00	 4.558E+00	 4.010E+02	 8.799E+01	-4.164E+01	 5.162E+02	 1.645E+03	 2.218E+02	 1.381E+02	 2.448E+02	-6.714E+00	 2.390E+02	-6.481E+00	 7.945E+00
    8.0500	 1.323E+01	-1.417E+00	 0.000E+00	 2.099E+00	-4.130E-01	 2.198E+01	-2.335E+00	 5.371E+00	-1.115E+00	 3.956E+00	 3.878E+00	 4.527E+00	 3.982E+02	 8.823E+01	-3.907E+01	 4.832E+02	 1.644E+03	 2.350E+02	 1.125E+02	 2.540E+02	-7.030E+00	 2.503E+02	-7.836E+00	 8.189E+00
    8.1000	 1.329E+01	-1.491E+00	 0.000E+00	 2.089E+00	-4.023E-01	 2.194E+01	-2.594E+00	 5.289E+00	-1.127E+00	 4.084E+00	 3.775E+00	 4.416E+00	 3.885E+02	 8.838E+01	-3.612E+01	 4.455E+02	 1.642E+03	 2.454E+02	 8.556E+01	 2.630E+02	-7.267E+00	 2.614E+02	-9.085E+00	 8.437E+00
    8.1500	 1.336E+01	-1.569E+00	 0.000E+00	 2.079E+00	-3.904E-01	 2.197E+01	-2.766E+00	 5.208E+00	-1.150E+00	 4.213E+00	 3.840E+00	 4.491E+00	 3.950E+02	 8.840E+01	-3.283E+01	 4.044E+02	 1.638E+03	 2.527E+02	 5.765E+01	 2.716E+02	-7.548E+00	 2.721E+02	-9.783E+00	 8.699E+00
    8.2000	 1.342E+01	-1.648E+00	 0.000E+00	 2.068E+00	-3.779E-01	 2.205E+01	-2.804E+00	 5.113E+00	-1.184E+00	 4.346E+00	 4.124E+00	 4.813E+00	 4.234E+02	 8.831E+01	-2.924E+01	 3.607E+02	 1.633E+03	 2.571E+02	 2.909E+01	 2.796E+02	-7.920E+00	 2.825E+02	-9.768E+00	 8.963E+00
    8.2500	 1.349E+01	-1.731E+00	 0.000E+00	 2.057E+00	-3.647E-01	 2.217E+01	-2.802E+00	 4.999E+00	-1.228E+00	 4.487E+00	 4.473E+00	 5.224E+00	 4.596E+02	 8.815E+01	-2.540E+01	 3.142E+02	 1.628E+03	 2.583E+02	 2.197E-01	 2.869E+02	-8.318E+00	 2.922E+02	-9.258E+00	 9.237E+00
    8.3000	 1.355E+01	-1.814E+00	 0.000E+00	 2.045E+00	-3.507E-01	 2.236E+01	-2.867E+00	 4.852E+00	-1.281E+00	 4.638E+00	 4.713E+00	 5.515E+00	 4.851E+02	 8.797E+01	-2.134E+01	 2.650E+02	 1.622E+03	 2.564E+02	-2.857E+01	 2.936E+02	-8.585E+00	 3.009E+02	-8.726E+00	 9.509E+00
    8.3500	 1.362E+01	-1.901E+00	 0.000E+00	 2.033E+00	-3.356E-01	 2.260E+01	-3.009E+00	 4.695E+00	-1.344E+00	 4.795E+00	 4.802E+00	 5.648E+00	 4.968E+02	 8.776E+01	-1.711E+01	 2.133E+02	 1.616E+03	 2.514E+02	-5.690E+01	 2.996E+02	-8.554E+00	 3.083E+02	-8.582E+00	 9.788E+00
    8.4000	 1.369E+01	-1.989E+00	 0.000E+00	 2.021E+00	-3.199E-01	 2.283E+01	-3.158E+00	 4.546E+00	-1.420E+00	 4.956E+00	 4.866E+00	 5.738E+00	 5.047E+02	 8.750E+01	-1.274E+01	 1.599E+02	 1.609E+03	 2.432E+02	-8.442E+01	 3.048E+02	-8.198E+00	 3.145E+02	-8.853E+00	 1.006E+01
    8.4500	 1.376E+01	-2.081E+00	 0.000E+00	 2.009E+00	-3.040E-01	 2.303E+01	-3.273E+00	 4.416E+00	-1.508E+00	 5.122E+00	 4.995E+00	 5.901E+00	 5.191E+02	 8.719E+01	-8.280E+00	 1.055E+02	 1.603E+03	 2.321E+02	-1.109E+02	 3.090E+02	-7.668E+00	 3.194E+02	-9.147E+00	 1.035E+01
    8.5000	 1.383E+01	-2.174E+00	 0.000E+00	 1.997E+00	-2.882E-01	 2.318E+01	-3.359E+00	 4.294E+00	-1.601E+00	 5.293E+00	 5.212E+00	 6.162E+00	 5.420E+02	 8.685E+01	-3.769E+00	 5.084E+01	 1.596E+03	 2.182E+02	-1.360E+02	 3.121E+02	-7.190E+00	 3.233E+02	-8.953E+00	 1.063E+01
    8.5500	 1.390E+01	-2.271E+00	 0.000E+00	 1.987E+00	-2.727E-01	 2.329E+01	-3.454E+00	 4.188E+00	-1.695E+00	 5.471E+00	 5.480E+00	 6.480E+00	 5.700E+02	 8.652E+01	 7.375E-01	-3.785E+00	 1.590E+03	 2.015E+02	-1.596E+02	 3.142E+02	-6.880E+00	 3.261E+02	-8.056E+00	 1.091E+01
    8.6000	 1.397E+01	-2.368E+00	 0.000E+00	 1.977E+00	-2.576E-01	 2.338E+01	-3.582E+00	 4.090E+00	-1.790E+00	 5.656E+00	 5.741E+00	 6.785E+00	 5.969E+02	 8.624E+01	 5.184E+00	-5.783E+01	 1.585E+03	 1.823E+02	-1.813E+02	 3.151E+02	-6.658E+00	 3.275E+02	-6.711E+00	 1.119E+01
    8.6500	 1.404E+01	-2.470E+00	 0.000E+00	 1.969E+00	-2.433E-01	 2.343E+01	-3.733E+00	 4.046E+00	-1.888E+00	 5.850E+00	 5.978E+00	 7.088E+00	 6.235E+02	 8.600E+01	 9.516E+00	-1.106E+02	 1.581E+03	 1.608E+02	-2.008E+02	 3.150E+02	-6.317E+00	 3.276E+02	-5.457E+00	 1.148E+01
    8.7000	 1.411E+01	-2.572E+00	 0.000E+00	 1.962E+00	-2.300E-01	 2.321E+01	-3.908E+00	 3.993E+00	-1.980E+00	 6.050E+00	 6.109E+00	 7.284E+00	 6.407E+02	 8.575E+01	 1.366E+01	-1.612E+02	 1.578E+03	 1.372E+02	-2.177E+02	 3.139E+02	-5.731E+00	 3.261E+02	-4.660E+00	 1.176E+01
    8.7500	 1.418E+01	-2.678E+00	 0.000E+00	 1.955E+00	-2.181E-01	 2.347E+01	-4.062E+00	 3.920E+00	-2.075E+00	 6.256E+00	 6.281E+00	 7.457E+00	 6.560E+02	 8.559E+01	 1.756E+01	-2.088E+02	 1.576E+03	 1.119E+02	-2.318E+02	 3.119E+02	-4.903E+00	 3.230E+02	-4.320E+00	 1.205E+01
    8.8000	 1.425E+01	-2.786E+00	 0.000E+00	 1.950E+00	-2.079E-01	 2.353E+01	-4.176E+00	 3.951E+00	-2.160E+00	 6.468E+00	 6.394E+00	 7.636E+00	 6.717E+02	 8.539E+01	 2.115E+01	-2.525E+02	 1.574E+03	 8.514E+01	-2.431E+02	 3.087E+02	-4.014E+00	 3.187E+02	-4.044E+00	 1.234E+01
    8.8500	 1.432E+01	-2.897E+00	 0.000E+00	 1.946E+00	-1.997E-01	 2.298E+01	-4.251E+00	 4.111E+00	-2.230E+00	 6.685E+00	 6.478E+00	 7.758E+00	 6.825E+02	 8.510E+01	 2.438E+01	-2.918E+02	 1.571E+03	 5.715E+01	-2.513E+02	 3.045E+02	-3.285E+00	 3.134E+02	-3.393E+00	 1.263E+01
    8.9000	 1.439E+01	-3.009E+00	 0.000E+00	 1.942E+00	-1.936E-01	 2.263E+01	-4.299E+00	 4.264E+00	-2.288E+00	 6.907E+00	 6.631E+00	 7.932E+00	 6.977E+02	 8.486E+01	 2.723E+01	-3.262E+02	 1.569E+03	 2.824E+01	-2.563E+02	 2.992E+02	-2.749E+00	 3.072E+02	-2.279E+00	 1.292E+01
    8.9500	 1.446E+01	-3.125E+00	 0.000E+00	 1.938E+00	-1.894E-01	 2.264E+01	-4.324E+00	 4.362E+00	-2.338E+00	 7.135E+00	 6.864E+00	 8.189E+00	 7.203E+02	 8.477E+01	 2.968E+01	-3.556E+02	 1.568E+03	-1.244E+00	-2.580E+02	 2.931E+02	-2.314E+00	 3.000E+02	-9.564E-01	 1.322E+01
    9.0000	 1.453E+01	-3.243E+00	 0.000E+00	 1.933E+00	-1.873E-01	 2.262E+01	-4.384E+00	 4.471E+00	-2.375E+00	 7.370E+00	 6.992E+00	 8.396E+00	 7.385E+02	 8.459E+01	 3.168E+01	-3.798E+02	 1.566E+03	-3.086E+01	-2.564E+02	 2.862E+02	-1.863E+00	 2.917E+02	 2.057E-01	 1.352E+01
    9.0500	 1.461E+01	-3.363E+00	 0.000E+00	 1.927E+00	-1.870E-01	 2.232E+01	-4.461E+00	 4.648E+00	-2.385E+00	 7.610E+00	 7.039E+00	 8.481E+00	 7.460E+02	 8.429E+01	 3.322E+01	-3.986E+02	 1.563E+03	-6.019E+01	-2.512E+02	 2.787E+02	-1.313E+00	 2.823E+02	 9.354E-01	 1.383E+01
    9.1000	 1.468E+01	-3.485E+00	 0.000E+00	 1.920E+00	-1.887E-01	 2.190E+01	-4.547E+00	 4.854E+00	-2.377E+00	 7.854E+00	 7.015E+00	 8.472E+00	 7.453E+02	 8.386E+01	 3.427E+01	-4.114E+02	 1.558E+03	-8.883E+01	-2.428E+02	 2.707E+02	-6.800E-01	 2.719E+02	 1.249E+00	 1.414E+01
    9.1500	 1.475E+01	-3.611E+00	 0.000E+00	 1.910E+00	-1.924E-01	 2.166E+01	-4.617E+00	 5.033E+00	-2.358E+00	 8.101E+00	 6.975E+00	 8.455E+00	 7.437E+02	 8.335E+01	 3.480E+01	-4.179E+02	 1.550E+03	-1.165E+02	-2.311E+02	 2.621E+02	-7.834E-02	 2.610E+02	 1.421E+00	 1.446E+01
    9.2000	 1.482E+01	-3.738E+00	 0.000E+00	 1.897E+00	-1.979E-01	 2.164E+01	-4.641E+00	 5.169E+00	-2.324E+00	 8.351E+00	 6.971E+00	 8.469E+00	 7.449E+02	 8.275E+01	 3.480E+01	-4.177E+02	 1.541E+03	-1.428E+02	-2.162E+02	 2.531E+02	 3.482E-01	 2.500E+02	 1.776E+00	 1.479E+01
    9.2500	 1.489E+01	-3.869E+00	 0.000E+00	 1.880E+00	-2.054E-01	 2.168E+01	-4.616E+00	 5.307E+00	-2.273E+00	 8.603E+00	 6.980E+00	 8.494E+00	 7.472E+02	 8.204E+01	 3.425E+01	-4.107E+02	 1.529E+03	-1.673E+02	-1.982E+02	 2.437E+02	 5.336E-01	 2.390E+02	 2.426E+00	 1.512E+01
    9.3000	 1.496E+01	-4.001E+00	 0.000E+00	 1.859E+00	-2.146E-01	 2.161E+01	-4.555E+00	 5.455E+00	-2.209E+00	 8.859E+00	 6.941E+00	 8.482E+00	 7.461E+02	 8.117E+01	 3.314E+01	-3.969E+02	 1.514E+03	-1.898E+02	-1.774E+02	 2.342E+02	 5.373E-01	 2.279E+02	 3.176E+00	 1.546E+01
    9.3500	 1.503E+01	-4.137E+00	 0.000E+00	 1.835E+00	-2.254E-01	 2.149E+01	-4.461E+00	 5.567E+00	-2.134E+00	 9.118E+00	 6.831E+00	 8.412E+00	 7.399E+02	 8.018E+01	 3.148E+01	-3.765E+02	 1.497E+03	-2.097E+02	-1.539E+02	 2.249E+02	 4.946E-01	 2.166E+02	 3.676E+00	 1.581E+01
    9.4000	 1.509E+01	-4.274E+00	 0.000E+00	 1.806E+00	-2.374E-01	 2.144E+01	-4.335E+00	 5.609E+00	-2.050E+00	 9.378E+00	 6.665E+00	 8.275E+00	 7.279E+02	 7.911E+01	 2.930E+01	-3.499E+02	 1.477E+03	-2.267E+02	-1.281E+02	 2.157E+02	 4.951E-01	 2.055E+02	 3.691E+00	 1.617E+01
    9.4500	 1.516E+01	-4.415E+00	 0.000E+00	 1.772E+00	-2.504E-01	 2.149E+01	-4.171E+00	 5.598E+00	-1.964E+00	 9.638E+00	 6.473E+00	 8.068E+00	 7.097E+02	 7.783E+01	 2.667E+01	-3.178E+02	 1.454E+03	-2.406E+02	-1.004E+02	 2.068E+02	 5.144E-01	 1.946E+02	 3.271E+00	 1.655E+01
    9.5000	 1.523E+01	-4.556E+00	 0.000E+00	 1.735E+00	-2.640E-01	 2.154E+01	-3.984E+00	 5.546E+00	-1.871E+00	 9.899E+00	 6.257E+00	 7.851E+00	 6.906E+02	 7.655E+01	 2.358E+01	-2.806E+02	 1.429E+03	-2.512E+02	-7.111E+01	 1.982E+02	 4.427E-01	 1.845E+02	 2.684E+00	 1.693E+01
    9.5500	 1.529E+01	-4.702E+00	 0.000E+00	 1.694E+00	-2.782E-01	 2.135E+01	-3.757E+00	 5.457E+00	-1.780E+00	 1.016E+01	 6.141E+00	 7.638E+00	 6.719E+02	 7.564E+01	 2.004E+01	-2.386E+02	 1.404E+03	-2.582E+02	-4.051E+01	 1.898E+02	 1.470E-01	 1.753E+02	 2.212E+00	 1.732E+01
    9.6000	 1.536E+01	-4.849E+00	 0.000E+00	 1.649E+00	-2.925E-01	 2.140E+01	-3.592E+00	 5.346E+00	-1.671E+00	 1.042E+01	 5.819E+00	 7.415E+00	 6.522E+02	 7.392E+01	 1.626E+01	-1.935E+02	 1.374E+03	-2.618E+02	-9.311E+00	 1.821E+02	-3.584E-01	 1.668E+02	 1.928E+00	 1.772E+01
    9.6500	 1.542E+01	-4.998E+00	 0.000E+00	 1.602E+00	-3.070E-01	 2.130E+01	-3.386E+00	 5.192E+00	-1.568E+00	 1.068E+01	 5.594E+00	 7.171E+00	 6.308E+02	 7.241E+01	 1.217E+01	-1.452E+02	 1.343E+03	-2.615E+02	 2.226E+01	 1.749E+02	-1.024E+00	 1.590E+02	 1.644E+00	 1.814E+01
    9.7000	 1.549E+01	-5.150E+00	 0.000E+00	 1.552E+00	-3.214E-01	 2.109E+01	-3.157E+00	 4.994E+00	-1.466E+00	 1.093E+01	 5.345E+00	 6.909E+00	 6.077E+02	 7.100E+01	 7.842E+00	-9.436E+01	 1.313E+03	-2.573E+02	 5.365E+01	 1.683E+02	-1.704E+00	 1.521E+02	 1.067E+00	 1.855E+01
    9.7500	 1.555E+01	-5.304E+00	 0.000E+00	 1.500E+00	-3.357E-01	 2.079E+01	-2.908E+00	 4.789E+00	-1.368E+00	 1.119E+01	 5.067E+00	 6.612E+00	 5.816E+02	 6.971E+01	 3.346E+00	-4.169E+01	 1.282E+03	-2.492E+02	 8.433E+01	 1.624E+02	-2.321E+00	 1.459E+02	 4.931E-02	 1.898E+01
    9.8000	 1.561E+01	-5.460E+00	 0.000E+00	 1.447E+00	-3.496E-01	 2.044E+01	-2.656E+00	 4.568E+00	-1.274E+00	 1.144E+01	 4.725E+00	 6.267E+00	 5.513E+02	 6.857E+01	-1.256E+00	 1.205E+01	 1.252E+03	-2.373E+02	 1.138E+02	 1.570E+02	-2.909E+00	 1.406E+02	-1.295E+00	 1.941E+01
    9.8500	 1.567E+01	-5.619E+00	 0.000E+00	 1.394E+00	-3.629E-01	 2.002E+01	-2.358E+00	 4.325E+00	-1.179E+00	 1.169E+01	 4.393E+00	 5.924E+00	 5.211E+02	 6.754E+01	-5.893E+00	 6.609E+01	 1.223E+03	-2.217E+02	 1.417E+02	 1.522E+02	-3.547E+00	 1.359E+02	-2.691E+00	 1.984E+01
    9.9000	 1.573E+01	-5.780E+00	 0.000E+00	 1.340E+00	-3.754E-01	 1.949E+01	-2.066E+00	 4.063E+00	-1.089E+00	 1.194E+01	 4.055E+00	 5.566E+00	 4.896E+02	 6.663E+01	-1.051E+01	 1.195E+02	 1.195E+03	-2.027E+02	 1.675E+02	 1.481E+02	-4.328E+00	 1.320E+02	-3.868E+00	 2.028E+01
    9.9500	 1.579E+01	-5.943E+00	 0.000E+00	 1.287E+00	-3.869E-01	 1.885E+01	-1.810E+00	 3.800E+00	-1.001E+00	 1.219E+01	 3.644E+00	 5.138E+00	 4.520E+02	 6.582E+01	-1.504E+01	 1.715E+02	 1.168E+03	-1.805E+02	 1.908E+02	 1.446E+02	-5.275E+00	 1.288E+02	-4.755E+00	 2.073E+01
   10.0000	 1.585E+01	-6.108E+00	 0.000E+00	 1.234E+00	-3.973E-01	 1.812E+01	-1.552E+00	 3.560E+00	-9.131E-01	 1.243E+01	 3.232E+00	 4.706E+00	 4.139E+02	 6.510E+01	-1.940E+01	 2.213E+02	 1.142E+03	-1.555E+02	 2.112E+02	 1.415E+02	-6.267E+00	 1.263E+02	-5.542E+00	 2.119E+01
   10.0500	 1.590E+01	-6.276E+00	 0.000E+00	 1.184E+00	-4.057E-01	 1.776E+01	-1.218E+00	 3.525E+00	-8.468E-01	 1.261E+01	 3.124E+00	 4.165E+00	 3.664E+02	 6.474E+01	-2.351E+01	 2.683E+02	 1.120E+03	-1.280E+02	 2.285E+02	 1.391E+02	-7.212E+00	 1.245E+02	-6.440E+00	 2.166E+01
   10.1000	 1.596E+01	-6.445E+00	 0.000E+00	 1.136E+00	-4.131E-01	 1.733E+01	-9.251E-01	 3.384E+00	-7.495E-01	 1.279E+01	 2.790E+00	 3.841E+00	 3.379E+02	 6.434E+01	-2.731E+01	 3.121E+02	 1.098E+03	-9.866E+01	 2.422E+02	 1.372E+02	-7.954E+00	 1.234E+02	-7.601E+00	 2.214E+01
   10.1500	 1.601E+01	-6.617E+00	 0.000E+00	 1.091E+00	-4.195E-01	 1.656E+01	-6.353E-01	 3.320E+00	-6.560E-01	 1.296E+01	 2.492E+00	 3.535E+00	 3.110E+02	 6.400E+01	-3.071E+01	 3.512E+02	 1.078E+03	-6.779E+01	 2.523E+02	 1.358E+02	-8.618E+00	 1.227E+02	-8.801E+00	 2.264E+01
   10.2000	 1.606E+01	-6.790E+00	 0.000E+00	 1.051E+00	-4.245E-01	 1.536E+01	-4.193E-01	 3.254E+00	-5.691E-01	 1.313E+01	 2.203E+00	 3.244E+00	 2.853E+02	 6.369E+01	-3.365E+01	 3.844E+02	 1.059E+03	-3.585E+01	 2.584E+02	 1.351E+02	-9.314E+00	 1.226E+02	-9.773E+00	 2.314E+01