
Predictions were generated on 29-Sep-2025 at 15:44:05 using HydroDyn Driver, compiled on Sep 29 2025 at 14:49:13 as a 64-bit application using double precision at commit v4.1.2-165-g1d0ee6c2-dirty
 linked with  NWTC Subroutine Library

Description from the driver input file: NREL 5.0 MW offshore baseline floating platform HydroDyn input properties for the OC4 Semi-submersible.

Time	B1WvsFxi	B1WvsFyi	B1WvsFzi	B1WvsMxi	B1WvsMyi	B1WvsMzi
(s)	(N)	(N)	(N)	(N-m)	(N-m)	(N-m)
    0.0000	  -3.928512E+06	  -3.506773E+06	   1.887406E+05	  -5.055642E+07	   7.478446E+07	  -4.204938E+07
    0.1000	  -3.891936E+06	  -3.457582E+06	   2.538746E+04	  -4.565289E+07	   7.264742E+07	  -4.003202E+07
    0.2000	  -3.832997E+06	  -3.386872E+06	  -1.376418E+05	  -4.046296E+07	   7.016106E+07	  -3.781945E+07
    0.3000	  -3.751689E+06	  -3.295149E+06	  -2.992209E+05	  -3.502188E+07	   6.734206E+07	  -3.539133E+07
    0.4000	  -3.648151E+06	  -3.183055E+06	  -4.582255E+05	  -2.936732E+07	   6.420738E+07	  -3.272867E+07
    0.5000	  -3.522678E+06	  -3.051373E+06	  -6.135402E+05	  -2.353915E+07	   6.077411E+07	  -2.981463E+07
    0.6000	  -3.375717E+06	  -2.901010E+06	  -7.640662E+05	  -1.757899E+07	   5.705936E+07	  -2.663527E+07
    0.7000	  -3.207881E+06	  -2.732999E+06	  -9.087286E+05	  -1.152990E+07	   5.308039E+07	  -2.318037E+07
    0.8000	  -3.019946E+06	  -2.548490E+06	  -1.046483E+06	  -5.435924E+06	   4.885451E+07	  -1.944409E+07
    0.9000	  -2.812862E+06	  -2.348749E+06	  -1.176330E+06	   6.582836E+05	   4.439909E+07	  -1.542573E+07
    1.0000	  -2.587750E+06	  -2.135150E+06	  -1.297320E+06	   6.707992E+06	   3.973189E+07	  -1.113018E+07
    1.1000	  -2.345904E+06	  -1.909167E+06	  -1.408568E+06	   1.266879E+07	   3.487075E+07	  -6.568486E+06
    1.2000	  -2.088788E+06	  -1.672374E+06	  -1.509260E+06	   1.849702E+07	   2.983409E+07	  -1.758146E+06
    1.3000	  -1.818031E+06	  -1.426424E+06	  -1.598667E+06	   2.415033E+07	   2.464088E+07	   3.276740E+06
    1.4000	  -1.535421E+06	  -1.173049E+06	  -1.676155E+06	   2.958793E+07	   1.931086E+07	   8.505408E+06
    1.5000	  -1.242890E+06	  -9.140458E+05	  -1.741191E+06	   3.477118E+07	   1.386464E+07	   1.389059E+07
    1.6000	  -9.425006E+05	  -6.512616E+05	  -1.793354E+06	   3.966384E+07	   8.323964E+06	   1.938888E+07
    1.7000	  -6.364340E+05	  -3.865842E+05	  -1.832342E+06	   4.423242E+07	   2.711767E+06	   2.495121E+07
    1.8000	  -3.269614E+05	  -1.219209E+05	  -1.857974E+06	   4.844656E+07	  -2.947628E+06	   3.052359E+07
    1.9000	  -1.642373E+04	   1.408131E+05	  -1.870198E+06	   5.227918E+07	  -8.628497E+06	   3.604790E+07
    2.0000	   2.927934E+05	   3.997142E+05	  -1.869084E+06	   5.570672E+07	  -1.430361E+07	   4.146300E+07
    2.1000	   5.982870E+05	   6.529063E+05	  -1.854833E+06	   5.870926E+07	  -1.994425E+07	   4.670564E+07
    2.2000	   8.976671E+05	   8.985595E+05	  -1.827768E+06	   6.127059E+07	  -2.552030E+07	   5.171185E+07
    2.3000	   1.188586E+06	   1.134910E+06	  -1.788327E+06	   6.337837E+07	  -3.100036E+07	   5.641812E+07
    2.4000	   1.468763E+06	   1.360269E+06	  -1.737060E+06	   6.502393E+07	  -3.635195E+07	   6.076252E+07
    2.5000	   1.736023E+06	   1.573054E+06	  -1.674617E+06	   6.620235E+07	  -4.154170E+07	   6.468618E+07
    2.6000	   1.988310E+06	   1.771788E+06	  -1.601742E+06	   6.691232E+07	  -4.653565E+07	   6.813438E+07
    2.7000	   2.223720E+06	   1.955123E+06	  -1.519255E+06	   6.715597E+07	  -5.129978E+07	   7.105754E+07
    2.8000	   2.440526E+06	   2.121846E+06	  -1.428044E+06	   6.693874E+07	  -5.580009E+07	   7.341232E+07
    2.9000	   2.637184E+06	   2.270897E+06	  -1.329050E+06	   6.626914E+07	  -6.000330E+07	   7.516231E+07
    3.0000	   2.812364E+06	   2.401373E+06	  -1.223255E+06	   6.515854E+07	  -6.387709E+07	   7.627894E+07
    3.1000	   2.965044E+06	   2.512530E+06	  -1.111550E+06	   6.362016E+07	  -6.739344E+07	   7.674834E+07
    3.2000	   3.094488E+06	   2.603740E+06	  -9.947118E+05	   6.166812E+07	  -7.053052E+07	   7.657199E+07
    3.3000	   3.199909E+06	   2.674499E+06	  -8.738138E+05	   5.932100E+07	  -7.326366E+07	   7.574215E+07
    3.4000	   3.280739E+06	   2.724491E+06	  -7.499408E+05	   5.659943E+07	  -7.557030E+07	   7.425834E+07
    3.5000	   3.336652E+06	   2.753584E+06	  -6.241645E+05	   5.352597E+07	  -7.743042E+07	   7.212731E+07
    3.6000	   3.367544E+06	   2.761828E+06	  -4.975294E+05	   5.012488E+07	  -7.882716E+07	   6.936336E+07
    3.7000	   3.373540E+06	   2.749451E+06	  -3.710431E+05	   4.642180E+07	  -7.974673E+07	   6.598773E+07
    3.8000	   3.354984E+06	   2.716853E+06	  -2.456675E+05	   4.244388E+07	  -8.017890E+07	   6.202820E+07
    3.9000	   3.312415E+06	   2.664599E+06	  -1.223096E+05	   3.821932E+07	  -8.011707E+07	   5.751859E+07
    4.0000	   3.246572E+06	   2.593398E+06	  -1.816750E+03	   3.377744E+07	  -7.955838E+07	   5.249806E+07
    4.1000	   3.158368E+06	   2.504109E+06	   1.150276E+05	   2.914855E+07	  -7.850384E+07	   4.701062E+07
    4.2000	   3.048869E+06	   2.397708E+06	   2.275076E+05	   2.436347E+07	  -7.695832E+07	   4.110427E+07
    4.3000	   2.919288E+06	   2.275290E+06	   3.349780E+05	   1.945383E+07	  -7.493058E+07	   3.483040E+07
    4.4000	   2.770960E+06	   2.138048E+06	   4.368618E+05	   1.445169E+07	  -7.243312E+07	   2.824307E+07
    4.5000	   2.605326E+06	   1.987259E+06	   5.326515E+05	   9.389405E+06	  -6.948209E+07	   2.139830E+07
    4.6000	   2.423919E+06	   1.824270E+06	   6.219081E+05	   4.299545E+06	  -6.609714E+07	   1.435345E+07
    4.7000	   2.228338E+06	   1.650487E+06	   7.042561E+05	  -7.852946E+05	  -6.230119E+07	   7.166540E+06
    4.8000	   2.020243E+06	   1.467362E+06	   7.793854E+05	  -5.832620E+06	  -5.812032E+07	  -1.042946E+05
    4.9000	   1.801331E+06	   1.276376E+06	   8.470433E+05	  -1.081026E+07	  -5.358337E+07	  -7.401312E+06
    5.0000	   1.573330E+06	   1.079030E+06	   9.070346E+05	  -1.568647E+07	  -4.872169E+07	  -1.466774E+07
    5.1000	   1.337978E+06	   8.768349E+05	   9.592182E+05	  -2.043016E+07	  -4.356889E+07	  -2.184817E+07
    5.2000	   1.097011E+06	   6.712976E+05	   1.003500E+06	  -2.501104E+07	  -3.816053E+07	  -2.888889E+07
    5.3000	   8.521605E+05	   4.639166E+05	   1.039836E+06	  -2.939972E+07	  -3.253381E+07	  -3.573828E+07
    5.4000	   6.051362E+05	   2.561680E+05	   1.068222E+06	  -3.356813E+07	  -2.672715E+07	  -4.234718E+07
    5.5000	   3.576171E+05	   4.950138E+04	   1.088697E+06	  -3.748943E+07	  -2.077995E+07	  -4.866896E+07
    5.6000	   1.112478E+05	  -1.546689E+05	   1.101339E+06	  -4.113842E+07	  -1.473235E+07	  -5.465980E+07
    5.7000	  -1.323727E+05	  -3.549701E+05	   1.106259E+06	  -4.449148E+07	  -8.624701E+06	  -6.027903E+07
    5.8000	  -3.716943E+05	  -5.500755E+05	   1.103606E+06	  -4.752689E+07	  -2.497496E+06	  -6.548900E+07
    5.9000	  -6.052224E+05	  -7.387109E+05	   1.093561E+06	  -5.022506E+07	   3.609099E+06	  -7.025536E+07
    6.0000	  -8.315261E+05	  -9.196591E+05	   1.076336E+06	  -5.256845E+07	   9.655421E+06	  -7.454713E+07
    6.1000	  -1.049237E+06	  -1.091763E+06	   1.052177E+06	  -5.454192E+07	   1.560267E+07	  -7.833670E+07
    6.2000	  -1.257052E+06	  -1.253928E+06	   1.021360E+06	  -5.613268E+07	   2.141307E+07	  -8.159993E+07
    6.3000	  -1.453751E+06	  -1.405136E+06	   9.841918E+05	  -5.733066E+07	   2.705015E+07	  -8.431602E+07
    6.4000	  -1.638183E+06	  -1.544429E+06	   9.410099E+05	  -5.812820E+07	   3.247900E+07	  -8.646790E+07
    6.5000	  -1.809278E+06	  -1.670932E+06	   8.921829E+05	  -5.852045E+07	   3.766628E+07	  -8.804176E+07
    6.6000	  -1.966052E+06	  -1.783844E+06	   8.381098E+05	  -5.850532E+07	   4.258078E+07	  -8.902731E+07
    6.7000	  -2.107602E+06	  -1.882449E+06	   7.792206E+05	  -5.808349E+07	   4.719306E+07	  -8.941774E+07
    6.8000	  -2.233119E+06	  -1.966111E+06	   7.159761E+05	  -5.725842E+07	   5.147606E+07	  -8.920963E+07
    6.9000	  -2.341890E+06	  -2.034287E+06	   6.488667E+05	  -5.603634E+07	   5.540491E+07	  -8.840299E+07
    7.0000	  -2.433286E+06	  -2.086520E+06	   5.784132E+05	  -5.442622E+07	   5.895714E+07	  -8.700109E+07
    7.1000	  -2.506792E+06	  -2.122450E+06	   5.051640E+05	  -5.243977E+07	   6.211275E+07	  -8.501075E+07
    7.2000	  -2.561987E+06	  -2.141816E+06	   4.296942E+05	  -5.009124E+07	   6.485426E+07	  -8.244187E+07
    7.3000	  -2.598562E+06	  -2.144454E+06	   3.526051E+05	  -4.739748E+07	   6.716668E+07	  -7.930788E+07
    7.4000	  -2.616316E+06	  -2.130308E+06	   2.745156E+05	  -4.437767E+07	   6.903776E+07	  -7.562537E+07
    7.5000	  -2.615149E+06	  -2.099406E+06	   1.960322E+05	  -4.105344E+07	   7.045857E+07	  -7.141398E+07
    7.6000	  -2.595068E+06	  -2.051882E+06	   1.178061E+05	  -3.744854E+07	   7.142224E+07	  -6.669640E+07
    7.7000	  -2.556201E+06	  -1.987983E+06	   4.051134E+04	  -3.358862E+07	   7.192452E+07	  -6.149857E+07
    7.8000	  -2.498802E+06	  -1.908068E+06	  -3.516814E+04	  -2.950116E+07	   7.196348E+07	  -5.584984E+07
    7.9000	  -2.423248E+06	  -1.812612E+06	  -1.085440E+05	  -2.521509E+07	   7.153990E+07	  -4.978272E+07
    8.0000	  -2.330047E+06	  -1.702202E+06	  -1.789300E+05	  -2.076079E+07	   7.065706E+07	  -4.333303E+07
    8.1000	  -2.219830E+06	  -1.577545E+06	  -2.456468E+05	  -1.616959E+07	   6.932069E+07	  -3.653990E+07
    8.2000	  -2.093376E+06	  -1.439464E+06	  -3.080307E+05	  -1.147368E+07	   6.753891E+07	  -2.944580E+07
    8.3000	  -1.951588E+06	  -1.288901E+06	  -3.654400E+05	  -6.705798E+06	   6.532232E+07	  -2.209651E+07
    8.4000	  -1.795506E+06	  -1.126916E+06	  -4.172653E+05	  -1.898939E+06	   6.268396E+07	  -1.454094E+07
    8.5000	  -1.626312E+06	  -9.546822E+05	  -4.629352E+05	   2.913839E+06	   5.963927E+07	  -6.831391E+06
    8.6000	  -1.445316E+06	  -7.734872E+05	  -5.019289E+05	   7.699893E+06	   5.620598E+07	   9.769811E+05
    8.7000	  -1.253960E+06	  -5.847298E+05	  -5.337837E+05	   1.242712E+07	   5.240433E+07	   8.826120E+06
    8.8000	  -1.053810E+06	  -3.899102E+05	  -5.581044E+05	   1.706422E+07	   4.825675E+07	   1.665538E+07
    8.9000	  -8.465484E+05	  -1.906235E+05	  -5.745746E+05	   2.158115E+07	   4.378818E+07	   2.440192E+07
    9.0000	  -6.339702E+05	   1.144327E+04	  -5.829644E+05	   2.594908E+07	   3.902586E+07	   3.200107E+07
    9.1000	  -4.179607E+05	   2.145273E+05	  -5.831393E+05	   3.014089E+07	   3.399933E+07	   3.938681E+07
    9.2000	  -2.004882E+05	   4.168008E+05	  -5.750682E+05	   3.413123E+07	   2.874053E+07	   4.649250E+07
    9.3000	   1.641736E+04	   6.163864E+05	  -5.588306E+05	   3.789665E+07	   2.328362E+07	   5.325157E+07
    9.4000	   2.306822E+05	   8.113740E+05	  -5.346208E+05	   4.141597E+07	   1.766502E+07	   5.959826E+07
    9.5000	   4.402150E+05	   9.998390E+05	  -5.027521E+05	   4.467007E+07	   1.192318E+07	   6.546852E+07
    9.6000	   6.429316E+05	   1.179869E+06	  -4.636576E+05	   4.764220E+07	   6.098628E+06	   7.080118E+07
    9.7000	   8.367819E+05	   1.349576E+06	  -4.178888E+05	   5.031781E+07	   2.337055E+05	   7.553853E+07
    9.8000	   1.019781E+06	   1.507137E+06	  -3.661140E+05	   5.268479E+07	  -5.627636E+06	   7.962789E+07
    9.9000	   1.190042E+06	   1.650807E+06	  -3.091076E+05	   5.473314E+07	  -1.144010E+07	   8.302246E+07
   10.0000	   1.345805E+06	   1.778951E+06	  -2.477455E+05	   5.645504E+07	  -1.715733E+07	   8.568251E+07
   10.1000	   1.485474E+06	   1.890078E+06	  -1.829897E+05	   5.784475E+07	  -2.273230E+07	   8.757622E+07
   10.2000	   1.607720E+06	   1.983014E+06	  -1.156611E+05	   5.889781E+07	  -2.811988E+07	   8.867662E+07
   10.3000	   1.711511E+06	   2.057016E+06	  -4.614048E+04	   5.961188E+07	  -3.328003E+07	   8.895618E+07
   10.4000	   1.795711E+06	   2.110955E+06	   2.456710E+04	   5.998932E+07	  -3.816738E+07	   8.840822E+07
   10.5000	   1.859404E+06	   2.143844E+06	   9.536282E+04	   6.003400E+07	  -4.273742E+07	   8.703897E+07
   10.6000	   1.901933E+06	   2.154914E+06	   1.651215E+05	   5.975088E+07	  -4.694772E+07	   8.486720E+07
   10.7000	   1.922924E+06	   2.143619E+06	   2.327118E+05	   5.914572E+07	  -5.075861E+07	   8.192384E+07
   10.8000	   1.922295E+06	   2.109674E+06	   2.970202E+05	   5.822476E+07	  -5.413364E+07	   7.825222E+07
   10.9000	   1.900262E+06	   2.053048E+06	   3.569713E+05	   5.699474E+07	  -5.704033E+07	   7.390693E+07
   11.0000	   1.857345E+06	   1.973999E+06	   4.115556E+05	   5.546234E+07	  -5.945065E+07	   6.895344E+07
   11.1000	   1.794354E+06	   1.873053E+06	   4.598473E+05	   5.363443E+07	  -6.134165E+07	   6.346666E+07
   11.2000	   1.712386E+06	   1.751029E+06	   5.010287E+05	   5.151786E+07	  -6.269572E+07	   5.752956E+07
   11.3000	   1.612796E+06	   1.609014E+06	   5.344112E+05	   4.911943E+07	  -6.350119E+07	   5.123179E+07
   11.4000	   1.497185E+06	   1.448361E+06	   5.594459E+05	   4.644609E+07	  -6.375242E+07	   4.466759E+07
   11.5000	   1.367353E+06	   1.270671E+06	   5.757441E+05	   4.350495E+07	  -6.344993E+07	   3.793408E+07
   11.6000	   1.225281E+06	   1.077763E+06	   5.830810E+05	   4.030361E+07	  -6.260064E+07	   3.112900E+07
   11.7000	   1.072265E+06	   8.710885E+05	   5.815390E+05	   3.686587E+07	  -6.120742E+07	   2.430899E+07
   11.8000	   9.098272E+05	   6.521479E+05	   5.711934E+05	   3.321352E+07	  -5.928055E+07	   1.754969E+07
   11.9000	   7.401421E+05	   4.229120E+05	   5.521112E+05	   2.935739E+07	  -5.684407E+07	   1.095758E+07
   12.0000	   5.654202E+05	   1.854767E+05	   5.244989E+05	   2.530833E+07	  -5.392810E+07	   4.632897E+06
   12.1000	   3.878709E+05	  -5.796363E+04	   4.886983E+05	   2.107778E+07	  -5.056839E+07	  -1.332396E+06
   12.2000	   2.096607E+05	  -3.051462E+05	   4.451764E+05	   1.667815E+07	  -4.680552E+07	  -6.856576E+06
   12.3000	   3.287784E+04	  -5.537746E+05	   3.945165E+05	   1.212306E+07	  -4.268423E+07	  -1.186953E+07
   12.4000	  -1.404945E+05	  -8.015438E+05	   3.374026E+05	   7.427665E+06	  -3.825269E+07	  -1.631396E+07
   12.5000	  -3.086143E+05	  -1.046179E+06	   2.746034E+05	   2.608887E+06	  -3.356141E+07	  -2.014609E+07
   12.6000	  -4.697973E+05	  -1.285459E+06	   2.069579E+05	  -2.314230E+06	  -2.866286E+07	  -2.333606E+07
   12.7000	  -6.225399E+05	  -1.517246E+06	   1.353550E+05	  -7.320490E+06	  -2.361009E+07	  -2.586780E+07
   12.8000	  -7.655322E+05	  -1.739514E+06	   6.071494E+04	  -1.238633E+07	  -1.845639E+07	  -2.773887E+07
   12.9000	  -8.976596E+05	  -1.950361E+06	  -1.602543E+04	  -1.748578E+07	  -1.325430E+07	  -2.895951E+07
   13.0000	  -1.018020E+06	  -2.148047E+06	  -9.393682E+04	  -2.259074E+07	  -8.054847E+06	  -2.955174E+07
   13.1000	  -1.125892E+06	  -2.331318E+06	  -1.722875E+05	  -2.766236E+07	  -2.895825E+06	  -2.952154E+07
   13.2000	  -1.220669E+06	  -2.499069E+06	  -2.503877E+05	  -3.266458E+07	   2.182081E+06	  -2.887668E+07
   13.3000	  -1.301916E+06	  -2.650074E+06	  -3.274455E+05	  -3.756911E+07	   7.129282E+06	  -2.765418E+07
   13.4000	  -1.369376E+06	  -2.783243E+06	  -4.027169E+05	  -4.234637E+07	   1.189958E+07	  -2.590093E+07
   13.5000	  -1.422955E+06	  -2.897646E+06	  -4.755151E+05	  -4.696590E+07	   1.645056E+07	  -2.367193E+07
   13.6000	  -1.462709E+06	  -2.992498E+06	  -5.452148E+05	  -5.139637E+07	   2.074396E+07	  -2.102864E+07
   13.7000	  -1.488828E+06	  -3.067163E+06	  -6.112522E+05	  -5.560621E+07	   2.474587E+07	  -1.803717E+07
   13.8000	  -1.501610E+06	  -3.121157E+06	  -6.731301E+05	  -5.956362E+07	   2.842687E+07	  -1.476674E+07
   13.9000	  -1.501458E+06	  -3.154142E+06	  -7.304138E+05	  -6.323725E+07	   3.176206E+07	  -1.128782E+07
   14.0000	  -1.488850E+06	  -3.165923E+06	  -7.827322E+05	  -6.659640E+07	   3.473105E+07	  -7.670770E+06
   14.1000	  -1.464332E+06	  -3.156446E+06	  -8.297755E+05	  -6.961141E+07	   3.731790E+07	  -3.984398E+06
   14.2000	  -1.428500E+06	  -3.125793E+06	  -8.712909E+05	  -7.225426E+07	   3.951068E+07	  -2.947986E+05
   14.3000	  -1.381990E+06	  -3.074178E+06	  -9.070802E+05	  -7.449868E+07	   4.130183E+07	   3.335720E+06
   14.4000	  -1.325464E+06	  -3.001943E+06	  -9.369938E+05	  -7.632074E+07	   4.268729E+07	   6.849462E+06
   14.5000	  -1.259609E+06	  -2.909547E+06	  -9.609289E+05	  -7.769899E+07	   4.366679E+07	   1.019395E+07
   14.6000	  -1.185119E+06	  -2.797577E+06	  -9.788248E+05	  -7.861506E+07	   4.424318E+07	   1.332249E+07
   14.7000	  -1.102697E+06	  -2.666718E+06	  -9.906574E+05	  -7.905354E+07	   4.442240E+07	   1.619444E+07
   14.8000	  -1.013051E+06	  -2.517776E+06	  -9.964358E+05	  -7.900245E+07	   4.421306E+07	   1.877527E+07
   14.9000	  -9.168868E+05	  -2.351649E+06	  -9.961995E+05	  -7.845352E+07	   4.362639E+07	   2.103671E+07
   15.0000	  -8.149128E+05	  -2.169346E+06	  -9.900168E+05	  -7.740188E+07	   4.267573E+07	   2.295649E+07
   15.1000	  -7.077719E+05	  -1.971974E+06	  -9.779468E+05	  -7.584838E+07	   4.137363E+07	   2.452767E+07
   15.2000	  -5.961279E+05	  -1.760757E+06	  -9.600762E+05	  -7.379817E+07	   3.973351E+07	   2.574697E+07
   15.3000	  -4.807405E+05	  -1.536944E+06	  -9.365566E+05	  -7.125817E+07	   3.777422E+07	   2.660261E+07
   15.4000	  -3.623615E+05	  -1.301864E+06	  -9.075594E+05	  -6.823894E+07	   3.551627E+07	   2.708780E+07
   15.5000	  -2.417426E+05	  -1.056914E+06	  -8.732743E+05	  -6.475459E+07	   3.298156E+07	   2.720060E+07
   15.6000	  -1.196300E+05	  -8.035503E+05	  -8.339057E+05	  -6.082262E+07	   3.019345E+07	   2.694345E+07
   15.7000	   3.232513E+03	  -5.432876E+05	  -7.896782E+05	  -5.646397E+07	   2.717621E+07	   2.632269E+07
   15.8000	   1.261017E+05	  -2.776860E+05	  -7.408340E+05	  -5.170281E+07	   2.395515E+07	   2.534825E+07
   15.9000	   2.482346E+05	  -8.352429E+03	  -6.876328E+05	  -4.656628E+07	   2.055638E+07	   2.403323E+07
   16.0000	   3.688909E+05	   2.630754E+05	  -6.303544E+05	  -4.108446E+07	   1.700660E+07	   2.239328E+07
   16.1000	   4.873318E+05	   5.349351E+05	  -5.692972E+05	  -3.529004E+07	   1.333309E+07	   2.044639E+07
   16.2000	   6.028231E+05	   8.055480E+05	  -5.047809E+05	  -2.921809E+07	   9.563575E+06	   1.821235E+07
   16.3000	   7.146379E+05	   1.073232E+06	  -4.371451E+05	  -2.290595E+07	   5.726086E+06	   1.571248E+07
   16.4000	   8.220574E+05	   1.336310E+06	  -3.667488E+05	  -1.639268E+07	   1.848843E+06	   1.296921E+07
   16.5000	   9.243774E+05	   1.593118E+06	  -2.939723E+05	  -9.719080E+06	  -2.039693E+06	   1.000583E+07
   16.6000	   1.020908E+06	   1.842025E+06	  -2.192149E+05	  -2.927141E+06	  -5.911112E+06	   6.846298E+06
   16.7000	   1.110989E+06	   2.081434E+06	  -1.428943E+05	   3.940086E+06	  -9.736982E+06	   3.514983E+06
   16.8000	   1.193981E+06	   2.309799E+06	  -6.544494E+04	   1.083886E+07	  -1.348901E+07	   3.654449E+04
   16.9000	   1.269285E+06	   2.525636E+06	   1.268397E+04	   1.772511E+07	  -1.713923E+07	  -3.564178E+06
   17.0000	   1.336337E+06	   2.727535E+06	   9.103061E+04	   2.455465E+07	  -2.065994E+07	  -7.262149E+06
   17.1000	   1.394626E+06	   2.914164E+06	   1.691223E+05	   3.128348E+07	  -2.402399E+07	  -1.103218E+07
   17.2000	   1.443693E+06	   3.084282E+06	   2.464812E+05	   3.786826E+07	  -2.720482E+07	  -1.484893E+07
   17.3000	   1.483137E+06	   3.236764E+06	   3.226245E+05	   4.426615E+07	  -3.017660E+07	  -1.868668E+07
   17.4000	   1.512627E+06	   3.370577E+06	   3.970708E+05	   5.043569E+07	  -3.291457E+07	  -2.251948E+07
   17.5000	   1.531907E+06	   3.484825E+06	   4.693441E+05	   5.633660E+07	  -3.539492E+07	  -2.632076E+07
   17.6000	   1.540798E+06	   3.578727E+06	   5.389777E+05	   6.193030E+07	  -3.759529E+07	  -3.006337E+07
   17.7000	   1.539208E+06	   3.651648E+06	   6.055181E+05	   6.717976E+07	  -3.949474E+07	  -3.371942E+07
   17.8000	   1.527133E+06	   3.703083E+06	   6.685321E+05	   7.205026E+07	  -4.107413E+07	  -3.726013E+07
   17.9000	   1.504662E+06	   3.732674E+06	   7.276098E+05	   7.650914E+07	  -4.231623E+07	  -4.065575E+07
   18.0000	   1.471979E+06	   3.740212E+06	   7.823720E+05	   8.052609E+07	  -4.320607E+07	  -4.387550E+07
   18.1000	   1.429365E+06	   3.725638E+06	   8.324712E+05	   8.407330E+07	  -4.373104E+07	  -4.688761E+07
   18.2000	   1.377199E+06	   3.689046E+06	   8.776021E+05	   8.712575E+07	  -4.388135E+07	  -4.965930E+07
   18.3000	   1.315952E+06	   3.630668E+06	   9.174996E+05	   8.966109E+07	  -4.365004E+07	  -5.215694E+07
   18.4000	   1.246189E+06	   3.550899E+06	   9.519502E+05	   9.165978E+07	  -4.303326E+07	  -5.434624E+07
   18.5000	   1.168558E+06	   3.450276E+06	   9.807894E+05	   9.310551E+07	  -4.203066E+07	  -5.619258E+07
   18.6000	   1.083788E+06	   3.329469E+06	   1.003909E+06	   9.398445E+07	  -4.064531E+07	  -5.766129E+07
   18.7000	   9.926824E+05	   3.189290E+06	   1.021258E+06	   9.428648E+07	  -3.888410E+07	  -5.871840E+07
   18.8000	   8.960985E+05	   3.030676E+06	   1.032843E+06	   9.400406E+07	  -3.675766E+07	  -5.933091E+07
   18.9000	   7.949468E+05	   2.854680E+06	   1.038731E+06	   9.313320E+07	  -3.428064E+07	  -5.946777E+07
   19.0000	   6.901452E+05	   2.662523E+06	   1.038987E+06	   9.167354E+07	  -3.146907E+07	  -5.910773E+07
   19.1000	   5.826278E+05	   2.455685E+06	   1.033610E+06	   8.962988E+07	  -2.833633E+07	  -5.824778E+07
   19.2000	   4.734651E+05	   2.235656E+06	   1.022858E+06	   8.700990E+07	  -2.490476E+07	  -5.686744E+07
   19.3000	   3.637412E+05	   2.003974E+06	   1.007066E+06	   8.382457E+07	  -2.120075E+07	  -5.494811E+07
   19.4000	   2.545207E+05	   1.762231E+06	   9.866357E+05	   8.008848E+07	  -1.725437E+07	  -5.247541E+07
   19.5000	   1.468346E+05	   1.512050E+06	   9.620179E+05	   7.581976E+07	  -1.309899E+07	  -4.943980E+07
   19.6000	   4.165574E+04	   1.255063E+06	   9.337121E+05	   7.104009E+07	  -8.771125E+06	  -4.583750E+07
   19.7000	  -6.011736E+04	   9.928944E+05	   9.022518E+05	   6.577442E+07	  -4.310061E+06	  -4.167120E+07
   19.8000	  -1.576816E+05	   7.271378E+05	   8.681911E+05	   6.005120E+07	   2.425342E+05	  -3.695091E+07
   19.9000	  -2.503440E+05	   4.593465E+05	   8.320942E+05	   5.390224E+07	   4.843094E+06	  -3.169451E+07
   20.0000	  -3.375383E+05	   1.910132E+05	   7.945180E+05	   4.736260E+07	   9.446638E+06	  -2.592827E+07
   20.1000	  -4.188352E+05	  -7.644503E+04	   7.560006E+05	   4.047034E+07	   1.400750E+07	  -1.968741E+07
   20.2000	  -4.939522E+05	  -3.416892E+05	   7.170424E+05	   3.326664E+07	   1.847984E+07	  -1.301632E+07
   20.3000	  -5.627513E+05	  -6.034660E+05	   6.780934E+05	   2.579549E+07	   2.281838E+07	  -5.968683E+06
   20.4000	  -6.252492E+05	  -8.606155E+05	   6.395411E+05	   1.810356E+07	   2.697920E+07	   1.392734E+06
   20.5000	  -6.816026E+05	  -1.112068E+06	   6.016974E+05	   1.023998E+07	   3.092037E+07	   8.996328E+06
   20.6000	  -7.321022E+05	  -1.356837E+06	   5.647871E+05	   2.256108E+06	   3.460272E+07	   1.676234E+07
   20.7000	  -7.771588E+05	  -1.594015E+06	   5.289441E+05	  -5.794666E+06	   3.799048E+07	   2.460368E+07
   20.8000	  -8.164932E+05	  -1.821779E+06	   4.945193E+05	  -1.385585E+07	   4.106152E+07	   3.243727E+07
   20.9000	  -8.499419E+05	  -2.038550E+06	   4.619132E+05	  -2.186760E+07	   4.379538E+07	   4.018399E+07
   21.0000	  -8.780995E+05	  -2.243758E+06	   4.312236E+05	  -2.976962E+07	   4.616706E+07	   4.775869E+07
   21.1000	  -9.016431E+05	  -2.436956E+06	   4.024266E+05	  -3.750155E+07	   4.815566E+07	   5.507628E+07
   21.2000	  -9.213094E+05	  -2.617801E+06	   3.753778E+05	  -4.500337E+07	   4.974496E+07	   6.205295E+07
   21.3000	  -9.378622E+05	  -2.786040E+06	   3.498155E+05	  -5.221622E+07	   5.092342E+07	   6.860779E+07
   21.4000	  -9.520635E+05	  -2.941472E+06	   3.253714E+05	  -5.908295E+07	   5.168438E+07	   7.466418E+07
   21.5000	  -9.646408E+05	  -3.083930E+06	   3.015852E+05	  -6.554864E+07	   5.202608E+07	   8.015092E+07
   21.6000	  -9.762624E+05	  -3.213264E+06	   2.779182E+05	  -7.156137E+07	   5.195151E+07	   8.500375E+07
   21.7000	  -9.875036E+05	  -3.329306E+06	   2.537769E+05	  -7.707266E+07	   5.146837E+07	   8.916641E+07
   21.8000	  -9.988276E+05	  -3.431866E+06	   2.285335E+05	  -8.203806E+07	   5.058870E+07	   9.259178E+07
   21.9000	  -1.010563E+06	  -3.520693E+06	   2.015500E+05	  -8.641747E+07	   4.932872E+07	   9.524238E+07
   22.0000	  -1.022885E+06	  -3.595495E+06	   1.722049E+05	  -9.017590E+07	   4.770817E+07	   9.709170E+07
   22.1000	  -1.035752E+06	  -3.655820E+06	   1.400526E+05	  -9.328269E+07	   4.574979E+07	   9.812242E+07
   22.2000	  -1.048597E+06	  -3.700695E+06	   1.056842E+05	  -9.570669E+07	   4.347676E+07	   9.831999E+07
   22.3000	  -1.061289E+06	  -3.730012E+06	   6.886702E+04	  -9.742387E+07	   4.091452E+07	   9.769705E+07
   22.4000	  -1.073684E+06	  -3.743822E+06	   2.916296E+04	  -9.841800E+07	   3.808976E+07	   9.628109E+07
   22.5000	  -1.085502E+06	  -3.742143E+06	  -1.380616E+04	  -9.867998E+07	   3.502991E+07	   9.411026E+07
   22.6000	  -1.096340E+06	  -3.724962E+06	  -6.034014E+04	  -9.820770E+07	   3.176228E+07	   9.123209E+07
   22.7000	  -1.105682E+06	  -3.692238E+06	  -1.106478E+05	  -9.700605E+07	   2.831415E+07	   8.770210E+07
   22.8000	  -1.112918E+06	  -3.643900E+06	  -1.648315E+05	  -9.508666E+07	   2.471221E+07	   8.358189E+07
   22.9000	  -1.117361E+06	  -3.579864E+06	  -2.228821E+05	  -9.246757E+07	   2.098247E+07	   7.893846E+07
   23.0000	  -1.118278E+06	  -3.500052E+06	  -2.846721E+05	  -8.917297E+07	   1.714997E+07	   7.384179E+07
   23.1000	  -1.114904E+06	  -3.404391E+06	  -3.499544E+05	  -8.523260E+07	   1.323879E+07	   6.836408E+07
   23.2000	  -1.106475E+06	  -3.292853E+06	  -4.183658E+05	  -8.068125E+07	   9.271802E+06	   6.257788E+07
   23.3000	  -1.092247E+06	  -3.165450E+06	  -4.894326E+05	  -7.555818E+07	   5.270777E+06	   5.655494E+07
   23.4000	  -1.071523E+06	  -3.022268E+06	  -5.625774E+05	  -6.990671E+07	   1.256279E+06	   5.036529E+07
   23.5000	  -1.043675E+06	  -2.863482E+06	  -6.371343E+05	  -6.377347E+07	  -2.752195E+06	   4.407591E+07
   23.6000	  -1.008318E+06	  -2.689513E+06	  -7.122901E+05	  -5.720283E+07	  -6.733572E+06	   3.774254E+07
   23.7000	  -9.654738E+05	  -2.501288E+06	  -7.871254E+05	  -5.023229E+07	  -1.066344E+07	   3.140996E+07
   23.8000	  -9.148631E+05	  -2.299530E+06	  -8.609469E+05	  -4.291589E+07	  -1.452608E+07	   2.514530E+07
   23.9000	  -8.562862E+05	  -2.085010E+06	  -9.330406E+05	  -3.531046E+07	  -1.830728E+07	   1.901027E+07
   24.0000	  -7.896616E+05	  -1.858598E+06	  -1.002676E+06	  -2.747413E+07	  -2.199365E+07	   1.305923E+07
   24.1000	  -7.150273E+05	  -1.621246E+06	  -1.069113E+06	  -1.946576E+07	  -2.557238E+07	   7.338992E+06
   24.2000	  -6.325442E+05	  -1.373992E+06	  -1.131615E+06	  -1.134441E+07	  -2.903103E+07	   1.888828E+06
   24.3000	  -5.424941E+05	  -1.117967E+06	  -1.189462E+06	  -3.168708E+06	  -3.235738E+07	  -3.259346E+06
   24.4000	  -4.452780E+05	  -8.543854E+05	  -1.241963E+06	   5.003408E+06	  -3.553926E+07	  -8.080569E+06
   24.5000	  -3.414025E+05	  -5.845368E+05	  -1.288462E+06	   1.311546E+07	  -3.856458E+07	  -1.255650E+07
   24.6000	  -2.314844E+05	  -3.097903E+05	  -1.328350E+06	   2.111238E+07	  -4.142125E+07	  -1.667464E+07
   24.7000	  -1.162310E+05	  -3.158093E+04	  -1.361068E+06	   2.894112E+07	  -4.409697E+07	  -2.042794E+07
   24.8000	   3.566466E+03	   2.485984E+05	  -1.386126E+06	   3.655085E+07	  -4.657954E+07	  -2.381390E+07
   24.9000	   1.270452E+05	   5.292060E+05	  -1.403094E+06	   4.389306E+07	  -4.885678E+07	  -2.683417E+07
   25.0000	   2.532838E+05	   8.086618E+05	  -1.411615E+06	   5.092200E+07	  -5.091665E+07	  -2.949366E+07
   25.1000	   3.813123E+05	   1.085360E+06	  -1.411407E+06	   5.759462E+07	  -5.274733E+07	  -3.180002E+07
   25.2000	   5.101280E+05	   1.357679E+06	  -1.402260E+06	   6.387080E+07	  -5.433744E+07	  -3.376306E+07
   25.3000	   6.387054E+05	   1.623999E+06	  -1.384048E+06	   6.971351E+07	  -5.567600E+07	  -3.539419E+07
   25.4000	   7.660093E+05	   1.882702E+06	  -1.356714E+06	   7.508862E+07	  -5.675290E+07	  -3.670592E+07
   25.5000	   8.910043E+05	   2.132202E+06	  -1.320284E+06	   7.996532E+07	  -5.755876E+07	  -3.771152E+07
   25.6000	   1.012668E+06	   2.370939E+06	  -1.274852E+06	   8.431598E+07	  -5.808524E+07	  -3.842461E+07
   25.7000	   1.130000E+06	   2.597407E+06	  -1.220590E+06	   8.811625E+07	  -5.832524E+07	  -3.885904E+07
   25.8000	   1.242027E+06	   2.810155E+06	  -1.157738E+06	   9.134494E+07	  -5.827292E+07	  -3.902862E+07
   25.9000	   1.347817E+06	   3.007800E+06	  -1.086599E+06	   9.398433E+07	  -5.792396E+07	  -3.894691E+07
   26.0000	   1.446482E+06	   3.189038E+06	  -1.007544E+06	   9.601983E+07	  -5.727560E+07	  -3.862734E+07
   26.1000	   1.537181E+06	   3.352654E+06	  -9.210010E+05	   9.744029E+07	  -5.632680E+07	  -3.808314E+07
   26.2000	   1.619135E+06	   3.497530E+06	  -8.274513E+05	   9.823790E+07	  -5.507828E+07	  -3.732738E+07
   26.3000	   1.691624E+06	   3.622658E+06	  -7.274316E+05	   9.840821E+07	  -5.353273E+07	  -3.637284E+07
   26.4000	   1.754029E+06	   3.727109E+06	  -6.215413E+05	   9.794959E+07	  -5.169521E+07	  -3.522615E+07
   26.5000	   1.805767E+06	   3.810094E+06	  -5.104168E+05	   9.686357E+07	  -4.957271E+07	  -3.389800E+07
   26.6000	   1.846328E+06	   3.870982E+06	  -3.947122E+05	   9.515514E+07	  -4.717418E+07	  -3.240295E+07
   26.7000	   1.875270E+06	   3.909270E+06	  -2.751169E+05	   9.283295E+07	  -4.451030E+07	  -3.075615E+07
   26.8000	   1.892214E+06	   3.924585E+06	  -1.523478E+05	   8.990898E+07	  -4.159350E+07	  -2.897364E+07
   26.9000	   1.896865E+06	   3.916704E+06	  -2.714746E+04	   8.639817E+07	  -3.843804E+07	  -2.707244E+07
   27.0000	   1.888992E+06	   3.885532E+06	   9.972271E+04	   8.231936E+07	  -3.505974E+07	  -2.507078E+07
   27.1000	   1.868443E+06	   3.831120E+06	   2.274857E+05	   7.769415E+07	  -3.147592E+07	  -2.298821E+07
   27.2000	   1.835135E+06	   3.753658E+06	   3.553530E+05	   7.254800E+07	  -2.770536E+07	  -2.084565E+07
   27.3000	   1.789056E+06	   3.653484E+06	   4.825275E+05	   6.690905E+07	  -2.376799E+07	  -1.866562E+07
   27.4000	   1.730268E+06	   3.531072E+06	   6.082108E+05	   6.080889E+07	  -1.968482E+07	  -1.647215E+07