
Predictions were generated on 08-Jul-2024 at 15:43:25 using HydroDyn Driver, compiled on Jul  8 2024 at 15:37:46 as a 64-bit application using double precision at commit -128-NOTFOUND
 linked with  NWTC Subroutine Library

Description from the driver input file: NREL 5.0 MW offshore fixed-bottom HydroDyn input properties for the OC4 Jacket.

Time	Wave1Elev	HydroFxi	HydroFyi	HydroFzi	HydroMxi	HydroMyi	HydroMzi
(s)	(m)	(N)	(N)	(N)	(N-m)	(N-m)	(N-m)
    0.0000	  -3.151849E-01	  -1.099997E+05	   7.960388E+01	   8.020970E+06	   2.324428E+03	   2.877348E+06	   6.349047E-04
    0.0100	  -3.103816E-01	  -7.767386E+05	  -1.612326E+05	   2.847815E+06	  -4.739344E+06	   2.226316E+07	  -1.816737E+04
    0.0200	  -3.055784E-01	  -4.058742E+05	  -1.661072E+05	   2.856865E+06	  -4.919282E+06	   1.132631E+07	  -5.426178E+04
    0.0300	  -3.007751E-01	  -1.260049E+05	  -4.589227E+04	   2.870656E+06	  -1.452120E+06	   2.990341E+06	  -7.487799E+04
    0.0400	  -2.959719E-01	  -7.191027E+04	   1.622466E+05	   2.887386E+06	   4.589179E+06	   1.192094E+06	  -7.769710E+04
    0.0500	  -2.911686E-01	  -2.880772E+05	   3.680598E+05	   2.904869E+06	   1.058717E+07	   7.243903E+06	  -3.183536E+04
    0.0600	  -2.863654E-01	  -5.866898E+05	   4.715682E+05	   2.921021E+06	   1.363889E+07	   1.569514E+07	   5.834858E+04
    0.0700	  -2.815621E-01	  -7.364464E+05	   4.462363E+05	   2.933940E+06	   1.297878E+07	   1.982898E+07	   1.822712E+05
    0.0800	  -2.767589E-01	  -6.017558E+05	   3.371327E+05	   2.942175E+06	   9.922570E+06	   1.571685E+07	   3.193486E+05
    0.0900	  -2.719556E-01	  -2.500153E+05	   2.306822E+05	   2.944810E+06	   6.984292E+06	   5.342975E+06	   4.440740E+05
    0.1000	  -2.671524E-01	   1.262458E+05	   1.870297E+05	   2.941581E+06	   5.905586E+06	  -5.672132E+06	   5.290725E+05
    0.1100	  -2.623492E-01	   3.145815E+05	   1.963272E+05	   2.932884E+06	   6.382940E+06	  -1.113447E+07	   5.567779E+05
    0.1200	  -2.575459E-01	   2.481244E+05	   1.944333E+05	   2.919833E+06	   6.528063E+06	  -9.100758E+06	   5.197981E+05
    0.1300	  -2.527426E-01	   2.141832E+04	   1.107934E+05	   2.904107E+06	   4.265748E+06	  -2.334898E+06	   4.240893E+05
    0.1400	  -2.479394E-01	  -1.616086E+05	  -6.751091E+04	   2.887740E+06	  -7.968888E+05	   3.208061E+06	   2.914655E+05
    0.1500	  -2.431362E-01	  -1.407948E+05	  -2.870356E+05	   2.872797E+06	  -7.115215E+06	   2.845940E+06	   1.517905E+05
    0.1600	  -2.383329E-01	   9.372430E+04	  -4.572274E+05	   2.861083E+06	  -1.205842E+07	  -3.725207E+06	   3.597873E+04
    0.1700	  -2.335297E-01	   4.096690E+05	  -5.168650E+05	   2.853915E+06	  -1.384541E+07	  -1.267195E+07	  -3.304077E+04
    0.1800	  -2.287264E-01	   5.817158E+05	  -4.691028E+05	   2.851871E+06	  -1.256484E+07	  -1.744393E+07	  -4.790504E+04
    0.1900	  -2.239232E-01	   5.249759E+05	  -3.803356E+05	   2.854978E+06	  -1.014211E+07	  -1.559010E+07	  -1.267734E+04
    0.2000	  -2.191199E-01	   2.573331E+05	  -3.265021E+05	   2.862612E+06	  -8.774765E+06	  -7.643716E+06	   4.960635E+04
    0.2100	  -2.143167E-01	  -4.696736E+04	  -3.406213E+05	   2.873643E+06	  -9.405338E+06	   1.312106E+06	   1.133083E+05
    0.2200	  -2.095135E-01	  -1.949656E+05	  -3.896384E+05	   2.886617E+06	  -1.104876E+07	   5.650664E+06	   1.523130E+05
    0.2300	  -2.047102E-01	  -1.368057E+05	  -4.064574E+05	   2.899778E+06	  -1.173014E+07	   3.928738E+06	   1.430112E+05
    0.2400	  -1.999070E-01	   6.741102E+04	  -3.403928E+05	   2.911415E+06	  -9.956488E+06	  -2.095681E+06	   7.609328E+04
    0.2500	  -1.951037E-01	   2.258578E+05	  -1.999688E+05	   2.919983E+06	  -5.966052E+06	  -6.820736E+06	  -4.869856E+04
    0.2600	  -1.973701E-01	   2.025168E+05	  -4.816112E+04	   2.924844E+06	  -1.589940E+06	  -6.297327E+06	  -2.188848E+05
    0.2700	  -1.996364E-01	  -3.004997E+04	   4.093181E+04	   2.925048E+06	   1.010623E+06	   3.145862E+05	  -4.166713E+05
    0.2800	  -2.019027E-01	  -3.449375E+05	   3.531768E+04	   2.920775E+06	   8.965060E+05	   9.331949E+06	  -6.182390E+05
    0.2900	  -2.041691E-01	  -5.635662E+05	  -3.480022E+04	   2.912782E+06	  -1.063937E+06	   1.556580E+07	  -8.024104E+05
    0.3000	  -2.064354E-01	  -5.634779E+05	  -9.943852E+04	   2.902316E+06	  -2.847168E+06	   1.545968E+07	  -9.514048E+05
    0.3100	  -2.087017E-01	  -3.622595E+05	  -1.004860E+05	   2.890864E+06	  -2.778410E+06	   9.532323E+06	  -1.054854E+06
    0.3200	  -2.109681E-01	  -1.003428E+05	  -3.100982E+04	   2.879977E+06	  -6.748607E+05	   1.875020E+06	  -1.109403E+06
    0.3300	  -2.132344E-01	   5.303705E+04	   6.114152E+04	   2.871079E+06	   2.051843E+06	  -2.587710E+06	  -1.117834E+06
    0.3400	  -2.155007E-01	   1.162807E+04	   1.123429E+05	   2.865314E+06	   3.534894E+06	  -1.353481E+06	  -1.087410E+06
    0.3500	  -2.177671E-01	  -1.693814E+05	   9.049602E+04	   2.863396E+06	   2.832412E+06	   3.956561E+06	  -1.027542E+06
    0.3600	  -2.200334E-01	  -3.361218E+05	   1.858662E+04	   2.865530E+06	   6.140568E+05	   8.845905E+06	  -9.456252E+05
    0.3700	  -2.222997E-01	  -3.405040E+05	  -4.359737E+04	   2.871369E+06	  -1.372834E+06	   8.987521E+06	  -8.469052E+05
    0.3800	  -2.245661E-01	  -1.503117E+05	  -4.234404E+04	   2.880076E+06	  -1.553424E+06	   3.433740E+06	  -7.314426E+05
    0.3900	  -2.268324E-01	   1.464971E+05	   2.744088E+04	   2.890393E+06	   2.327788E+05	  -5.261816E+06	  -6.001849E+05
    0.4000	  -2.290987E-01	   3.870074E+05	   1.211965E+05	   2.900807E+06	   2.701086E+06	  -1.235945E+07	  -4.522242E+05
    0.4100	  -2.313651E-01	   4.514058E+05	   1.747763E+05	   2.909819E+06	   3.996846E+06	  -1.437256E+07	  -2.901791E+05
    0.4200	  -2.336314E-01	   3.293846E+05	   1.520057E+05	   2.916166E+06	   3.080171E+06	  -1.099982E+07	  -1.200490E+05
    0.4300	  -2.358977E-01	   1.352208E+05	   6.882123E+04	   2.918992E+06	   4.279668E+05	  -5.565632E+06	   5.036536E+04
    0.4400	  -2.381641E-01	   1.626455E+04	  -1.893241E+04	   2.917961E+06	  -2.323383E+06	  -2.352054E+06	   2.125008E+05
    0.4500	  -2.404304E-01	   6.124335E+04	  -5.632545E+04	   2.913254E+06	  -3.568652E+06	  -3.929582E+06	   3.576988E+05
    0.4600	  -2.426968E-01	   2.376382E+05	  -2.718433E+04	   2.905551E+06	  -2.836424E+06	  -9.335436E+06	   4.818746E+05
    0.4700	  -2.449631E-01	   4.170482E+05	   3.700738E+04	   2.895912E+06	  -1.047336E+06	  -1.481477E+07	   5.816681E+05
    0.4800	  -2.472294E-01	   4.633227E+05	   8.140358E+04	   2.885689E+06	   1.947794E+05	  -1.638983E+07	   6.607861E+05
    0.4900	  -2.494958E-01	   3.197382E+05	   7.210685E+04	   2.876309E+06	  -1.034991E+05	  -1.239969E+07	   7.206219E+05
    0.5000	  -2.517621E-01	   4.001425E+04	   2.023286E+04	   2.869112E+06	  -1.623173E+06	  -4.402029E+06	   7.620236E+05
    0.5100	  -2.616434E-01	  -2.324486E+05	  -2.547811E+04	   2.865546E+06	  -2.947712E+06	   3.442457E+06	   7.859869E+05
    0.5200	  -2.715246E-01	  -3.749101E+05	  -1.514411E+04	   2.865852E+06	  -2.626099E+06	   7.546843E+06	   7.913864E+05
    0.5300	  -2.814059E-01	  -3.474408E+05	   6.627211E+04	   2.870118E+06	  -2.212827E+05	   6.744682E+06	   7.772730E+05
    0.5400	  -2.912871E-01	  -2.291995E+05	   1.883918E+05	   2.877864E+06	   3.381972E+06	   3.335129E+06	   7.447174E+05
    0.5500	  -3.011684E-01	  -1.531896E+05	   2.962686E+05	   2.888133E+06	   6.584893E+06	   1.181560E+06	   6.950000E+05
    0.5600	  -3.110496E-01	  -2.118918E+05	   3.492038E+05	   2.899587E+06	   8.205518E+06	   2.961875E+06	   6.312094E+05
    0.5700	  -3.209309E-01	  -4.029667E+05	   3.465706E+05	   2.910734E+06	   8.230422E+06	   8.591506E+06	   5.562911E+05
    0.5800	  -3.308122E-01	  -6.247499E+05	   3.244437E+05	   2.920150E+06	   7.714894E+06	   1.509410E+07	   4.741578E+05
    0.5900	  -3.406934E-01	  -7.507596E+05	   3.263737E+05	   2.926632E+06	   7.930055E+06	   1.877457E+07	   3.849368E+05
    0.6000	  -3.505747E-01	  -7.018195E+05	   3.695930E+05	   2.929326E+06	   9.377097E+06	   1.731892E+07	   2.910887E+05
    0.6100	  -3.604559E-01	  -5.107233E+05	   4.325754E+05	   2.927850E+06	   1.142464E+07	   1.167977E+07	   1.915150E+05
    0.6200	  -3.703372E-01	  -2.872378E+05	   4.704537E+05	   2.922368E+06	   1.275851E+07	   5.054803E+06	   8.922299E+04
    0.6300	  -3.802184E-01	  -1.538152E+05	   4.488803E+05	   2.913555E+06	   1.236944E+07	   1.014266E+06	  -1.272688E+04
    0.6400	  -3.900997E-01	  -1.601464E+05	   3.683734E+05	   2.902526E+06	   1.026320E+07	   1.012116E+06	  -1.140359E+05
    0.6500	  -3.999810E-01	  -2.559116E+05	   2.637249E+05	   2.890739E+06	   7.444352E+06	   3.592155E+06	  -2.070255E+05
    0.6600	  -4.098622E-01	  -3.237920E+05	   1.783725E+05	   2.879755E+06	   5.169745E+06	   5.348992E+06	  -2.890040E+05
    0.6700	  -4.197435E-01	  -2.729941E+05	   1.355999E+05	   2.871050E+06	   4.110210E+06	   3.653832E+06	  -3.514833E+05
    0.6800	  -4.296247E-01	  -9.273801E+04	   1.233779E+05	   2.865823E+06	   3.910058E+06	  -1.790676E+06	  -3.860651E+05
    0.6900	  -4.395060E-01	   1.358985E+05	   1.045069E+05	   2.864824E+06	   3.483162E+06	  -8.608198E+06	  -3.819515E+05
    0.7000	  -4.493873E-01	   2.990071E+05	   4.715093E+04	   2.868264E+06	   1.903865E+06	  -1.347075E+07	  -3.306667E+05
    0.7100	  -4.592685E-01	   3.197779E+05	  -5.342009E+04	   2.875786E+06	  -9.597943E+05	  -1.413609E+07	  -2.294385E+05
    0.7200	  -4.691498E-01	   2.094671E+05	  -1.695783E+05	   2.886532E+06	  -4.293498E+06	  -1.093196E+07	  -8.384852E+04
    0.7300	  -4.790310E-01	   5.461568E+04	  -2.647328E+05	   2.899218E+06	  -7.020556E+06	  -6.382620E+06	   9.073955E+04
    0.7400	  -4.889123E-01	  -3.947439E+04	  -3.161412E+05	   2.912308E+06	  -8.467324E+06	  -3.561600E+06	   2.753120E+05
    0.7500	  -4.987935E-01	  -2.400625E+04	  -3.321837E+05	   2.924205E+06	  -8.868110E+06	  -3.897756E+06	   4.467382E+05
    0.7600	  -5.105693E-01	   7.206768E+04	  -3.423327E+05	   2.933677E+06	  -9.073662E+06	  -6.540654E+06	   5.865649E+05
    0.7700	  -5.223451E-01	   1.517862E+05	  -3.756835E+05	   2.939370E+06	  -9.926515E+06	  -8.695067E+06	   6.819643E+05
    0.7800	  -5.341210E-01	   1.244300E+05	  -4.363218E+05	   2.940603E+06	  -1.154331E+07	  -7.730984E+06	   7.256579E+05
    0.7900	  -5.458968E-01	  -2.598839E+04	  -5.022259E+05	   2.937363E+06	  -1.328376E+07	  -3.196656E+06	   7.228886E+05
    0.8000	  -5.576726E-01	  -2.477229E+05	  -5.385626E+05	   2.930072E+06	  -1.413824E+07	   3.391464E+06	   6.734586E+05
    0.8100	  -5.694484E-01	  -4.337148E+05	  -5.231015E+05	   2.919721E+06	  -1.346797E+07	   8.908522E+06	   5.961309E+05
    0.8200	  -5.812242E-01	  -5.053027E+05	  -4.603872E+05	   2.907663E+06	  -1.141749E+07	   1.106163E+07	   5.002751E+05
    0.8300	  -5.929999E-01	  -4.570791E+05	  -3.761669E+05	   2.895472E+06	  -8.750356E+06	   9.696531E+06	   4.037668E+05
    0.8400	  -6.047758E-01	  -3.618590E+05	  -2.993641E+05	   2.884737E+06	  -6.322652E+06	   6.940820E+06	   3.175600E+05
    0.8500	  -6.165516E-01	  -3.097031E+05	  -2.413850E+05	   2.876873E+06	  -4.478526E+06	   5.424556E+06	   2.509557E+05
    0.8600	  -6.283274E-01	  -3.612111E+05	  -1.918647E+05	   2.872934E+06	  -2.925359E+06	   6.921950E+06	   2.020030E+05
    0.8700	  -6.401032E-01	  -4.882693E+05	  -1.285157E+05	   2.873414E+06	  -1.019770E+06	   1.062179E+07	   1.629512E+05
    0.8800	  -6.518790E-01	  -6.194109E+05	  -3.897900E+04	   2.878305E+06	   1.595177E+06	   1.445330E+07	   1.199280E+05
    0.8900	  -6.636548E-01	  -6.557913E+05	   6.757569E+04	   2.886974E+06	   4.652538E+06	   1.554539E+07	   5.914785E+04
    0.9000	  -6.754306E-01	  -5.715426E+05	   1.645396E+05	   2.898348E+06	   7.380632E+06	   1.315362E+07	  -3.064765E+04
    0.9100	  -6.872064E-01	  -4.072317E+05	   2.230100E+05	   2.911042E+06	   8.944016E+06	   8.465762E+06	  -1.500901E+05
    0.9200	  -6.989822E-01	  -2.482091E+05	   2.297316E+05	   2.923511E+06	   8.965260E+06	   3.967899E+06	  -2.947460E+05
    0.9300	  -7.107580E-01	  -1.667332E+05	   1.937459E+05	   2.934246E+06	   7.718064E+06	   1.759633E+06	  -4.490328E+05
    0.9400	  -7.225338E-01	  -1.824287E+05	   1.375143E+05	   2.941983E+06	   5.867065E+06	   2.404388E+06	  -5.953189E+05
    0.9500	  -7.343096E-01	  -2.474508E+05	   8.006058E+04	   2.945815E+06	   3.975355E+06	   4.498248E+06	  -7.156102E+05
    0.9600	  -7.460855E-01	  -2.804168E+05	   2.480594E+04	   2.945315E+06	   2.149300E+06	   5.659621E+06	  -7.954231E+05
    0.9700	  -7.578612E-01	  -2.250908E+05	  -3.943152E+04	   2.940610E+06	   6.727288E+04	   4.240567E+06	  -8.280241E+05
    0.9800	  -7.696370E-01	  -8.875792E+04	  -1.246009E+05	   2.932390E+06	  -2.616968E+06	   4.450473E+05	  -8.143309E+05
    0.9900	  -7.814129E-01	   6.234753E+04	  -2.296493E+05	   2.921800E+06	  -5.872476E+06	  -3.804428E+06	  -7.636542E+05
    1.0000	  -7.931886E-01	   1.521982E+05	  -3.366669E+05	   2.910272E+06	  -9.178722E+06	  -6.299288E+06	  -6.899599E+05
    1.0100	  -8.024326E-01	   1.477264E+05	  -4.187659E+05	   2.899362E+06	  -1.175446E+07	  -6.066054E+06	  -6.099581E+05
    1.0200	  -8.116764E-01	   6.509941E+04	  -4.552117E+05	   2.890449E+06	  -1.299798E+07	  -3.590283E+06	  -5.370594E+05
    1.0300	  -8.209203E-01	  -2.354586E+04	  -4.418348E+05	   2.884645E+06	  -1.278979E+07	  -9.703103E+05	  -4.787902E+05
    1.0400	  -8.301643E-01	  -5.368595E+04	  -3.919443E+05	   2.882633E+06	  -1.151874E+07	  -7.779605E+04	  -4.339811E+05
    1.0500	  -8.394082E-01	  -5.449361E+01	  -3.238356E+05	   2.884652E+06	  -9.717197E+06	  -1.638691E+06	  -3.943771E+05
    1.0600	  -8.486521E-01	   9.404303E+04	  -2.491090E+05	   2.890452E+06	  -7.720736E+06	  -4.379272E+06	  -3.464813E+05
    1.0700	  -8.578961E-01	   1.600240E+05	  -1.661687E+05	   2.899326E+06	  -5.478962E+06	  -6.290932E+06	  -2.780931E+05
    1.0800	  -8.671399E-01	   1.401717E+05	  -6.651457E+04	   2.910194E+06	  -2.739383E+06	  -5.682968E+06	  -1.808770E+05
    1.0900	  -8.763839E-01	   3.925068E+04	   5.472017E+04	   2.921719E+06	   6.448088E+05	  -2.688506E+06	  -5.575025E+04
    1.1000	  -8.856278E-01	  -9.565539E+04	   1.893126E+05	   2.932463E+06	   4.438250E+06	   1.325719E+06	   8.504423E+04
    1.1100	  -8.948717E-01	  -1.923277E+05	   3.186415E+05	   2.941105E+06	   8.101598E+06	   4.257722E+06	   2.229011E+05
    1.1200	  -9.041156E-01	  -2.145126E+05	   4.215626E+05	   2.946618E+06	   1.102030E+07	   5.051368E+06	   3.332380E+05
    1.1300	  -9.133595E-01	  -1.720811E+05	   4.874952E+05	   2.948411E+06	   1.288598E+07	   3.989969E+06	   3.952125E+05
    1.1400	  -9.226035E-01	  -1.219568E+05	   5.194687E+05	   2.946412E+06	   1.378476E+07	   2.723951E+06	   3.956220E+05
    1.1500	  -9.318474E-01	  -1.179195E+05	   5.309612E+05	   2.941022E+06	   1.410558E+07	   2.807327E+06	   3.303793E+05
    1.1600	  -9.410912E-01	  -1.835827E+05	   5.344322E+05	   2.932867E+06	   1.420620E+07	   4.913290E+06	   2.089488E+05
    1.1700	  -9.503352E-01	  -2.938645E+05	   5.307124E+05	   2.923496E+06	   1.410432E+07	   8.296676E+06	   7.001928E+04
    1.1800	  -9.595791E-01	  -3.882280E+05	   5.129885E+05	   2.913895E+06	   1.359472E+07	   1.118055E+07	  -8.996404E+04
    1.1900	  -9.688231E-01	  -4.176966E+05	   4.725681E+05	   2.905349E+06	   1.241842E+07	   1.212778E+07	  -2.190678E+05
    1.2000	  -9.780669E-01	  -3.696987E+05	   4.068489E+05	   2.898959E+06	   1.049468E+07	   1.076499E+07	  -3.162513E+05
    1.2100	  -9.873109E-01	  -2.865256E+05	   3.271749E+05	   2.895580E+06	   8.151449E+06	   8.321892E+06	  -3.651544E+05
    1.2200	  -9.965548E-01	  -2.198361E+05	   2.494779E+05	   2.895646E+06	   5.852373E+06	   6.303008E+06	  -3.680623E+05
    1.2300	  -1.005799E+00	  -2.114294E+05	   1.878395E+05	   2.899146E+06	   4.009564E+06	   5.930046E+06	  -3.330885E+05
    1.2400	  -1.015043E+00	  -2.536923E+05	   1.433157E+05	   2.905584E+06	   2.657650E+06	   6.988988E+06	  -2.749870E+05
    1.2500	  -1.024287E+00	  -3.061182E+05	   1.078217E+05	   2.914119E+06	   1.567010E+06	   8.311910E+06	  -2.097571E+05
    1.2600	  -1.037015E+00	  -3.101205E+05	   7.008924E+04	   2.923660E+06	   4.168630E+05	   8.210448E+06	  -1.563160E+05
    1.2700	  -1.049743E+00	  -2.454176E+05	   2.420809E+04	   2.932958E+06	  -9.567428E+05	   6.106938E+06	  -1.136028E+05
    1.2800	  -1.062471E+00	  -1.296271E+05	  -2.586498E+04	   2.940899E+06	  -2.430544E+06	   2.530846E+06	  -9.244188E+04
    1.2900	  -1.075200E+00	  -1.045020E+04	  -6.935741E+04	   2.946600E+06	  -3.683587E+06	  -1.114943E+06	  -8.027601E+04
    1.3000	  -1.087928E+00	   6.434063E+04	  -9.841038E+04	   2.949474E+06	  -4.481922E+06	  -3.429248E+06	  -7.033909E+04
    1.3100	  -1.100656E+00	   7.930033E+04	  -1.133947E+05	   2.949324E+06	  -4.833828E+06	  -3.957416E+06	  -4.758944E+04
    1.3200	  -1.113385E+00	   5.719366E+04	  -1.237636E+05	   2.946302E+06	  -5.015042E+06	  -3.362122E+06	  -1.684248E+03
    1.3300	  -1.126113E+00	   4.313338E+04	  -1.394925E+05	   2.940950E+06	  -5.319104E+06	  -2.961172E+06	   7.600759E+04
    1.3400	  -1.138841E+00	   6.931480E+04	  -1.636352E+05	   2.934087E+06	  -5.840036E+06	  -3.699279E+06	   1.840353E+05
    1.3500	  -1.151570E+00	   1.344111E+05	  -1.895919E+05	   2.926728E+06	  -6.392596E+06	  -5.547799E+06	   3.164373E+05
    1.3600	  -1.164298E+00	   2.017990E+05	  -2.054714E+05	   2.919967E+06	  -6.638874E+06	  -7.452350E+06	   4.602093E+05
    1.3700	  -1.177026E+00	   2.230057E+05	  -2.009898E+05	   2.914795E+06	  -6.288294E+06	  -8.014634E+06	   6.027018E+05
    1.3800	  -1.189754E+00	   1.730670E+05	  -1.749744E+05	   2.911948E+06	  -5.315470E+06	  -6.521694E+06	   7.310698E+05
    1.3900	  -1.202483E+00	   6.333289E+04	  -1.368694E+05	   2.911810E+06	  -4.003997E+06	  -3.316896E+06	   8.375359E+05
    1.4000	  -1.215211E+00	  -6.800473E+04	  -9.690938E+04	   2.914395E+06	  -2.658359E+06	   4.787460E+05	   9.170951E+05
    1.4100	  -1.227939E+00	  -1.745374E+05	  -6.157731E+04	   2.919334E+06	  -1.471687E+06	   3.508500E+06	   9.660953E+05
    1.4200	  -1.240668E+00	  -2.325929E+05	  -2.812305E+04	   2.925942E+06	  -3.659497E+05	   5.081919E+06	   9.837861E+05
    1.4300	  -1.253396E+00	  -2.594662E+05	   9.893669E+03	   2.933368E+06	   8.461662E+05	   5.706999E+06	   9.695894E+05
    1.4400	  -1.266124E+00	  -2.912069E+05	   5.831432E+04	   2.940668E+06	   2.336693E+06	   6.440520E+06	   9.227962E+05
    1.4500	  -1.278853E+00	  -3.666619E+05	   1.128299E+05	   2.946929E+06	   3.982732E+06	   8.424731E+06	   8.435550E+05
    1.4600	  -1.291581E+00	  -4.801034E+05	   1.627964E+05	   2.951341E+06	   5.477948E+06	   1.150319E+07	   7.315947E+05
    1.4700	  -1.304309E+00	  -6.002189E+05	   1.943266E+05	   2.953377E+06	   6.421858E+06	   1.477591E+07	   5.901992E+05
    1.4800	  -1.317037E+00	  -6.752154E+05	   2.006767E+05	   2.952815E+06	   6.622362E+06	   1.674565E+07	   4.220197E+05
    1.4900	  -1.329766E+00	  -6.841589E+05	   1.842050E+05	   2.949828E+06	   6.152083E+06	   1.681502E+07	   2.334138E+05
    1.5000	  -1.342494E+00	  -6.312281E+05	   1.555163E+05	   2.944960E+06	   5.323290E+06	   1.511495E+07	   3.166665E+04
    1.5100	  -1.353503E+00	  -5.387735E+05	   1.237053E+05	   2.938974E+06	   4.403282E+06	   1.233734E+07	  -1.748563E+05
    1.5200	  -1.364512E+00	  -4.769628E+05	   9.119173E+04	   2.932929E+06	   3.463591E+06	   1.049465E+07	  -3.750258E+05
    1.5300	  -1.375521E+00	  -4.348659E+05	   5.237405E+04	   2.927710E+06	   2.341379E+06	   9.261355E+06	  -5.628067E+05
    1.5400	  -1.386531E+00	  -4.326375E+05	   1.287806E+03	   2.924190E+06	   8.629817E+05	   9.223424E+06	  -7.290129E+05
    1.5500	  -1.397540E+00	  -4.116528E+05	  -6.363594E+04	   2.922898E+06	  -1.017304E+06	   8.664173E+06	  -8.717383E+05
    1.5600	  -1.408549E+00	  -3.537668E+05	  -1.347260E+05	   2.924088E+06	  -3.075986E+06	   7.046982E+06	  -9.878542E+05
    1.5700	  -1.419558E+00	  -2.435924E+05	  -1.988841E+05	   2.927676E+06	  -4.931240E+06	   3.914609E+06	  -1.079338E+06
    1.5800	  -1.430567E+00	  -1.132507E+05	  -2.440909E+05	   2.933262E+06	  -6.232559E+06	   1.937212E+05	  -1.145162E+06
    1.5900	  -1.441576E+00	  -5.745818E+03	  -2.672316E+05	   2.940169E+06	  -6.889052E+06	  -2.870991E+06	  -1.184602E+06
    1.6000	  -1.452585E+00	   4.758039E+04	  -2.731841E+05	   2.947515E+06	  -7.042370E+06	  -4.374019E+06	  -1.193708E+06
    1.6100	  -1.463594E+00	   4.217195E+04	  -2.708612E+05	   2.954320E+06	  -6.951634E+06	  -4.186958E+06	  -1.169500E+06
    1.6200	  -1.474603E+00	   9.859744E+03	  -2.649092E+05	   2.959638E+06	  -6.751484E+06	  -3.238988E+06	  -1.107209E+06
    1.6300	  -1.485612E+00	  -7.811099E+03	  -2.519076E+05	   2.962700E+06	  -6.341406E+06	  -2.739582E+06	  -1.005185E+06
    1.6400	  -1.496621E+00	   6.500570E+03	  -2.257493E+05	   2.963062E+06	  -5.543846E+06	  -3.188339E+06	  -8.633473E+05
    1.6500	  -1.507631E+00	   4.329084E+04	  -1.792045E+05	   2.960644E+06	  -4.148893E+06	  -4.301322E+06	  -6.867049E+05
    1.6600	  -1.518640E+00	   6.250168E+04	  -1.133551E+05	   2.955784E+06	  -2.189546E+06	  -4.902074E+06	  -4.790584E+05
    1.6700	  -1.529649E+00	   3.661177E+04	  -3.687268E+04	   2.949140E+06	   7.926701E+04	  -4.180558E+06	  -2.501499E+05
    1.6800	  -1.540658E+00	  -4.648738E+04	   3.686207E+04	   2.941624E+06	   2.264885E+06	  -1.774987E+06	  -8.417842E+03
    1.6900	  -1.551667E+00	  -1.549667E+05	   9.993823E+04	   2.934229E+06	   4.134607E+06	   1.393949E+06	   2.352135E+05
    1.7000	  -1.562676E+00	  -2.497922E+05	   1.497196E+05	   2.927973E+06	   5.609064E+06	   4.194640E+06	   4.748775E+05
    1.7100	  -1.573685E+00	  -3.030091E+05	   1.916791E+05	   2.923778E+06	   6.845597E+06	   5.817009E+06	   7.051565E+05
    1.7200	  -1.584694E+00	  -3.200644E+05	   2.304443E+05	   2.922353E+06	   7.977204E+06	   6.422242E+06	   9.236883E+05
    1.7300	  -1.595703E+00	  -3.263476E+05	   2.659765E+05	   2.924078E+06	   9.001405E+06	   6.748947E+06	   1.130772E+06
    1.7400	  -1.606712E+00	  -3.519421E+05	   2.918159E+05	   2.928928E+06	   9.729529E+06	   7.668850E+06	   1.323411E+06
    1.7500	  -1.617721E+00	  -4.092322E+05	   2.988642E+05	   2.936455E+06	   9.897075E+06	   9.535683E+06	   1.495489E+06
    1.7600	  -1.618133E+00	  -4.722549E+05	   2.813602E+05	   2.945507E+06	   9.337762E+06	   1.160904E+07	   1.636875E+06
    1.7700	  -1.618544E+00	  -5.215824E+05	   2.415973E+05	   2.955319E+06	   8.121059E+06	   1.328818E+07	   1.734642E+06
    1.7800	  -1.618956E+00	  -5.370262E+05	   1.890727E+05	   2.964710E+06	   6.527037E+06	   1.397780E+07	   1.773957E+06
    1.7900	  -1.619367E+00	  -5.074871E+05	   1.331375E+05	   2.972512E+06	   4.831532E+06	   1.334638E+07	   1.743987E+06
    1.8000	  -1.619779E+00	  -4.476650E+05	   7.946809E+04	   2.977753E+06	   3.203255E+06	   1.181586E+07	   1.641197E+06
    1.8100	  -1.620191E+00	  -3.828678E+05	   2.670798E+04	   2.979793E+06	   1.605658E+06	   1.011877E+07	   1.468878E+06
    1.8200	  -1.620602E+00	  -3.309255E+05	  -2.981675E+04	   2.978362E+06	  -9.505259E+04	   8.770669E+06	   1.239077E+06
    1.8300	  -1.621014E+00	  -3.015154E+05	  -9.229950E+04	   2.973604E+06	  -1.960969E+06	   8.053781E+06	   9.682464E+05
    1.8400	  -1.621425E+00	  -2.776046E+05	  -1.577324E+05	   2.966084E+06	  -3.903804E+06	   7.473546E+06	   6.746919E+05
    1.8500	  -1.621837E+00	  -2.397230E+05	  -2.163196E+05	   2.956667E+06	  -5.638322E+06	   6.467535E+06	   3.735104E+05
    1.8600	  -1.622248E+00	  -1.677639E+05	  -2.593789E+05	   2.946464E+06	  -6.913034E+06	   4.455622E+06	   7.970119E+04
    1.8700	  -1.622660E+00	  -7.083205E+04	  -2.816825E+05	   2.936720E+06	  -7.578076E+06	   1.710830E+06	  -2.006195E+05
    1.8800	  -1.623071E+00	   3.076744E+04	  -2.867285E+05	   2.928638E+06	  -7.738826E+06	  -1.168040E+06	  -4.636251E+05
    1.8900	  -1.623483E+00	   1.081755E+05	  -2.800136E+05	   2.923228E+06	  -7.558787E+06	  -3.333513E+06	  -7.100270E+05
    1.9000	  -1.623894E+00	   1.510004E+05	  -2.683950E+05	   2.921168E+06	  -7.241152E+06	  -4.478186E+06	  -9.422065E+05
    1.9100	  -1.624306E+00	   1.622503E+05	  -2.528227E+05	   2.922718E+06	  -6.816501E+06	  -4.685826E+06	  -1.163268E+06
    1.9200	  -1.624717E+00	   1.620770E+05	  -2.308289E+05	   2.927682E+06	  -6.215270E+06	  -4.541302E+06	  -1.371040E+06
    1.9300	  -1.625129E+00	   1.696579E+05	  -1.980955E+05	   2.935482E+06	  -5.313256E+06	  -4.602964E+06	  -1.560881E+06
    1.9400	  -1.625540E+00	   1.928651E+05	  -1.536963E+05	   2.945206E+06	  -4.084102E+06	  -5.101662E+06	  -1.722902E+06
    1.9500	  -1.625952E+00	   2.247820E+05	  -1.032220E+05	   2.955711E+06	  -2.690804E+06	  -5.840330E+06	  -1.844944E+06
    1.9600	  -1.626363E+00	   2.431354E+05	  -5.493353E+04	   2.965799E+06	  -1.373270E+06	  -6.175914E+06	  -1.914296E+06
    1.9700	  -1.626775E+00	   2.275786E+05	  -1.669097E+04	   2.974347E+06	  -3.590861E+05	  -5.522319E+06	  -1.922071E+06
    1.9800	  -1.627186E+00	   1.777893E+05	   8.762710E+03	   2.980422E+06	   2.736512E+05	  -3.878053E+06	  -1.864334E+06
    1.9900	  -1.627598E+00	   1.073790E+05	   2.467050E+04	   2.983389E+06	   6.216059E+05	  -1.646652E+06	  -1.744149E+06
    2.0000	  -1.628009E+00	   4.246478E+04	   3.700590E+04	   2.982979E+06	   8.608614E+05	   4.050673E+05	  -1.570507E+06
    2.0100	  -1.619600E+00	   9.405469E+03	   4.976176E+04	   2.978917E+06	   1.109158E+06	   1.507124E+06	  -1.357624E+06
    2.0200	  -1.611190E+00	  -1.360524E+03	   6.351700E+04	   2.972148E+06	   1.384940E+06	   1.933220E+06	  -1.119952E+06
    2.0300	  -1.602781E+00	   1.822464E+03	   7.487118E+04	   2.963527E+06	   1.590262E+06	   1.924183E+06	  -8.717320E+05
    2.0400	  -1.594372E+00	  -4.612539E+03	   7.988754E+04	   2.954130E+06	   1.611180E+06	   2.166464E+06	  -6.200926E+05
    2.0500	  -1.585962E+00	  -3.225857E+04	   7.771032E+04	   2.945100E+06	   1.423536E+06	   2.999732E+06	  -3.670285E+05
    2.0600	  -1.577553E+00	  -7.423976E+04	   7.229171E+04	   2.937468E+06	   1.143351E+06	   4.226103E+06	  -1.103568E+05
    2.0700	  -1.569143E+00	  -1.116621E+05	   6.941973E+04	   2.932068E+06	   9.400814E+05	   5.299312E+06	   1.559403E+05
    2.0800	  -1.560734E+00	  -1.262419E+05	   7.373010E+04	   2.929445E+06	   9.497543E+05	   5.692119E+06	   4.365944E+05
    2.0900	  -1.552324E+00	  -1.129923E+05	   8.448245E+04	   2.929790E+06	   1.151577E+06	   5.265363E+06	   7.326980E+05
    2.1000	  -1.543915E+00	  -8.052659E+04	   9.720656E+04	   2.932933E+06	   1.416334E+06	   4.275300E+06	   1.041079E+06
    2.1100	  -1.535505E+00	  -4.701258E+04	   1.066113E+05	   2.938386E+06	   1.591093E+06	   3.255426E+06	   1.350623E+06
    2.1200	  -1.527096E+00	  -2.068476E+04	   1.098073E+05	   2.945384E+06	   1.593159E+06	   2.446842E+06	   1.646159E+06
    2.1300	  -1.518686E+00	  -9.081843E+03	   1.084892E+05	   2.953019E+06	   1.473544E+06	   2.070161E+06	   1.906691E+06
    2.1400	  -1.510277E+00	  -6.857780E+03	   1.068748E+05	   2.960333E+06	   1.356780E+06	   1.969936E+06	   2.110138E+06
    2.1500	  -1.501868E+00	   2.239458E+03	   1.082057E+05	   2.966420E+06	   1.338790E+06	   1.670688E+06	   2.236084E+06
    2.1600	  -1.493458E+00	   3.002786E+04	   1.126212E+05	   2.970545E+06	   1.424871E+06	   8.253089E+05	   2.270359E+06
    2.1700	  -1.485049E+00	   7.618870E+04	   1.168752E+05	   2.972280E+06	   1.521423E+06	  -5.602174E+05	   2.209738E+06
    2.1800	  -1.476639E+00	   1.264478E+05	   1.166260E+05	   2.971522E+06	   1.502423E+06	  -2.073531E+06	   2.058124E+06
    2.1900	  -1.468230E+00	   1.604849E+05	   1.104657E+05	   2.968504E+06	   1.327098E+06	  -3.125360E+06	   1.831010E+06
    2.2000	  -1.459820E+00	   1.670069E+05	   1.005281E+05	   2.963738E+06	   1.057402E+06	  -3.388700E+06	   1.546238E+06
    2.2100	  -1.451411E+00	   1.507494E+05	   9.177219E+04	   2.957912E+06	   8.371869E+05	  -3.002534E+06	   1.223514E+06
    2.2200	  -1.443001E+00	   1.210797E+05	   8.890573E+04	   2.951851E+06	   8.026201E+05	  -2.237401E+06	   8.798552E+05
    2.2300	  -1.434592E+00	   9.806078E+04	   9.311580E+04	   2.946352E+06	   9.868831E+05	  -1.674522E+06	   5.275221E+05
    2.2400	  -1.426182E+00	   9.504005E+04	   1.025638E+05	   2.942095E+06	   1.334828E+06	  -1.699290E+06	   1.729339E+05
    2.2500	  -1.417773E+00	   1.127654E+05	   1.142050E+05	   2.939544E+06	   1.756272E+06	  -2.329674E+06	  -1.797954E+05
    2.2600	  -1.406036E+00	   1.388202E+05	   1.264450E+05	   2.938645E+06	   2.203620E+06	  -3.228045E+06	  -5.295686E+05
    2.2700	  -1.394298E+00	   1.420041E+05	   1.400065E+05	   2.939679E+06	   2.697020E+06	  -3.451871E+06	  -8.719658E+05
    2.2800	  -1.382561E+00	   1.215935E+05	   1.565016E+05	   2.942350E+06	   3.282954E+06	  -2.977992E+06	  -1.199474E+06
    2.2900	  -1.370823E+00	   8.134794E+04	   1.777463E+05	   2.946150E+06	   4.014433E+06	  -1.913367E+06	  -1.503868E+06
    2.3000	  -1.359086E+00	   4.397960E+04	   2.016185E+05	   2.950430E+06	   4.829906E+06	  -9.184308E+05	  -1.772520E+06
    2.3100	  -1.347348E+00	   1.819651E+04	   2.240714E+05	   2.954490E+06	   5.611974E+06	  -2.454387E+05	  -1.997649E+06
    2.3200	  -1.335611E+00	   9.520156E+03	   2.393000E+05	   2.957695E+06	   6.192034E+06	  -5.543375E+04	  -2.169093E+06
    2.3300	  -1.323874E+00	   6.161396E+03	   2.444889E+05	   2.959540E+06	   6.488683E+06	  -6.402060E+03	  -2.281553E+06
    2.3400	  -1.312136E+00	  -1.563690E+03	   2.378815E+05	   2.959744E+06	   6.450837E+06	   1.800599E+05	  -2.330752E+06
    2.3500	  -1.300399E+00	  -2.762245E+04	   2.226235E+05	   2.958295E+06	   6.170203E+06	   9.073182E+05	  -2.315611E+06
    2.3600	  -1.288661E+00	  -6.602939E+04	   2.003560E+05	   2.955346E+06	   5.694038E+06	   1.995835E+06	  -2.238430E+06
    2.3700	  -1.276924E+00	  -1.028936E+05	   1.728409E+05	   2.951294E+06	   5.072798E+06	   3.035343E+06	  -2.100144E+06
    2.3800	  -1.265187E+00	  -1.312424E+05	   1.381151E+05	   2.946734E+06	   4.247666E+06	   3.819889E+06	  -1.905302E+06
    2.3900	  -1.253449E+00	  -1.401141E+05	   9.562317E+04	   2.942284E+06	   3.200714E+06	   4.026562E+06	  -1.658242E+06