
Predictions were generated on 06-Nov-2020 at 16:25:26 using OpenFAST, compiled as a 64-bit application using double precision at commit -128-NOTFOUND
 linked with  NWTC Subroutine Library; ElastoDyn; InflowWind; AeroDyn

Description from the FAST input file: Elliptical wing test case for OLAF free vortex wake in AD15

Time	Wind1VelX	Wind1VelY	Wind1VelZ	OoPDefl1	IPDefl1	TwstDefl1	BldPitch1	Azimuth	RotSpeed	GenSpeed	TTDspFA	TTDspSS	TTDspTwst	Spn2MLxb1	Spn2MLyb1	RootFxb1	RootFyb1	RootFzb1	RootMxb1	RootMyb1	RootMzb1	RotTorq	LSSGagMya	LSSGagMza	YawBrFxp	YawBrFyp	YawBrFzp	YawBrMxp	YawBrMyp	YawBrMzp	TwrBsFxt	TwrBsFyt	TwrBsFzt	TwrBsMxt	TwrBsMyt	TwrBsMzt	RtTSR	RtVAvgxh	RtVAvgyh	RtVAvgzh	RtSkew	RtAeroFxh	RtAeroFyh	RtAeroFzh	RtAeroMxh	RtAeroMyh	RtAeroMzh	RtAeroPwr	RtAeroCp	RtAeroCq	RtAeroCt	B1N9Clrnc	B1N1Alpha	B1N1Cl	B1N1Cd	B1N1Cm	B1N1Fl	B1N1Fd	B1N1Fn	B1N1Ft	B1N1Vrel	B1N1AxInd	B1N1Fx	B1N1Fy	B1N1Ft	B1N1Fn	B1N1Mm	B1N2Alpha	B1N2Cl	B1N2Cd	B1N2Cm	B1N2Fl	B1N2Fd	B1N2Fn	B1N2Ft	B1N2Vrel	B1N2AxInd	B1N2Fx	B1N2Fy	B1N2Ft	B1N2Fn	B1N2Mm	B1N3Alpha	B1N3Cl	B1N3Cd	B1N3Cm	B1N3Fl	B1N3Fd	B1N3Fn	B1N3Ft	B1N3Vrel	B1N3AxInd	B1N3Fx	B1N3Fy	B1N3Ft	B1N3Fn	B1N3Mm	B1N4Alpha	B1N4Cl	B1N4Cd	B1N4Cm	B1N4Fl	B1N4Fd	B1N4Fn	B1N4Ft	B1N4Vrel	B1N4AxInd	B1N4Fx	B1N4Fy	B1N4Ft	B1N4Fn	B1N4Mm	B1N5Alpha	B1N5Cl	B1N5Cd	B1N5Cm	B1N5Fl	B1N5Fd	B1N5Fn	B1N5Ft	B1N5Vrel	B1N5AxInd	B1N5Fx	B1N5Fy	B1N5Ft	B1N5Fn	B1N5Mm	B1N6Alpha	B1N6Cl	B1N6Cd	B1N6Cm	B1N6Fl	B1N6Fd	B1N6Fn	B1N6Ft	B1N6Vrel	B1N6AxInd	B1N6Fx	B1N6Fy	B1N6Ft	B1N6Fn	B1N6Mm	B1N7Alpha	B1N7Cl	B1N7Cd	B1N7Cm	B1N7Fl	B1N7Fd	B1N7Fn	B1N7Ft	B1N7Vrel	B1N7AxInd	B1N7Fx	B1N7Fy	B1N7Ft	B1N7Fn	B1N7Mm	B1N8Alpha	B1N8Cl	B1N8Cd	B1N8Cm	B1N8Fl	B1N8Fd	B1N8Fn	B1N8Ft	B1N8Vrel	B1N8AxInd	B1N8Fx	B1N8Fy	B1N8Ft	B1N8Fn	B1N8Mm	B1N9Alpha	B1N9Cl	B1N9Cd	B1N9Cm	B1N9Fl	B1N9Fd	B1N9Fn	B1N9Ft	B1N9Vrel	B1N9AxInd	B1N9Fx	B1N9Fy	B1N9Ft	B1N9Fn	B1N9Mm	B1N1Gam	B1N2Gam	B1N3Gam	B1N4Gam	B1N5Gam	B1N6Gam	B1N7Gam	B1N8Gam	B1N9Gam	B2N1Gam	B2N2Gam	B2N3Gam	B2N4Gam	B2N5Gam	B2N6Gam	B2N7Gam	B2N8Gam	B2N9Gam	B3N1Gam	B3N2Gam	B3N3Gam	B3N4Gam	B3N5Gam	B3N6Gam	B3N7Gam	B3N8Gam	B3N9Gam
(s)	(m/s)	(m/s)	(m/s)	(m)	(m)	(deg)	(deg)	(deg)	(rpm)	(rpm)	(m)	(m)	(deg)	(kN-m)	(kN-m)	(kN)	(kN)	(kN)	(kN-m)	(kN-m)	(kN-m)	(kN-m)	(kN-m)	(kN-m)	(kN)	(kN)	(kN)	(kN-m)	(kN-m)	(kN-m)	(kN)	(kN)	(kN)	(kN-m)	(kN-m)	(kN-m)	(-)	(m/s)	(m/s)	(m/s)	(deg)	(N)	(N)	(N)	(N-m)	(N-m)	(N-m)	(W)	(-)	(-)	(-)	INVALID	(deg)	(-)	(-)	(-)	(N/m)	(N/m)	(N/m)	(N/m)	(m/s)	(-)	(N/m)	(N/m)	(N/m)	(N/m)	(N-m/m)	(deg)	(-)	(-)	(-)	(N/m)	(N/m)	(N/m)	(N/m)	(m/s)	(-)	(N/m)	(N/m)	(N/m)	(N/m)	(N-m/m)	(deg)	(-)	(-)	(-)	(N/m)	(N/m)	(N/m)	(N/m)	(m/s)	(-)	(N/m)	(N/m)	(N/m)	(N/m)	(N-m/m)	(deg)	(-)	(-)	(-)	(N/m)	(N/m)	(N/m)	(N/m)	(m/s)	(-)	(N/m)	(N/m)	(N/m)	(N/m)	(N-m/m)	(deg)	(-)	(-)	(-)	(N/m)	(N/m)	(N/m)	(N/m)	(m/s)	(-)	(N/m)	(N/m)	(N/m)	(N/m)	(N-m/m)	(deg)	(-)	(-)	(-)	(N/m)	(N/m)	(N/m)	(N/m)	(m/s)	(-)	(N/m)	(N/m)	(N/m)	(N/m)	(N-m/m)	(deg)	(-)	(-)	(-)	(N/m)	(N/m)	(N/m)	(N/m)	(m/s)	(-)	(N/m)	(N/m)	(N/m)	(N/m)	(N-m/m)	(deg)	(-)	(-)	(-)	(N/m)	(N/m)	(N/m)	(N/m)	(m/s)	(-)	(N/m)	(N/m)	(N/m)	(N/m)	(N-m/m)	(deg)	(-)	(-)	(-)	(N/m)	(N/m)	(N/m)	(N/m)	(m/s)	(-)	(N/m)	(N/m)	(N/m)	(N/m)	(N-m/m)	(m^2/s)	(m^2/s)	(m^2/s)	(m^2/s)	(m^2/s)	(m^2/s)	(m^2/s)	(m^2/s)	(m^2/s)	(m^2/s)	(m^2/s)	(m^2/s)	(m^2/s)	(m^2/s)	(m^2/s)	(m^2/s)	(m^2/s)	(m^2/s)	INVALID	INVALID	INVALID	INVALID	INVALID	INVALID	INVALID	INVALID	INVALID
    0.0000	 1.000E+00	 0.000E+00	 1.000E-01	 0.000E+00	 0.000E+00	 0.000E+00	 0.000E+00	 2.700E+02	 0.000E+00	 0.000E+00	 0.000E+00	 0.000E+00	 0.000E+00	-1.877E-18	-3.065E-02	 0.000E+00	 4.903E-02	 6.005E-18	-1.226E-01	 0.000E+00	 0.000E+00	 0.000E+00	 0.000E+00	 0.000E+00	 0.000E+00	 0.000E+00	-9.807E-02	 0.000E+00	 0.000E+00	 0.000E+00	 0.000E+00	 0.000E+00	-5.884E+03	 0.000E+00	 0.000E+00	 0.000E+00	 0.000E+00	 1.000E+00	-1.000E-01	-1.225E-17	 5.711E+00	-1.512E-01	-1.512E+00	-2.120E-19	 3.780E+00	-3.780E-01	-4.630E-17	 0.000E+00	 0.000E+00	 1.572E-02	-3.143E-03	 0.000E+00	 5.711E+00	 6.262E-01	 0.000E+00	 0.000E+00	 3.874E-06	-5.294E-23	 3.855E-06	 3.855E-07	 1.005E+00	 0.000E+00	-3.855E-07	 3.855E-06	 3.855E-07	 3.855E-06	 0.000E+00	 5.711E+00	 6.262E-01	 0.000E+00	 0.000E+00	 1.227E-01	 0.000E+00	 1.221E-01	 1.221E-02	 1.005E+00	 0.000E+00	-1.221E-02	 1.221E-01	 1.221E-02	 1.221E-01	 0.000E+00	 5.711E+00	 6.262E-01	 0.000E+00	 0.000E+00	 2.569E-01	 3.469E-18	 2.556E-01	 2.556E-02	 1.005E+00	 0.000E+00	-2.556E-02	 2.556E-01	 2.556E-02	 2.556E-01	 0.000E+00	 5.711E+00	 6.262E-01	 0.000E+00	 0.000E+00	 3.500E-01	 0.000E+00	 3.483E-01	 3.483E-02	 1.005E+00	 0.000E+00	-3.483E-02	 3.483E-01	 3.483E-02	 3.483E-01	 0.000E+00	 5.711E+00	 6.262E-01	 0.000E+00	 0.000E+00	 3.871E-01	 0.000E+00	 3.852E-01	 3.852E-02	 1.005E+00	 0.000E+00	-3.852E-02	 3.852E-01	 3.852E-02	 3.852E-01	 0.000E+00	 5.711E+00	 6.262E-01	 0.000E+00	 0.000E+00	 3.622E-01	 0.000E+00	 3.604E-01	 3.604E-02	 1.005E+00	 0.000E+00	-3.604E-02	 3.604E-01	 3.604E-02	 3.604E-01	 0.000E+00	 5.711E+00	 6.262E-01	 0.000E+00	 0.000E+00	 2.794E-01	 0.000E+00	 2.780E-01	 2.780E-02	 1.005E+00	 0.000E+00	-2.780E-02	 2.780E-01	 2.780E-02	 2.780E-01	 0.000E+00	 5.711E+00	 6.262E-01	 0.000E+00	 0.000E+00	 1.519E-01	 1.735E-18	 1.511E-01	 1.511E-02	 1.005E+00	 0.000E+00	-1.511E-02	 1.511E-01	 1.511E-02	 1.511E-01	 0.000E+00	 5.711E+00	 6.262E-01	 0.000E+00	 0.000E+00	 3.874E-06	-5.294E-23	 3.855E-06	 3.855E-07	 1.005E+00	 0.000E+00	-3.855E-07	 3.855E-06	 3.855E-07	 3.855E-06	 0.000E+00	 3.147E-06	 9.966E-02	 2.087E-01	 2.843E-01	 3.144E-01	 2.942E-01	 2.269E-01	 1.234E-01	 3.147E-06	 0.000E+00	 0.000E+00	 0.000E+00	 0.000E+00	 0.000E+00	 0.000E+00	 0.000E+00	 0.000E+00	 0.000E+00	 0.000E+00	 0.000E+00	 0.000E+00	 0.000E+00	 0.000E+00	 0.000E+00	 0.000E+00	 0.000E+00	 0.000E+00
  100.0000	 1.000E+00	 0.000E+00	 1.000E-01	 0.000E+00	 0.000E+00	 0.000E+00	 0.000E+00	 2.700E+02	 0.000E+00	 0.000E+00	 0.000E+00	 0.000E+00	 0.000E+00	 7.993E-05	-2.985E-02	-1.512E-04	 4.752E-02	 6.005E-18	-1.188E-01	-3.780E-04	 8.712E-21	 3.780E-03	-3.780E-04	 8.712E-21	-1.512E-04	 1.850E-19	-9.655E-02	 3.780E-03	 5.501E-20	 3.780E-04	-1.512E-04	 1.850E-19	-5.884E+03	 3.780E-03	-1.512E-02	 3.780E-04	 0.000E+00	 1.000E+00	-1.000E-01	-1.225E-17	 5.711E+00	-8.757E-02	-1.152E+00	-1.227E-19	 2.880E+00	-2.189E-01	-2.681E-17	 0.000E+00	 0.000E+00	 1.197E-02	-1.820E-03	 0.000E+00	 4.167E+00	 4.569E-01	 0.000E+00	 0.000E+00	 3.046E-06	-2.647E-23	 3.038E-06	 2.213E-07	 1.043E+00	-4.048E-02	-2.213E-07	 3.038E-06	 2.213E-07	 3.038E-06	 0.000E+00	 4.340E+00	 4.759E-01	 0.000E+00	 0.000E+00	 9.313E-02	-8.674E-19	 9.286E-02	 7.047E-03	 1.004E+00	-1.529E-03	-7.047E-03	 9.286E-02	 7.047E-03	 9.286E-02	 0.000E+00	 4.347E+00	 4.767E-01	 0.000E+00	 0.000E+00	 1.953E-01	-1.735E-18	 1.948E-01	 1.480E-02	 1.004E+00	-1.489E-03	-1.480E-02	 1.948E-01	 1.480E-02	 1.948E-01	 0.000E+00	 4.347E+00	 4.768E-01	 0.000E+00	 0.000E+00	 2.661E-01	-3.469E-18	 2.654E-01	 2.018E-02	 1.004E+00	-1.489E-03	-2.018E-02	 2.654E-01	 2.018E-02	 2.654E-01	 0.000E+00	 4.348E+00	 4.768E-01	 0.000E+00	 0.000E+00	 2.943E-01	 3.469E-18	 2.935E-01	 2.231E-02	 1.004E+00	-1.489E-03	-2.231E-02	 2.935E-01	 2.231E-02	 2.935E-01	 0.000E+00	 4.348E+00	 4.768E-01	 0.000E+00	 0.000E+00	 2.754E-01	 0.000E+00	 2.746E-01	 2.088E-02	 1.004E+00	-1.489E-03	-2.088E-02	 2.746E-01	 2.088E-02	 2.746E-01	 0.000E+00	 4.347E+00	 4.767E-01	 0.000E+00	 0.000E+00	 2.124E-01	-3.469E-18	 2.118E-01	 1.610E-02	 1.004E+00	-1.489E-03	-1.610E-02	 2.118E-01	 1.610E-02	 2.118E-01	 0.000E+00	 4.343E+00	 4.763E-01	 0.000E+00	 0.000E+00	 1.154E-01	 0.000E+00	 1.150E-01	 8.737E-03	 1.004E+00	-1.501E-03	-8.737E-03	 1.150E-01	 8.737E-03	 1.150E-01	 0.000E+00	 4.167E+00	 4.569E-01	 0.000E+00	 0.000E+00	 3.046E-06	 0.000E+00	 3.038E-06	 2.213E-07	 1.043E+00	-4.048E-02	-2.213E-07	 3.038E-06	 2.213E-07	 3.038E-06	 0.000E+00	 2.383E-06	 7.569E-02	 1.587E-01	 2.163E-01	 2.392E-01	 2.239E-01	 1.727E-01	 9.377E-02	 2.383E-06	 0.000E+00	 0.000E+00	 0.000E+00	 0.000E+00	 0.000E+00	 0.000E+00	 0.000E+00	 0.000E+00	 0.000E+00	 0.000E+00	 0.000E+00	 0.000E+00	 0.000E+00	 0.000E+00	 0.000E+00	 0.000E+00	 0.000E+00	 0.000E+00
  200.0000	 1.000E+00	 0.000E+00	 1.000E-01	 0.000E+00	 0.000E+00	 0.000E+00	 0.000E+00	 2.700E+02	 0.000E+00	 0.000E+00	 0.000E+00	 0.000E+00	 0.000E+00	 1.262E-05	-3.023E-02	-2.393E-05	 4.824E-02	 6.005E-18	-1.206E-01	-5.984E-05	 1.383E-21	 1.980E-03	-5.984E-05	 1.383E-21	-2.393E-05	 9.697E-20	-9.727E-02	 1.980E-03	 8.711E-21	 5.984E-05	-2.393E-05	 9.697E-20	-5.884E+03	 1.980E-03	-2.393E-03	 5.984E-05	 0.000E+00	 1.000E+00	-1.000E-01	-1.225E-17	 5.711E+00	-8.758E-02	-1.152E+00	-1.227E-19	 2.880E+00	-2.189E-01	-2.681E-17	 0.000E+00	 0.000E+00	 1.197E-02	-1.821E-03	 0.000E+00	 4.167E+00	 4.569E-01	 0.000E+00	 0.000E+00	 3.046E-06	 2.647E-23	 3.038E-06	 2.213E-07	 1.043E+00	-4.048E-02	-2.213E-07	 3.038E-06	 2.213E-07	 3.038E-06	 0.000E+00	 4.340E+00	 4.759E-01	 0.000E+00	 0.000E+00	 9.313E-02	-8.674E-19	 9.287E-02	 7.047E-03	 1.004E+00	-1.529E-03	-7.047E-03	 9.287E-02	 7.047E-03	 9.287E-02	 0.000E+00	 4.347E+00	 4.767E-01	 0.000E+00	 0.000E+00	 1.953E-01	 0.000E+00	 1.948E-01	 1.481E-02	 1.004E+00	-1.489E-03	-1.481E-02	 1.948E-01	 1.481E-02	 1.948E-01	 0.000E+00	 4.348E+00	 4.768E-01	 0.000E+00	 0.000E+00	 2.662E-01	 6.939E-18	 2.654E-01	 2.018E-02	 1.004E+00	-1.489E-03	-2.018E-02	 2.654E-01	 2.018E-02	 2.654E-01	 0.000E+00	 4.348E+00	 4.768E-01	 0.000E+00	 0.000E+00	 2.944E-01	-3.469E-18	 2.935E-01	 2.231E-02	 1.004E+00	-1.489E-03	-2.231E-02	 2.935E-01	 2.231E-02	 2.935E-01	 0.000E+00	 4.348E+00	 4.768E-01	 0.000E+00	 0.000E+00	 2.754E-01	 0.000E+00	 2.746E-01	 2.088E-02	 1.004E+00	-1.489E-03	-2.088E-02	 2.746E-01	 2.088E-02	 2.746E-01	 0.000E+00	 4.347E+00	 4.767E-01	 0.000E+00	 0.000E+00	 2.124E-01	 0.000E+00	 2.118E-01	 1.610E-02	 1.004E+00	-1.489E-03	-1.610E-02	 2.118E-01	 1.610E-02	 2.118E-01	 0.000E+00	 4.344E+00	 4.763E-01	 0.000E+00	 0.000E+00	 1.154E-01	-1.735E-18	 1.150E-01	 8.738E-03	 1.004E+00	-1.501E-03	-8.738E-03	 1.150E-01	 8.738E-03	 1.150E-01	 0.000E+00	 4.167E+00	 4.569E-01	 0.000E+00	 0.000E+00	 3.046E-06	 2.647E-23	 3.038E-06	 2.213E-07	 1.043E+00	-4.048E-02	-2.213E-07	 3.038E-06	 2.213E-07	 3.038E-06	 0.000E+00	 2.383E-06	 7.569E-02	 1.587E-01	 2.163E-01	 2.392E-01	 2.239E-01	 1.727E-01	 9.377E-02	 2.383E-06	 0.000E+00	 0.000E+00	 0.000E+00	 0.000E+00	 0.000E+00	 0.000E+00	 0.000E+00	 0.000E+00	 0.000E+00	 0.000E+00	 0.000E+00	 0.000E+00	 0.000E+00	 0.000E+00	 0.000E+00	 0.000E+00	 0.000E+00	 0.000E+00
  300.0000	 1.000E+00	 0.000E+00	 1.000E-01	 0.000E+00	 0.000E+00	 0.000E+00	 0.000E+00	 2.700E+02	 0.000E+00	 0.000E+00	 0.000E+00	 0.000E+00	 0.000E+00	 4.628E-05	-3.004E-02	-8.758E-05	 4.788E-02	 6.005E-18	-1.197E-01	-2.190E-04	 5.048E-21	 2.880E-03	-2.190E-04	 5.048E-21	-8.758E-05	 1.410E-19	-9.691E-02	 2.880E-03	 3.186E-20	 2.190E-04	-8.758E-05	 1.410E-19	-5.884E+03	 2.880E-03	-8.758E-03	 2.190E-04	 0.000E+00	 1.000E+00	-1.000E-01	-1.225E-17	 5.711E+00	-8.758E-02	-1.152E+00	-1.227E-19	 2.880E+00	-2.190E-01	-2.681E-17	 0.000E+00	 0.000E+00	 1.198E-02	-1.821E-03	 0.000E+00	 4.167E+00	 4.569E-01	 0.000E+00	 0.000E+00	 3.046E-06	 2.647E-23	 3.038E-06	 2.213E-07	 1.043E+00	-4.048E-02	-2.213E-07	 3.038E-06	 2.213E-07	 3.038E-06	 0.000E+00	 4.340E+00	 4.759E-01	 0.000E+00	 0.000E+00	 9.313E-02	 0.000E+00	 9.287E-02	 7.048E-03	 1.004E+00	-1.529E-03	-7.048E-03	 9.287E-02	 7.048E-03	 9.287E-02	 0.000E+00	 4.347E+00	 4.767E-01	 0.000E+00	 0.000E+00	 1.953E-01	 0.000E+00	 1.948E-01	 1.481E-02	 1.004E+00	-1.489E-03	-1.481E-02	 1.948E-01	 1.481E-02	 1.948E-01	 0.000E+00	 4.348E+00	 4.768E-01	 0.000E+00	 0.000E+00	 2.662E-01	-3.469E-18	 2.654E-01	 2.018E-02	 1.004E+00	-1.489E-03	-2.018E-02	 2.654E-01	 2.018E-02	 2.654E-01	 0.000E+00	 4.348E+00	 4.768E-01	 0.000E+00	 0.000E+00	 2.944E-01	 6.939E-18	 2.935E-01	 2.231E-02	 1.004E+00	-1.489E-03	-2.231E-02	 2.935E-01	 2.231E-02	 2.935E-01	 0.000E+00	 4.348E+00	 4.768E-01	 0.000E+00	 0.000E+00	 2.754E-01	 0.000E+00	 2.746E-01	 2.088E-02	 1.004E+00	-1.489E-03	-2.088E-02	 2.746E-01	 2.088E-02	 2.746E-01	 0.000E+00	 4.347E+00	 4.767E-01	 0.000E+00	 0.000E+00	 2.124E-01	 0.000E+00	 2.118E-01	 1.610E-02	 1.004E+00	-1.489E-03	-1.610E-02	 2.118E-01	 1.610E-02	 2.118E-01	 0.000E+00	 4.344E+00	 4.763E-01	 0.000E+00	 0.000E+00	 1.154E-01	 1.735E-18	 1.150E-01	 8.738E-03	 1.004E+00	-1.501E-03	-8.738E-03	 1.150E-01	 8.738E-03	 1.150E-01	 0.000E+00	 4.167E+00	 4.569E-01	 0.000E+00	 0.000E+00	 3.046E-06	 0.000E+00	 3.038E-06	 2.213E-07	 1.043E+00	-4.048E-02	-2.213E-07	 3.038E-06	 2.213E-07	 3.038E-06	 0.000E+00	 2.383E-06	 7.569E-02	 1.588E-01	 2.163E-01	 2.392E-01	 2.239E-01	 1.727E-01	 9.377E-02	 2.383E-06	 0.000E+00	 0.000E+00	 0.000E+00	 0.000E+00	 0.000E+00	 0.000E+00	 0.000E+00	 0.000E+00	 0.000E+00	 0.000E+00	 0.000E+00	 0.000E+00	 0.000E+00	 0.000E+00	 0.000E+00	 0.000E+00	 0.000E+00	 0.000E+00
  400.0000	 1.000E+00	 0.000E+00	 1.000E-01	 0.000E+00	 0.000E+00	 0.000E+00	 0.000E+00	 2.700E+02	 0.000E+00	 0.000E+00	 0.000E+00	 0.000E+00	 0.000E+00	 4.628E-05	-3.004E-02	-8.758E-05	 4.788E-02	 6.005E-18	-1.197E-01	-2.190E-04	 5.048E-21	 2.880E-03	-2.190E-04	 5.048E-21	-8.758E-05	 1.410E-19	-9.691E-02	 2.880E-03	 3.186E-20	 2.190E-04	-8.758E-05	 1.410E-19	-5.884E+03	 2.880E-03	-8.758E-03	 2.190E-04	 0.000E+00	 1.000E+00	-1.000E-01	-1.225E-17	 5.711E+00	-8.758E-02	-1.152E+00	-1.227E-19	 2.880E+00	-2.190E-01	-2.681E-17	 0.000E+00	 0.000E+00	 1.198E-02	-1.821E-03	 0.000E+00	 4.165E+00	 4.567E-01	 0.000E+00	 0.000E+00	 3.045E-06	 0.000E+00	 3.037E-06	 2.211E-07	 1.043E+00	-4.048E-02	-2.211E-07	 3.037E-06	 2.211E-07	 3.037E-06	 0.000E+00	 4.340E+00	 4.759E-01	 0.000E+00	 0.000E+00	 9.313E-02	 8.674E-19	 9.287E-02	 7.048E-03	 1.004E+00	-1.529E-03	-7.048E-03	 9.287E-02	 7.048E-03	 9.287E-02	 0.000E+00	 4.347E+00	 4.767E-01	 0.000E+00	 0.000E+00	 1.953E-01	 0.000E+00	 1.948E-01	 1.481E-02	 1.004E+00	-1.489E-03	-1.481E-02	 1.948E-01	 1.481E-02	 1.948E-01	 0.000E+00	 4.348E+00	 4.768E-01	 0.000E+00	 0.000E+00	 2.662E-01	-3.469E-18	 2.654E-01	 2.018E-02	 1.004E+00	-1.489E-03	-2.018E-02	 2.654E-01	 2.018E-02	 2.654E-01	 0.000E+00	 4.348E+00	 4.768E-01	 0.000E+00	 0.000E+00	 2.944E-01	-3.469E-18	 2.935E-01	 2.231E-02	 1.004E+00	-1.489E-03	-2.231E-02	 2.935E-01	 2.231E-02	 2.935E-01	 0.000E+00	 4.348E+00	 4.768E-01	 0.000E+00	 0.000E+00	 2.754E-01	 0.000E+00	 2.746E-01	 2.088E-02	 1.004E+00	-1.489E-03	-2.088E-02	 2.746E-01	 2.088E-02	 2.746E-01	 0.000E+00	 4.347E+00	 4.767E-01	 0.000E+00	 0.000E+00	 2.124E-01	 0.000E+00	 2.118E-01	 1.610E-02	 1.004E+00	-1.489E-03	-1.610E-02	 2.118E-01	 1.610E-02	 2.118E-01	 0.000E+00	 4.344E+00	 4.763E-01	 0.000E+00	 0.000E+00	 1.154E-01	 0.000E+00	 1.150E-01	 8.738E-03	 1.004E+00	-1.501E-03	-8.738E-03	 1.150E-01	 8.738E-03	 1.150E-01	 0.000E+00	 4.165E+00	 4.567E-01	 0.000E+00	 0.000E+00	 3.045E-06	-5.294E-23	 3.037E-06	 2.211E-07	 1.043E+00	-4.048E-02	-2.211E-07	 3.037E-06	 2.211E-07	 3.037E-06	 0.000E+00	 2.382E-06	 7.569E-02	 1.588E-01	 2.163E-01	 2.392E-01	 2.239E-01	 1.727E-01	 9.377E-02	 2.382E-06	 0.000E+00	 0.000E+00	 0.000E+00	 0.000E+00	 0.000E+00	 0.000E+00	 0.000E+00	 0.000E+00	 0.000E+00	 0.000E+00	 0.000E+00	 0.000E+00	 0.000E+00	 0.000E+00	 0.000E+00	 0.000E+00	 0.000E+00	 0.000E+00
  500.0000	 1.000E+00	 0.000E+00	 1.000E-01	 0.000E+00	 0.000E+00	 0.000E+00	 0.000E+00	 2.700E+02	 0.000E+00	 0.000E+00	 0.000E+00	 0.000E+00	 0.000E+00	 4.628E-05	-3.004E-02	-8.758E-05	 4.788E-02	 6.005E-18	-1.197E-01	-2.190E-04	 5.048E-21	 2.880E-03	-2.190E-04	 5.048E-21	-8.758E-05	 1.410E-19	-9.691E-02	 2.880E-03	 3.186E-20	 2.190E-04	-8.758E-05	 1.410E-19	-5.884E+03	 2.880E-03	-8.758E-03	 2.190E-04	 0.000E+00	 1.000E+00	-1.000E-01	-1.225E-17	 5.711E+00	-8.758E-02	-1.152E+00	-1.227E-19	 2.880E+00	-2.190E-01	-2.681E-17	 0.000E+00	 0.000E+00	 1.198E-02	-1.821E-03	 0.000E+00	 4.171E+00	 4.574E-01	 0.000E+00	 0.000E+00	 3.049E-06	-2.647E-23	 3.041E-06	 2.218E-07	 1.043E+00	-4.047E-02	-2.218E-07	 3.041E-06	 2.218E-07	 3.041E-06	 0.000E+00	 4.339E+00	 4.759E-01	 0.000E+00	 0.000E+00	 9.313E-02	-8.674E-19	 9.286E-02	 7.046E-03	 1.004E+00	-1.529E-03	-7.046E-03	 9.286E-02	 7.046E-03	 9.286E-02	 0.000E+00	 4.347E+00	 4.767E-01	 0.000E+00	 0.000E+00	 1.953E-01	 3.469E-18	 1.948E-01	 1.481E-02	 1.004E+00	-1.489E-03	-1.481E-02	 1.948E-01	 1.481E-02	 1.948E-01	 0.000E+00	 4.348E+00	 4.768E-01	 0.000E+00	 0.000E+00	 2.662E-01	 0.000E+00	 2.654E-01	 2.018E-02	 1.004E+00	-1.489E-03	-2.018E-02	 2.654E-01	 2.018E-02	 2.654E-01	 0.000E+00	 4.348E+00	 4.768E-01	 0.000E+00	 0.000E+00	 2.944E-01	 0.000E+00	 2.935E-01	 2.231E-02	 1.004E+00	-1.489E-03	-2.231E-02	 2.935E-01	 2.231E-02	 2.935E-01	 0.000E+00	 4.348E+00	 4.768E-01	 0.000E+00	 0.000E+00	 2.754E-01	-3.469E-18	 2.746E-01	 2.088E-02	 1.004E+00	-1.489E-03	-2.088E-02	 2.746E-01	 2.088E-02	 2.746E-01	 0.000E+00	 4.347E+00	 4.767E-01	 0.000E+00	 0.000E+00	 2.124E-01	 0.000E+00	 2.118E-01	 1.610E-02	 1.004E+00	-1.489E-03	-1.610E-02	 2.118E-01	 1.610E-02	 2.118E-01	 0.000E+00	 4.343E+00	 4.763E-01	 0.000E+00	 0.000E+00	 1.154E-01	-1.735E-18	 1.150E-01	 8.737E-03	 1.004E+00	-1.500E-03	-8.737E-03	 1.150E-01	 8.737E-03	 1.150E-01	 0.000E+00	 4.171E+00	 4.574E-01	 0.000E+00	 0.000E+00	 3.049E-06	-2.647E-23	 3.041E-06	 2.218E-07	 1.043E+00	-4.047E-02	-2.218E-07	 3.041E-06	 2.218E-07	 3.041E-06	 0.000E+00	 2.386E-06	 7.569E-02	 1.588E-01	 2.163E-01	 2.392E-01	 2.239E-01	 1.727E-01	 9.376E-02	 2.386E-06	 0.000E+00	 0.000E+00	 0.000E+00	 0.000E+00	 0.000E+00	 0.000E+00	 0.000E+00	 0.000E+00	 0.000E+00	 0.000E+00	 0.000E+00	 0.000E+00	 0.000E+00	 0.000E+00	 0.000E+00	 0.000E+00	 0.000E+00	 0.000E+00
  600.0000	 1.000E+00	 0.000E+00	 1.000E-01	 0.000E+00	 0.000E+00	 0.000E+00	 0.000E+00	 2.700E+02	 0.000E+00	 0.000E+00	 0.000E+00	 0.000E+00	 0.000E+00	 4.628E-05	-3.004E-02	-8.758E-05	 4.788E-02	 6.005E-18	-1.197E-01	-2.190E-04	 5.048E-21	 2.880E-03	-2.190E-04	 5.048E-21	-8.758E-05	 1.410E-19	-9.691E-02	 2.880E-03	 3.186E-20	 2.190E-04	-8.758E-05	 1.410E-19	-5.884E+03	 2.880E-03	-8.758E-03	 2.190E-04	 0.000E+00	 1.000E+00	-1.000E-01	-1.225E-17	 5.711E+00	-8.758E-02	-1.152E+00	-1.227E-19	 2.880E+00	-2.190E-01	-2.681E-17	 0.000E+00	 0.000E+00	 1.198E-02	-1.821E-03	 0.000E+00	 4.164E+00	 4.567E-01	 0.000E+00	 0.000E+00	 3.044E-06	 0.000E+00	 3.036E-06	 2.211E-07	 1.043E+00	-4.049E-02	-2.211E-07	 3.036E-06	 2.211E-07	 3.036E-06	 0.000E+00	 4.340E+00	 4.759E-01	 0.000E+00	 0.000E+00	 9.314E-02	 0.000E+00	 9.287E-02	 7.049E-03	 1.004E+00	-1.529E-03	-7.049E-03	 9.287E-02	 7.049E-03	 9.287E-02	 0.000E+00	 4.347E+00	 4.767E-01	 0.000E+00	 0.000E+00	 1.953E-01	 0.000E+00	 1.948E-01	 1.481E-02	 1.004E+00	-1.489E-03	-1.481E-02	 1.948E-01	 1.481E-02	 1.948E-01	 0.000E+00	 4.348E+00	 4.768E-01	 0.000E+00	 0.000E+00	 2.662E-01	 0.000E+00	 2.654E-01	 2.018E-02	 1.004E+00	-1.489E-03	-2.018E-02	 2.654E-01	 2.018E-02	 2.654E-01	 0.000E+00	 4.348E+00	 4.768E-01	 0.000E+00	 0.000E+00	 2.944E-01	 6.939E-18	 2.935E-01	 2.231E-02	 1.004E+00	-1.489E-03	-2.231E-02	 2.935E-01	 2.231E-02	 2.935E-01	 0.000E+00	 4.348E+00	 4.768E-01	 0.000E+00	 0.000E+00	 2.754E-01	 0.000E+00	 2.746E-01	 2.088E-02	 1.004E+00	-1.489E-03	-2.088E-02	 2.746E-01	 2.088E-02	 2.746E-01	 0.000E+00	 4.347E+00	 4.767E-01	 0.000E+00	 0.000E+00	 2.124E-01	 0.000E+00	 2.118E-01	 1.610E-02	 1.004E+00	-1.489E-03	-1.610E-02	 2.118E-01	 1.610E-02	 2.118E-01	 0.000E+00	 4.344E+00	 4.764E-01	 0.000E+00	 0.000E+00	 1.154E-01	 1.735E-18	 1.150E-01	 8.739E-03	 1.004E+00	-1.501E-03	-8.739E-03	 1.150E-01	 8.739E-03	 1.150E-01	 0.000E+00	 4.164E+00	 4.567E-01	 0.000E+00	 0.000E+00	 3.044E-06	 5.294E-23	 3.036E-06	 2.211E-07	 1.043E+00	-4.049E-02	-2.211E-07	 3.036E-06	 2.211E-07	 3.036E-06	 0.000E+00	 2.382E-06	 7.570E-02	 1.588E-01	 2.163E-01	 2.392E-01	 2.239E-01	 1.727E-01	 9.377E-02	 2.382E-06	 0.000E+00	 0.000E+00	 0.000E+00	 0.000E+00	 0.000E+00	 0.000E+00	 0.000E+00	 0.000E+00	 0.000E+00	 0.000E+00	 0.000E+00	 0.000E+00	 0.000E+00	 0.000E+00	 0.000E+00	 0.000E+00	 0.000E+00	 0.000E+00
  700.0000	 1.000E+00	 0.000E+00	 1.000E-01	 0.000E+00	 0.000E+00	 0.000E+00	 0.000E+00	 2.700E+02	 0.000E+00	 0.000E+00	 0.000E+00	 0.000E+00	 0.000E+00	 4.628E-05	-3.004E-02	-8.758E-05	 4.788E-02	 6.005E-18	-1.197E-01	-2.190E-04	 5.048E-21	 2.880E-03	-2.190E-04	 5.048E-21	-8.758E-05	 1.410E-19	-9.691E-02	 2.880E-03	 3.186E-20	 2.190E-04	-8.758E-05	 1.410E-19	-5.884E+03	 2.880E-03	-8.758E-03	 2.190E-04	 0.000E+00	 1.000E+00	-1.000E-01	-1.225E-17	 5.711E+00	-8.758E-02	-1.152E+00	-1.227E-19	 2.880E+00	-2.190E-01	-2.681E-17	 0.000E+00	 0.000E+00	 1.198E-02	-1.821E-03	 0.000E+00	 4.169E+00	 4.572E-01	 0.000E+00	 0.000E+00	 3.048E-06	 0.000E+00	 3.040E-06	 2.216E-07	 1.043E+00	-4.048E-02	-2.216E-07	 3.040E-06	 2.216E-07	 3.040E-06	 0.000E+00	 4.340E+00	 4.759E-01	 0.000E+00	 0.000E+00	 9.313E-02	-8.674E-19	 9.286E-02	 7.047E-03	 1.004E+00	-1.529E-03	-7.047E-03	 9.286E-02	 7.047E-03	 9.286E-02	 0.000E+00	 4.347E+00	 4.767E-01	 0.000E+00	 0.000E+00	 1.953E-01	-3.469E-18	 1.948E-01	 1.481E-02	 1.004E+00	-1.489E-03	-1.481E-02	 1.948E-01	 1.481E-02	 1.948E-01	 0.000E+00	 4.348E+00	 4.768E-01	 0.000E+00	 0.000E+00	 2.662E-01	 0.000E+00	 2.654E-01	 2.018E-02	 1.004E+00	-1.489E-03	-2.018E-02	 2.654E-01	 2.018E-02	 2.654E-01	 0.000E+00	 4.348E+00	 4.768E-01	 0.000E+00	 0.000E+00	 2.944E-01	 0.000E+00	 2.935E-01	 2.231E-02	 1.004E+00	-1.489E-03	-2.231E-02	 2.935E-01	 2.231E-02	 2.935E-01	 0.000E+00	 4.348E+00	 4.768E-01	 0.000E+00	 0.000E+00	 2.754E-01	 0.000E+00	 2.746E-01	 2.088E-02	 1.004E+00	-1.489E-03	-2.088E-02	 2.746E-01	 2.088E-02	 2.746E-01	 0.000E+00	 4.347E+00	 4.767E-01	 0.000E+00	 0.000E+00	 2.124E-01	 0.000E+00	 2.118E-01	 1.610E-02	 1.004E+00	-1.489E-03	-1.610E-02	 2.118E-01	 1.610E-02	 2.118E-01	 0.000E+00	 4.343E+00	 4.763E-01	 0.000E+00	 0.000E+00	 1.154E-01	 1.735E-18	 1.150E-01	 8.737E-03	 1.004E+00	-1.500E-03	-8.737E-03	 1.150E-01	 8.737E-03	 1.150E-01	 0.000E+00	 4.169E+00	 4.572E-01	 0.000E+00	 0.000E+00	 3.048E-06	 0.000E+00	 3.040E-06	 2.216E-07	 1.043E+00	-4.048E-02	-2.216E-07	 3.040E-06	 2.216E-07	 3.040E-06	 0.000E+00	 2.385E-06	 7.569E-02	 1.588E-01	 2.163E-01	 2.392E-01	 2.239E-01	 1.727E-01	 9.376E-02	 2.385E-06	 0.000E+00	 0.000E+00	 0.000E+00	 0.000E+00	 0.000E+00	 0.000E+00	 0.000E+00	 0.000E+00	 0.000E+00	 0.000E+00	 0.000E+00	 0.000E+00	 0.000E+00	 0.000E+00	 0.000E+00	 0.000E+00	 0.000E+00	 0.000E+00
  800.0000	 1.000E+00	 0.000E+00	 1.000E-01	 0.000E+00	 0.000E+00	 0.000E+00	 0.000E+00	 2.700E+02	 0.000E+00	 0.000E+00	 0.000E+00	 0.000E+00	 0.000E+00	 4.628E-05	-3.004E-02	-8.758E-05	 4.788E-02	 6.005E-18	-1.197E-01	-2.190E-04	 5.048E-21	 2.880E-03	-2.190E-04	 5.048E-21	-8.758E-05	 1.410E-19	-9.691E-02	 2.880E-03	 3.186E-20	 2.190E-04	-8.758E-05	 1.410E-19	-5.884E+03	 2.880E-03	-8.758E-03	 2.190E-04	 0.000E+00	 1.000E+00	-1.000E-01	-1.225E-17	 5.711E+00	-8.758E-02	-1.152E+00	-1.227E-19	 2.880E+00	-2.190E-01	-2.681E-17	 0.000E+00	 0.000E+00	 1.198E-02	-1.821E-03	 0.000E+00	 4.164E+00	 4.567E-01	 0.000E+00	 0.000E+00	 3.044E-06	-2.647E-23	 3.036E-06	 2.211E-07	 1.043E+00	-4.049E-02	-2.211E-07	 3.036E-06	 2.211E-07	 3.036E-06	 0.000E+00	 4.340E+00	 4.759E-01	 0.000E+00	 0.000E+00	 9.314E-02	 0.000E+00	 9.287E-02	 7.048E-03	 1.004E+00	-1.529E-03	-7.048E-03	 9.287E-02	 7.048E-03	 9.287E-02	 0.000E+00	 4.347E+00	 4.767E-01	 0.000E+00	 0.000E+00	 1.953E-01	 0.000E+00	 1.948E-01	 1.481E-02	 1.004E+00	-1.489E-03	-1.481E-02	 1.948E-01	 1.481E-02	 1.948E-01	 0.000E+00	 4.348E+00	 4.768E-01	 0.000E+00	 0.000E+00	 2.662E-01	 0.000E+00	 2.654E-01	 2.018E-02	 1.004E+00	-1.489E-03	-2.018E-02	 2.654E-01	 2.018E-02	 2.654E-01	 0.000E+00	 4.348E+00	 4.768E-01	 0.000E+00	 0.000E+00	 2.944E-01	-3.469E-18	 2.935E-01	 2.231E-02	 1.004E+00	-1.489E-03	-2.231E-02	 2.935E-01	 2.231E-02	 2.935E-01	 0.000E+00	 4.348E+00	 4.768E-01	 0.000E+00	 0.000E+00	 2.754E-01	 3.469E-18	 2.746E-01	 2.088E-02	 1.004E+00	-1.489E-03	-2.088E-02	 2.746E-01	 2.088E-02	 2.746E-01	 0.000E+00	 4.347E+00	 4.767E-01	 0.000E+00	 0.000E+00	 2.124E-01	-3.469E-18	 2.118E-01	 1.610E-02	 1.004E+00	-1.489E-03	-1.610E-02	 2.118E-01	 1.610E-02	 2.118E-01	 0.000E+00	 4.344E+00	 4.764E-01	 0.000E+00	 0.000E+00	 1.154E-01	 0.000E+00	 1.150E-01	 8.739E-03	 1.004E+00	-1.501E-03	-8.739E-03	 1.150E-01	 8.739E-03	 1.150E-01	 0.000E+00	 4.164E+00	 4.567E-01	 0.000E+00	 0.000E+00	 3.044E-06	 5.294E-23	 3.036E-06	 2.211E-07	 1.043E+00	-4.049E-02	-2.211E-07	 3.036E-06	 2.211E-07	 3.036E-06	 0.000E+00	 2.382E-06	 7.570E-02	 1.587E-01	 2.163E-01	 2.392E-01	 2.239E-01	 1.727E-01	 9.378E-02	 2.382E-06	 0.000E+00	 0.000E+00	 0.000E+00	 0.000E+00	 0.000E+00	 0.000E+00	 0.000E+00	 0.000E+00	 0.000E+00	 0.000E+00	 0.000E+00	 0.000E+00	 0.000E+00	 0.000E+00	 0.000E+00	 0.000E+00	 0.000E+00	 0.000E+00
  900.0000	 1.000E+00	 0.000E+00	 1.000E-01	 0.000E+00	 0.000E+00	 0.000E+00	 0.000E+00	 2.700E+02	 0.000E+00	 0.000E+00	 0.000E+00	 0.000E+00	 0.000E+00	 4.628E-05	-3.004E-02	-8.758E-05	 4.788E-02	 6.005E-18	-1.197E-01	-2.190E-04	 5.049E-21	 2.880E-03	-2.190E-04	 5.049E-21	-8.758E-05	 1.410E-19	-9.691E-02	 2.880E-03	 3.186E-20	 2.190E-04	-8.758E-05	 1.410E-19	-5.884E+03	 2.880E-03	-8.758E-03	 2.190E-04	 0.000E+00	 1.000E+00	-1.000E-01	-1.225E-17	 5.711E+00	-8.758E-02	-1.152E+00	-1.227E-19	 2.880E+00	-2.190E-01	-2.681E-17	 0.000E+00	 0.000E+00	 1.198E-02	-1.821E-03	 0.000E+00	 4.168E+00	 4.571E-01	 0.000E+00	 0.000E+00	 3.047E-06	-2.647E-23	 3.039E-06	 2.214E-07	 1.043E+00	-4.048E-02	-2.214E-07	 3.039E-06	 2.214E-07	 3.039E-06	 0.000E+00	 4.340E+00	 4.759E-01	 0.000E+00	 0.000E+00	 9.313E-02	-8.674E-19	 9.286E-02	 7.047E-03	 1.004E+00	-1.529E-03	-7.047E-03	 9.286E-02	 7.047E-03	 9.286E-02	 0.000E+00	 4.347E+00	 4.767E-01	 0.000E+00	 0.000E+00	 1.953E-01	 1.735E-18	 1.948E-01	 1.481E-02	 1.004E+00	-1.489E-03	-1.481E-02	 1.948E-01	 1.481E-02	 1.948E-01	 0.000E+00	 4.348E+00	 4.768E-01	 0.000E+00	 0.000E+00	 2.662E-01	 3.469E-18	 2.654E-01	 2.018E-02	 1.004E+00	-1.489E-03	-2.018E-02	 2.654E-01	 2.018E-02	 2.654E-01	 0.000E+00	 4.348E+00	 4.768E-01	 0.000E+00	 0.000E+00	 2.944E-01	 0.000E+00	 2.935E-01	 2.231E-02	 1.004E+00	-1.489E-03	-2.231E-02	 2.935E-01	 2.231E-02	 2.935E-01	 0.000E+00	 4.348E+00	 4.768E-01	 0.000E+00	 0.000E+00	 2.754E-01	-3.469E-18	 2.746E-01	 2.088E-02	 1.004E+00	-1.489E-03	-2.088E-02	 2.746E-01	 2.088E-02	 2.746E-01	 0.000E+00	 4.347E+00	 4.767E-01	 0.000E+00	 0.000E+00	 2.124E-01	-3.469E-18	 2.118E-01	 1.610E-02	 1.004E+00	-1.489E-03	-1.610E-02	 2.118E-01	 1.610E-02	 2.118E-01	 0.000E+00	 4.343E+00	 4.763E-01	 0.000E+00	 0.000E+00	 1.154E-01	 0.000E+00	 1.150E-01	 8.737E-03	 1.004E+00	-1.500E-03	-8.737E-03	 1.150E-01	 8.737E-03	 1.150E-01	 0.000E+00	 4.168E+00	 4.571E-01	 0.000E+00	 0.000E+00	 3.047E-06	 0.000E+00	 3.039E-06	 2.214E-07	 1.043E+00	-4.048E-02	-2.214E-07	 3.039E-06	 2.214E-07	 3.039E-06	 0.000E+00	 2.384E-06	 7.569E-02	 1.588E-01	 2.163E-01	 2.392E-01	 2.239E-01	 1.727E-01	 9.376E-02	 2.384E-06	 0.000E+00	 0.000E+00	 0.000E+00	 0.000E+00	 0.000E+00	 0.000E+00	 0.000E+00	 0.000E+00	 0.000E+00	 0.000E+00	 0.000E+00	 0.000E+00	 0.000E+00	 0.000E+00	 0.000E+00	 0.000E+00	 0.000E+00	 0.000E+00
 1000.0000	 1.000E+00	 0.000E+00	 1.000E-01	 0.000E+00	 0.000E+00	 0.000E+00	 0.000E+00	 2.700E+02	 0.000E+00	 0.000E+00	 0.000E+00	 0.000E+00	 0.000E+00	 4.628E-05	-3.004E-02	-8.758E-05	 4.788E-02	 6.005E-18	-1.197E-01	-2.190E-04	 5.047E-21	 2.880E-03	-2.190E-04	 5.047E-21	-8.758E-05	 1.410E-19	-9.691E-02	 2.880E-03	 3.186E-20	 2.190E-04	-8.758E-05	 1.410E-19	-5.884E+03	 2.880E-03	-8.758E-03	 2.190E-04	 0.000E+00	 1.000E+00	-1.000E-01	-1.225E-17	 5.711E+00	-8.758E-02	-1.152E+00	-1.227E-19	 2.880E+00	-2.190E-01	-2.681E-17	 0.000E+00	 0.000E+00	 1.198E-02	-1.821E-03	 0.000E+00	 4.165E+00	 4.568E-01	 0.000E+00	 0.000E+00	 3.045E-06	 0.000E+00	 3.037E-06	 2.212E-07	 1.043E+00	-4.049E-02	-2.212E-07	 3.037E-06	 2.212E-07	 3.037E-06	 0.000E+00	 4.340E+00	 4.759E-01	 0.000E+00	 0.000E+00	 9.314E-02	-1.735E-18	 9.287E-02	 7.048E-03	 1.004E+00	-1.529E-03	-7.048E-03	 9.287E-02	 7.048E-03	 9.287E-02	 0.000E+00	 4.347E+00	 4.767E-01	 0.000E+00	 0.000E+00	 1.953E-01	-1.735E-18	 1.948E-01	 1.481E-02	 1.004E+00	-1.489E-03	-1.481E-02	 1.948E-01	 1.481E-02	 1.948E-01	 0.000E+00	 4.348E+00	 4.768E-01	 0.000E+00	 0.000E+00	 2.662E-01	 0.000E+00	 2.654E-01	 2.018E-02	 1.004E+00	-1.489E-03	-2.018E-02	 2.654E-01	 2.018E-02	 2.654E-01	 0.000E+00	 4.348E+00	 4.768E-01	 0.000E+00	 0.000E+00	 2.944E-01	 0.000E+00	 2.935E-01	 2.231E-02	 1.004E+00	-1.489E-03	-2.231E-02	 2.935E-01	 2.231E-02	 2.935E-01	 0.000E+00	 4.348E+00	 4.768E-01	 0.000E+00	 0.000E+00	 2.754E-01	 0.000E+00	 2.746E-01	 2.088E-02	 1.004E+00	-1.489E-03	-2.088E-02	 2.746E-01	 2.088E-02	 2.746E-01	 0.000E+00	 4.347E+00	 4.767E-01	 0.000E+00	 0.000E+00	 2.124E-01	 0.000E+00	 2.118E-01	 1.610E-02	 1.004E+00	-1.489E-03	-1.610E-02	 2.118E-01	 1.610E-02	 2.118E-01	 0.000E+00	 4.344E+00	 4.764E-01	 0.000E+00	 0.000E+00	 1.154E-01	 1.735E-18	 1.150E-01	 8.739E-03	 1.004E+00	-1.501E-03	-8.739E-03	 1.150E-01	 8.739E-03	 1.150E-01	 0.000E+00	 4.165E+00	 4.568E-01	 0.000E+00	 0.000E+00	 3.045E-06	 2.647E-23	 3.037E-06	 2.212E-07	 1.043E+00	-4.049E-02	-2.212E-07	 3.037E-06	 2.212E-07	 3.037E-06	 0.000E+00	 2.383E-06	 7.570E-02	 1.587E-01	 2.163E-01	 2.392E-01	 2.239E-01	 1.727E-01	 9.377E-02	 2.383E-06	 0.000E+00	 0.000E+00	 0.000E+00	 0.000E+00	 0.000E+00	 0.000E+00	 0.000E+00	 0.000E+00	 0.000E+00	 0.000E+00	 0.000E+00	 0.000E+00	 0.000E+00	 0.000E+00	 0.000E+00	 0.000E+00	 0.000E+00	 0.000E+00
