
FAST Summary File

Predictions were generated on 28-Jan-2021 at 17:48:15 using OpenFAST, compiled as a 64-bit application using double precision at commit v1.0.0-1800-g1082ba16
  compiled with
    NWTC Subroutine Library
    ElastoDyn
    BeamDyn (unknown version, unknown date) [not called]
    InflowWind
    AeroDyn14 (unknown version, unknown date) [not called]
    AeroDyn
    ServoDyn
    HydroDyn
    SubDyn (unknown version, unknown date) [not called]
    ExtPtfm_MCKF (unknown version, unknown date) [not called]
    MAP++ (<1.20.10>, <Jan-28-2021>)
    FEAMooring (unknown version, unknown date) [not called]
    MoorDyn (unknown version, unknown date) [not called]
    OrcaFlexInterface (unknown version, unknown date) [not called]
    IceFloe (unknown version, unknown date) [not called]
    IceDyn (unknown version, unknown date) [not called]


Modeling a floating offshore turbine
Description from the FAST input file: 
  FAST Certification Test #24: NREL 5.0 MW Baseline Wind Turbine with OC3 Hywind Configuration, for use in offshore analysis

Interpolation order for input/output time histories: 1 (linear)
Number of correction iterations:  0
Number of rows in Jacobian matrix used for coupling ElastoDyn to HydroDyn:     12


   Requested Time Steps  
  -------------------------------------------------
  Component          Time Step (s)    Subcycles (-)
  -----------------  ---------------  -------------
  FAST (glue code)     1.2500000E-02
  InflowWind           1.2500000E-02         1
  ElastoDyn            1.2500000E-02         1
  AeroDyn              1.2500000E-02         1
  ServoDyn             1.2500000E-02         1
  HydroDyn             1.2500000E-02         1
  MAP++                1.2500000E-02         1
  FAST output files    1.2500000E-02         1


   Requested Channels in FAST Output File(s)  
  --------------------------------------------
  Number  Name                  Units                 Generated by
  ------  --------------------  --------------------  ------------
       1  Time                  (s)                   OpenFAST
       2  Wind1VelX             (m/s)                 InflowWind
       3  Wind1VelY             (m/s)                 InflowWind
       4  Wind1VelZ             (m/s)                 InflowWind
       5  BldPitch1             (deg)                 ElastoDyn
       6  BldPitch2             (deg)                 ElastoDyn
       7  BldPitch3             (deg)                 ElastoDyn
       8  Azimuth               (deg)                 ElastoDyn
       9  RotSpeed              (rpm)                 ElastoDyn
      10  GenSpeed              (rpm)                 ElastoDyn
      11  NacYaw                (deg)                 ElastoDyn
      12  OoPDefl1              (m)                   ElastoDyn
      13  IPDefl1               (m)                   ElastoDyn
      14  TwstDefl1             (deg)                 ElastoDyn
      15  OoPDefl2              (m)                   ElastoDyn
      16  IPDefl2               (m)                   ElastoDyn
      17  TwstDefl2             (deg)                 ElastoDyn
      18  OoPDefl3              (m)                   ElastoDyn
      19  IPDefl3               (m)                   ElastoDyn
      20  TwstDefl3             (deg)                 ElastoDyn
      21  TwrClrnc1             (m)                   ElastoDyn
      22  TwrClrnc2             (m)                   ElastoDyn
      23  TwrClrnc3             (m)                   ElastoDyn
      24  NcIMUTAxs             (m/s^2)               ElastoDyn
      25  NcIMUTAys             (m/s^2)               ElastoDyn
      26  NcIMUTAzs             (m/s^2)               ElastoDyn
      27  TTDspFA               (m)                   ElastoDyn
      28  TTDspSS               (m)                   ElastoDyn
      29  TTDspTwst             (deg)                 ElastoDyn
      30  PtfmSurge             (m)                   ElastoDyn
      31  PtfmSway              (m)                   ElastoDyn
      32  PtfmHeave             (m)                   ElastoDyn
      33  PtfmRoll              (deg)                 ElastoDyn
      34  PtfmPitch             (deg)                 ElastoDyn
      35  PtfmYaw               (deg)                 ElastoDyn
      36  PtfmTAxt              (m/s^2)               ElastoDyn
      37  PtfmTAyt              (m/s^2)               ElastoDyn
      38  PtfmTAzt              (m/s^2)               ElastoDyn
      39  RootFxc1              (kN)                  ElastoDyn
      40  RootFyc1              (kN)                  ElastoDyn
      41  RootFzc1              (kN)                  ElastoDyn
      42  RootMxc1              (kN-m)                ElastoDyn
      43  RootMyc1              (kN-m)                ElastoDyn
      44  RootMzc1              (kN-m)                ElastoDyn
      45  RootFxc2              (kN)                  ElastoDyn
      46  RootFyc2              (kN)                  ElastoDyn
      47  RootFzc2              (kN)                  ElastoDyn
      48  RootMxc2              (kN-m)                ElastoDyn
      49  RootMyc2              (kN-m)                ElastoDyn
      50  RootMzc2              (kN-m)                ElastoDyn
      51  RootFxc3              (kN)                  ElastoDyn
      52  RootFyc3              (kN)                  ElastoDyn
      53  RootFzc3              (kN)                  ElastoDyn
      54  RootMxc3              (kN-m)                ElastoDyn
      55  RootMyc3              (kN-m)                ElastoDyn
      56  RootMzc3              (kN-m)                ElastoDyn
      57  Spn1MLxb1             (kN-m)                ElastoDyn
      58  Spn1MLyb1             (kN-m)                ElastoDyn
      59  Spn1MLzb1             (kN-m)                ElastoDyn
      60  Spn1MLxb2             (kN-m)                ElastoDyn
      61  Spn1MLyb2             (kN-m)                ElastoDyn
      62  Spn1MLzb2             (kN-m)                ElastoDyn
      63  Spn1MLxb3             (kN-m)                ElastoDyn
      64  Spn1MLyb3             (kN-m)                ElastoDyn
      65  Spn1MLzb3             (kN-m)                ElastoDyn
      66  RotThrust             (kN)                  ElastoDyn
      67  LSSGagFya             (kN)                  ElastoDyn
      68  LSSGagFza             (kN)                  ElastoDyn
      69  RotTorq               (kN-m)                ElastoDyn
      70  LSSGagMya             (kN-m)                ElastoDyn
      71  LSSGagMza             (kN-m)                ElastoDyn
      72  YawBrFxp              (kN)                  ElastoDyn
      73  YawBrFyp              (kN)                  ElastoDyn
      74  YawBrFzp              (kN)                  ElastoDyn
      75  YawBrMxp              (kN-m)                ElastoDyn
      76  YawBrMyp              (kN-m)                ElastoDyn
      77  YawBrMzp              (kN-m)                ElastoDyn
      78  TwrBsFxt              (kN)                  ElastoDyn
      79  TwrBsFyt              (kN)                  ElastoDyn
      80  TwrBsFzt              (kN)                  ElastoDyn
      81  TwrBsMxt              (kN-m)                ElastoDyn
      82  TwrBsMyt              (kN-m)                ElastoDyn
      83  TwrBsMzt              (kN-m)                ElastoDyn
      84  TwHt1MLxt             (kN-m)                ElastoDyn
      85  TwHt1MLyt             (kN-m)                ElastoDyn
      86  TwHt1MLzt             (kN-m)                ElastoDyn
      87  RtArea                (m^2)                 AeroDyn
      88  B1N3Clrnc             (m)                   AeroDyn
      89  B2N3Clrnc             (m)                   AeroDyn
      90  B3N3Clrnc             (m)                   AeroDyn
      91  GenPwr                (kW)                  ServoDyn
      92  GenTq                 (kN-m)                ServoDyn
      93  Wave1Elev             (m)                   HydroDyn
      94  HydroFxi              (N)                   HydroDyn
      95  HydroFyi              (N)                   HydroDyn
      96  HydroFzi              (N)                   HydroDyn
      97  HydroMxi              (N-m)                 HydroDyn
      98  HydroMyi              (N-m)                 HydroDyn
      99  HydroMzi              (N-m)                 HydroDyn
     100  B1Surge               (m)                   HydroDyn
     101  B1Sway                (m)                   HydroDyn
     102  B1Heave               (m)                   HydroDyn
     103  B1Roll                (rad)                 HydroDyn
     104  B1Pitch               (rad)                 HydroDyn
     105  B1Yaw                 (rad)                 HydroDyn
     106  B1TVxi                (m/s)                 HydroDyn
     107  B1TVyi                (m/s)                 HydroDyn
     108  B1TVzi                (m/s)                 HydroDyn
     109  B1RVxi                (rad/s)               HydroDyn
     110  B1RVyi                (rad/s)               HydroDyn
     111  B1RVzi                (rad/s)               HydroDyn
     112  B1TAxi                (m/s^2)               HydroDyn
     113  B1TAyi                (m/s^2)               HydroDyn
     114  B1TAzi                (m/s^2)               HydroDyn
     115  B1RAxi                (rad/s^2)             HydroDyn
     116  B1RAyi                (rad/s^2)             HydroDyn
     117  B1RAzi                (rad/s^2)             HydroDyn
     118  B1WvsFxi              (N)                   HydroDyn
     119  B1WvsFyi              (N)                   HydroDyn
     120  B1WvsFzi              (N)                   HydroDyn
     121  B1WvsMxi              (N-m)                 HydroDyn
     122  B1WvsMyi              (N-m)                 HydroDyn
     123  B1WvsMzi              (N-m)                 HydroDyn
     124  B1HDSFxi              (N)                   HydroDyn
     125  B1HDSFyi              (N)                   HydroDyn
     126  B1HDSFzi              (N)                   HydroDyn
     127  B1HDSMxi              (N-m)                 HydroDyn
     128  B1HDSMyi              (N-m)                 HydroDyn
     129  B1HDSMzi              (N-m)                 HydroDyn
     130  B1RdtFxi              (N)                   HydroDyn
     131  B1RdtFyi              (N)                   HydroDyn
     132  B1RdtFzi              (N)                   HydroDyn
     133  B1RdtMxi              (N-m)                 HydroDyn
     134  B1RdtMyi              (N-m)                 HydroDyn
     135  B1RdtMzi              (N-m)                 HydroDyn
     136  T[1]                  [N]                   MAP++
     137  T_a[1]                [N]                   MAP++
     138  T[2]                  [N]                   MAP++
     139  T_a[2]                [N]                   MAP++
     140  T[3]                  [N]                   MAP++
     141  T_a[3]                [N]                   MAP++
