
FAST Summary File

Predictions were generated on 10-Mar-2020 at 10:19:03 using OpenFAST, compiled as a 64-bit application using double precision at commit v1.0.0-450-g6bd2e0a4-dirty
  compiled with
    NWTC Subroutine Library
    ElastoDyn
    BeamDyn [not called]
    InflowWind
    AeroDyn14 [not called]
    AeroDyn
    ServoDyn
    HydroDyn
    SubDyn
    ExtPtfm_MCKF [not called]
    MAP [not called]
    FEAMooring [not called]
    MoorDyn [not called]
    OrcaFlexInterface [not called]
    IceFloe [not called]
    IceDyn [not called]


Modeling a fixed-bottom offshore turbine
Description from the FAST input file: 
  FAST Certification Test #21: NREL 5.0 MW Baseline Offshore Turbine with OC4 Jacket Configuration

Interpolation order for input/output time histories: 2 (quadratic)
Number of correction iterations:  1
Number of rows in Jacobian matrix used for coupling ElastoDyn, SubDyn, HydroDyn, OrcaFlex, ExtPtfm_MCKF, and/or BeamDyn:   9618


   Requested Time Steps  
  -------------------------------------------------
  Component          Time Step (s)    Subcycles (-)
  -----------------  ---------------  -------------
  FAST (glue code)    1.000E-02
  InflowWind          1.000E-02              1
  ElastoDyn           1.000E-02              1
  AeroDyn             1.000E-02              1
  ServoDyn            1.000E-02              1
  HydroDyn            1.000E-02              1
  SubDyn              1.000E-02              1
  FAST output files   5.000E-02              5^-1


   Requested Channels in FAST Output File(s)  
  --------------------------------------------
  Number  Name        Units       Generated by
  ------  ----------  ----------  ------------
       1  Time        (s)         OpenFAST
       2  Wind1VelX   (m/s)       InflowWind
       3  Wind1VelY   (m/s)       InflowWind
       4  Wind1VelZ   (m/s)       InflowWind
       5  OoPDefl1    (m)         ElastoDyn
       6  IPDefl1     (m)         ElastoDyn
       7  TwstDefl1   (deg)       ElastoDyn
       8  BldPitch1   (deg)       ElastoDyn
       9  Azimuth     (deg)       ElastoDyn
      10  RotSpeed    (rpm)       ElastoDyn
      11  GenSpeed    (rpm)       ElastoDyn
      12  TTDspFA     (m)         ElastoDyn
      13  TTDspSS     (m)         ElastoDyn
      14  TTDspTwst   (deg)       ElastoDyn
      15  Spn2MLxb1   (kN-m)      ElastoDyn
      16  Spn2MLyb1   (kN-m)      ElastoDyn
      17  RootFxc1    (kN)        ElastoDyn
      18  RootFyc1    (kN)        ElastoDyn
      19  RootFzc1    (kN)        ElastoDyn
      20  RootMxc1    (kN-m)      ElastoDyn
      21  RootMyc1    (kN-m)      ElastoDyn
      22  RootMzc1    (kN-m)      ElastoDyn
      23  RotTorq     (kN-m)      ElastoDyn
      24  LSSGagMya   (kN-m)      ElastoDyn
      25  LSSGagMza   (kN-m)      ElastoDyn
      26  YawBrFxp    (kN)        ElastoDyn
      27  YawBrFyp    (kN)        ElastoDyn
      28  YawBrFzp    (kN)        ElastoDyn
      29  YawBrMxp    (kN-m)      ElastoDyn
      30  YawBrMyp    (kN-m)      ElastoDyn
      31  YawBrMzp    (kN-m)      ElastoDyn
      32  TwrBsMxt    (kN-m)      ElastoDyn
      33  TwrBsMyt    (kN-m)      ElastoDyn
      34  TwrBsMzt    (kN-m)      ElastoDyn
      35  PtfmSurge   (m)         ElastoDyn
      36  PtfmSway    (m)         ElastoDyn
      37  PtfmHeave   (m)         ElastoDyn
      38  PtfmRoll    (deg)       ElastoDyn
      39  PtfmPitch   (deg)       ElastoDyn
      40  PtfmYaw     (deg)       ElastoDyn
      41  GenPwr      (kW)        ServoDyn
      42  GenTq       (kN-m)      ServoDyn
      43  Wave1Elev   (m)         HydroDyn
      44  M1N1FKZe    (N)         SubDyn
      45  M2N1FKZe    (N)         SubDyn
      46  M3N1TDXss   (m)         SubDyn
      47  M3N1TDYss   (m)         SubDyn
      48  M3N1TDZss   (m)         SubDyn
      49  M4N1TDXss   (m)         SubDyn
      50  M4N1TDYss   (m)         SubDyn
      51  M4N1TDZss   (m)         SubDyn
      52  M5N2TDXss   (m)         SubDyn
      53  M5N2TDYss   (m)         SubDyn
      54  M5N2TDZss   (m)         SubDyn
      55  M6N2TDXss   (m)         SubDyn
      56  M6N2TDYss   (m)         SubDyn
      57  M6N2TDZss   (m)         SubDyn
      58  M5N1FKXe    (N)         SubDyn
      59  M5N1FKYe    (N)         SubDyn
      60  M5N1FKZe    (N)         SubDyn
      61  M6N1FKXe    (N)         SubDyn
      62  M6N1FKYe    (N)         SubDyn
      63  M6N1FKZe    (N)         SubDyn
      64  M7N1FKZe    (N)         SubDyn
      65  M8N1FKZe    (N)         SubDyn
      66  -ReactFXss  (N)         SubDyn
      67  -ReactFYss  (N)         SubDyn
      68  -ReactMXss  (Nm)        SubDyn
      69  -ReactMYss  (Nm)        SubDyn
      70  -ReactMZss  (Nm)        SubDyn
      71  -ReactFZss  (N)         SubDyn
