
Predictions were generated on 08-Jun-2017 at 12:42:10 using OpenFAST (v8.17.01b-dev, 18-Jan-2017), compiled as a 64-bit application using double precision
 linked with  NWTC Subroutine Library (v2.11.02, 13-Mar-2017); ElastoDyn (v1.04.00a-bjj, 26-Jul-2016); InflowWind (v3.04.00, 31-Dec-2016); AeroDyn (v15.04.02a, 10-May-2017); ServoDyn (v1.06.00a-bjj, 26-Jul-2016)

Description from the FAST input file: FAST Certification Test #05: AWT-27CR2 with many DOFs with startup and shutdown and FF turbulence.

Time      	Wind1VelX 	Wind1VelY 	Wind1VelZ 	TipDxb1   	TipDyb1   	TipRDxb1  	TipRDyb1  	Spn3ALxb1 	Spn3ALyb1 	RotSpeed  	LSSGagV   	HSShftV   	RootFxb2  	RootFyb2  	Spn2MLxb1 	Spn2MLyb1 	LSShftTq  	HSShftTq  	LSShftPwr 	HSShftPwr 	YawBrFxn  	YawBrFyn  	YawBrFzn  	GenTq     	GenPwr    
(s)       	(m/s)     	(m/s)     	(m/s)     	(m)       	(m)       	(deg)     	(deg)     	(m/s^2)   	(m/s^2)   	(rpm)     	(rpm)     	(rpm)     	(kN)      	(kN)      	(kN·m)    	(kN·m)    	(kN·m)    	(kN·m)    	(kW)      	(kW)      	(kN)      	(kN)      	(kN)      	(kN·m)    	(kW)      
    5.0000	 1.200E+01	 0.000E+00	 0.000E+00	 5.850E-02	-7.645E-03	 5.291E-02	 5.040E-01	 1.733E-02	 6.460E-03	 1.801E-01	 1.801E-01	 4.052E+00	 2.892E+00	 1.314E-01	-4.326E-01	 5.718E+00	 3.532E-02	 1.570E-03	 6.661E-04	 6.660E-04	 1.610E+00	 6.633E-02	-7.178E+01	 0.000E+00	 0.000E+00
    5.0400	 1.200E+01	 0.000E+00	 0.000E+00	 5.882E-02	-7.690E-03	 5.325E-02	 5.074E-01	 1.311E-02	 7.462E-03	 1.806E-01	 1.805E-01	 4.062E+00	 2.903E+00	 1.341E-01	-4.290E-01	 5.747E+00	 3.816E-02	 1.696E-03	 7.216E-04	 7.215E-04	 1.540E+00	 6.785E-02	-7.178E+01	 0.000E+00	 0.000E+00
    5.0800	 1.200E+01	 0.000E+00	 0.000E+00	 5.906E-02	-7.725E-03	 5.352E-02	 5.099E-01	 1.006E-02	 8.179E-03	 1.810E-01	 1.810E-01	 4.073E+00	 2.914E+00	 1.369E-01	-4.252E-01	 5.768E+00	 3.829E-02	 1.702E-03	 7.259E-04	 7.259E-04	 1.510E+00	 6.928E-02	-7.179E+01	 0.000E+00	 0.000E+00
    5.1200	 1.200E+01	 0.000E+00	 0.000E+00	 5.917E-02	-7.747E-03	 5.367E-02	 5.109E-01	 1.010E-02	 8.639E-03	 1.815E-01	 1.815E-01	 4.084E+00	 2.924E+00	 1.399E-01	-4.208E-01	 5.778E+00	 3.488E-02	 1.550E-03	 6.629E-04	 6.630E-04	 1.520E+00	 7.056E-02	-7.179E+01	 0.000E+00	 0.000E+00
    5.1600	 1.200E+01	 0.000E+00	 0.000E+00	 5.917E-02	-7.755E-03	 5.373E-02	 5.105E-01	 1.217E-02	 8.842E-03	 1.819E-01	 1.819E-01	 4.093E+00	 2.933E+00	 1.430E-01	-4.159E-01	 5.777E+00	 2.848E-02	 1.266E-03	 5.425E-04	 5.426E-04	 1.568E+00	 7.169E-02	-7.179E+01	 0.000E+00	 0.000E+00
    5.2000	 1.200E+01	 0.000E+00	 0.000E+00	 5.913E-02	-7.759E-03	 5.374E-02	 5.096E-01	 1.285E-02	 8.774E-03	 1.822E-01	 1.822E-01	 4.100E+00	 2.943E+00	 1.463E-01	-4.110E-01	 5.775E+00	 2.075E-02	 9.220E-04	 3.958E-04	 3.959E-04	 1.651E+00	 7.271E-02	-7.180E+01	 0.000E+00	 0.000E+00
    5.2400	 1.200E+01	 0.000E+00	 0.000E+00	 5.914E-02	-7.770E-03	 5.380E-02	 5.092E-01	 7.936E-03	 8.427E-03	 1.824E-01	 1.824E-01	 4.105E+00	 2.955E+00	 1.494E-01	-4.066E-01	 5.777E+00	 1.375E-02	 6.111E-04	 2.626E-04	 2.627E-04	 1.764E+00	 7.365E-02	-7.180E+01	 0.000E+00	 0.000E+00
    5.2800	 1.200E+01	 0.000E+00	 0.000E+00	 5.928E-02	-7.795E-03	 5.397E-02	 5.103E-01	-5.720E-03	 7.820E-03	 1.826E-01	 1.826E-01	 4.108E+00	 2.971E+00	 1.524E-01	-4.032E-01	 5.793E+00	 9.238E-03	 4.106E-04	 1.766E-04	 1.766E-04	 1.899E+00	 7.458E-02	-7.180E+01	 0.000E+00	 0.000E+00
    5.3200	 1.200E+01	 0.000E+00	 0.000E+00	 5.960E-02	-7.841E-03	 5.430E-02	 5.131E-01	-2.884E-02	 7.016E-03	 1.827E-01	 1.827E-01	 4.110E+00	 2.990E+00	 1.553E-01	-4.009E-01	 5.824E+00	 7.994E-03	 3.553E-04	 1.529E-04	 1.529E-04	 2.049E+00	 7.552E-02	-7.181E+01	 0.000E+00	 0.000E+00
    5.3600	 1.200E+01	 0.000E+00	 0.000E+00	 6.006E-02	-7.903E-03	 5.476E-02	 5.176E-01	-5.919E-02	 6.116E-03	 1.828E-01	 1.828E-01	 4.113E+00	 3.011E+00	 1.579E-01	-3.995E-01	 5.868E+00	 9.611E-03	 4.271E-04	 1.840E-04	 1.840E-04	 2.203E+00	 7.650E-02	-7.182E+01	 0.000E+00	 0.000E+00
    5.4000	 1.200E+01	 0.000E+00	 0.000E+00	 6.059E-02	-7.975E-03	 5.528E-02	 5.230E-01	-9.217E-02	 5.253E-03	 1.829E-01	 1.829E-01	 4.116E+00	 3.034E+00	 1.605E-01	-3.985E-01	 5.919E+00	 1.269E-02	 5.640E-04	 2.431E-04	 2.431E-04	 2.350E+00	 7.748E-02	-7.184E+01	 0.000E+00	 0.000E+00
    5.4400	 1.200E+01	 0.000E+00	 0.000E+00	 6.111E-02	-8.044E-03	 5.579E-02	 5.282E-01	-1.222E-01	 4.562E-03	 1.831E-01	 1.831E-01	 4.120E+00	 3.055E+00	 1.631E-01	-3.973E-01	 5.967E+00	 1.538E-02	 6.836E-04	 2.950E-04	 2.949E-04	 2.480E+00	 7.843E-02	-7.185E+01	 0.000E+00	 0.000E+00
    5.4800	 1.200E+01	 0.000E+00	 0.000E+00	 6.153E-02	-8.101E-03	 5.621E-02	 5.323E-01	-1.443E-01	 4.158E-03	 1.833E-01	 1.833E-01	 4.125E+00	 3.073E+00	 1.659E-01	-3.953E-01	 6.004E+00	 1.605E-02	 7.134E-04	 3.081E-04	 3.081E-04	 2.583E+00	 7.930E-02	-7.186E+01	 0.000E+00	 0.000E+00
    5.5200	 1.200E+01	 0.000E+00	 0.000E+00	 6.178E-02	-8.140E-03	 5.648E-02	 5.346E-01	-1.556E-01	 4.116E-03	 1.835E-01	 1.835E-01	 4.129E+00	 3.087E+00	 1.688E-01	-3.922E-01	 6.027E+00	 1.384E-02	 6.151E-04	 2.659E-04	 2.660E-04	 2.654E+00	 8.009E-02	-7.186E+01	 0.000E+00	 0.000E+00
    5.5600	 1.200E+01	 0.000E+00	 0.000E+00	 6.187E-02	-8.159E-03	 5.662E-02	 5.353E-01	-1.561E-01	 4.462E-03	 1.836E-01	 1.837E-01	 4.132E+00	 3.097E+00	 1.719E-01	-3.878E-01	 6.034E+00	 8.899E-03	 3.955E-04	 1.711E-04	 1.712E-04	 2.686E+00	 8.082E-02	-7.187E+01	 0.000E+00	 0.000E+00
    5.6000	 1.200E+01	 0.000E+00	 0.000E+00	 6.184E-02	-8.164E-03	 5.665E-02	 5.346E-01	-1.480E-01	 5.178E-03	 1.837E-01	 1.837E-01	 4.134E+00	 3.103E+00	 1.751E-01	-3.825E-01	 6.031E+00	 2.273E-03	 1.010E-04	 4.373E-05	 4.374E-05	 2.680E+00	 8.151E-02	-7.187E+01	 0.000E+00	 0.000E+00
    5.6400	 1.200E+01	 0.000E+00	 0.000E+00	 6.177E-02	-8.163E-03	 5.663E-02	 5.335E-01	-1.349E-01	 6.212E-03	 1.837E-01	 1.837E-01	 4.134E+00	 3.107E+00	 1.783E-01	-3.767E-01	 6.024E+00	-4.540E-03	-2.018E-04	-8.733E-05	-8.734E-05	 2.637E+00	 8.225E-02	-7.186E+01	 0.000E+00	 0.000E+00
    5.6800	 1.200E+01	 0.000E+00	 0.000E+00	 6.170E-02	-8.164E-03	 5.663E-02	 5.327E-01	-1.206E-01	 7.501E-03	 1.836E-01	 1.836E-01	 4.131E+00	 3.111E+00	 1.815E-01	-3.707E-01	 6.019E+00	-1.015E-02	-4.511E-04	-1.951E-04	-1.952E-04	 2.560E+00	 8.310E-02	-7.186E+01	 0.000E+00	 0.000E+00
    5.7200	 1.200E+01	 0.000E+00	 0.000E+00	 6.171E-02	-8.172E-03	 5.669E-02	 5.326E-01	-1.074E-01	 8.982E-03	 1.834E-01	 1.835E-01	 4.128E+00	 3.114E+00	 1.846E-01	-3.650E-01	 6.020E+00	-1.376E-02	-6.115E-04	-2.643E-04	-2.643E-04	 2.454E+00	 8.408E-02	-7.186E+01	 0.000E+00	 0.000E+00
    5.7600	 1.200E+01	 0.000E+00	 0.000E+00	 6.178E-02	-8.189E-03	 5.682E-02	 5.335E-01	-9.618E-02	 1.060E-02	 1.833E-01	 1.833E-01	 4.124E+00	 3.118E+00	 1.876E-01	-3.595E-01	 6.028E+00	-1.541E-02	-6.848E-04	-2.957E-04	-2.957E-04	 2.325E+00	 8.522E-02	-7.186E+01	 0.000E+00	 0.000E+00
    5.8000	 1.200E+01	 0.000E+00	 0.000E+00	 6.190E-02	-8.210E-03	 5.698E-02	 5.348E-01	-8.579E-02	 1.231E-02	 1.831E-01	 1.831E-01	 4.119E+00	 3.121E+00	 1.905E-01	-3.542E-01	 6.039E+00	-1.590E-02	-7.065E-04	-3.048E-04	-3.048E-04	 2.181E+00	 8.649E-02	-7.186E+01	 0.000E+00	 0.000E+00
    5.8400	 1.200E+01	 0.000E+00	 0.000E+00	 6.202E-02	-8.231E-03	 5.715E-02	 5.362E-01	-7.435E-02	 1.408E-02	 1.829E-01	 1.829E-01	 4.115E+00	 3.125E+00	 1.935E-01	-3.488E-01	 6.049E+00	-1.644E-02	-7.307E-04	-3.149E-04	-3.149E-04	 2.029E+00	 8.784E-02	-7.186E+01	 0.000E+00	 0.000E+00
    5.8800	 1.200E+01	 0.000E+00	 0.000E+00	 6.208E-02	-8.246E-03	 5.726E-02	 5.370E-01	-6.010E-02	 1.585E-02	 1.826E-01	 1.827E-01	 4.110E+00	 3.127E+00	 1.965E-01	-3.431E-01	 6.053E+00	-1.820E-02	-8.089E-04	-3.481E-04	-3.481E-04	 1.878E+00	 8.922E-02	-7.186E+01	 0.000E+00	 0.000E+00
    5.9200	 1.200E+01	 0.000E+00	 0.000E+00	 6.206E-02	-8.251E-03	 5.730E-02	 5.368E-01	-4.247E-02	 1.758E-02	 1.824E-01	 1.824E-01	 4.104E+00	 3.128E+00	 1.996E-01	-3.369E-01	 6.050E+00	-2.184E-02	-9.709E-04	-4.172E-04	-4.173E-04	 1.734E+00	 9.057E-02	-7.186E+01	 0.000E+00	 0.000E+00
    5.9600	 1.200E+01	 0.000E+00	 0.000E+00	 6.196E-02	-8.246E-03	 5.727E-02	 5.357E-01	-2.248E-02	 1.920E-02	 1.821E-01	 1.821E-01	 4.097E+00	 3.128E+00	 2.027E-01	-3.303E-01	 6.040E+00	-2.734E-02	-1.215E-03	-5.212E-04	-5.213E-04	 1.606E+00	 9.188E-02	-7.186E+01	 0.000E+00	 0.000E+00
    6.0000	 1.200E+01	 0.000E+00	 0.000E+00	 6.182E-02	-8.238E-03	 5.721E-02	 5.342E-01	 1.151E-01	-5.240E+00	 1.817E-01	 3.003E-01	 6.757E+00	 3.174E+00	 2.362E+00	 9.206E-01	 6.191E+00	-1.245E+01	-5.531E-01	-2.369E-01	-3.914E-01	 1.525E+00	-1.307E+00	-7.192E+01	-1.105E+01	-3.046E+03
    6.0400	 1.200E+01	 0.000E+00	 0.000E+00	 6.390E-02	 2.755E-02	-2.160E-01	 6.432E-01	-1.667E+00	-3.348E+01	 1.797E+00	 2.469E+00	 5.555E+01	 4.359E+00	 1.281E+01	-3.363E+01	 4.914E+00	-1.633E+02	-7.258E+00	-3.074E+01	-4.223E+01	 2.445E+00	-5.932E+00	-7.313E+01	-1.131E+01	-3.046E+03
    6.0800	 1.200E+01	 0.000E+00	 0.000E+00	 5.822E-02	 3.735E-02	-2.839E-01	 7.823E-01	 6.239E+00	-3.475E+01	 3.382E+00	 3.396E+00	 7.642E+01	 3.260E+00	 1.326E+01	-3.571E+01	 3.116E+00	-1.729E+02	-7.684E+00	-6.123E+01	-6.149E+01	 1.889E+00	-7.830E-02	-7.209E+01	-1.142E+01	-3.046E+03
    6.1200	 1.200E+01	 0.000E+00	 0.000E+00	 3.118E-02	 2.336E-02	-1.810E-01	 3.421E-01	 3.152E+00	-2.464E+01	 5.148E+00	 4.920E+00	 1.107E+02	 3.093E+00	 9.116E+00	-2.156E+01	 1.848E+00	-1.107E+02	-4.920E+00	-5.968E+01	-5.703E+01	 9.090E-01	 3.590E-02	-7.197E+01	-1.160E+01	-3.045E+03
    6.1600	 1.200E+01	 0.000E+00	 0.000E+00	 7.689E-03	 2.482E-02	-1.976E-01	-6.331E-02	-1.458E-01	-2.489E+01	 6.855E+00	 6.894E+00	 1.551E+02	 3.343E+00	 9.838E+00	-2.292E+01	 3.977E-01	-1.177E+02	-5.231E+00	-8.450E+01	-8.498E+01	 1.445E+00	-6.615E+00	-7.251E+01	-1.184E+01	-3.043E+03
    6.2000	 1.200E+01	 0.000E+00	 0.000E+00	 6.428E-03	 3.075E-02	-2.369E-01	 8.957E-02	 6.587E+00	-2.850E+01	 8.532E+00	 8.632E+00	 1.942E+02	 2.522E+00	 1.206E+01	-2.677E+01	-6.062E-01	-1.441E+02	-6.403E+00	-1.287E+02	-1.302E+02	 1.677E+00	-3.604E+00	-7.218E+01	-1.206E+01	-3.039E+03
    6.2400	 1.200E+01	 0.000E+00	 0.000E+00	 1.282E-02	 3.164E-02	-2.434E-01	 1.738E-01	 5.716E+00	-3.026E+01	 1.026E+01	 1.026E+01	 2.309E+02	 2.895E+00	 1.178E+01	-2.782E+01	 9.793E-02	-1.435E+02	-6.376E+00	-1.542E+02	-1.541E+02	 9.708E-01	 1.897E+00	-7.273E+01	-1.226E+01	-3.035E+03
    6.2800	 1.200E+01	 0.000E+00	 0.000E+00	 2.417E-02	 2.911E-02	-2.276E-01	 2.051E-01	 2.210E+00	-2.993E+01	 1.206E+01	 1.203E+01	 2.707E+02	 3.694E+00	 1.133E+01	-2.720E+01	 1.720E+00	-1.361E+02	-6.050E+00	-1.719E+02	-1.715E+02	 1.511E+00	-1.220E+00	-7.375E+01	-1.249E+01	-3.028E+03
    6.3200	 1.200E+01	 0.000E+00	 0.000E+00	 4.311E-02	 2.462E-02	-1.913E-01	 4.634E-01	 4.445E+00	-2.850E+01	 1.389E+01	 1.390E+01	 3.128E+02	 3.672E+00	 1.237E+01	-2.514E+01	 3.257E+00	-1.394E+02	-6.196E+00	-2.027E+02	-2.030E+02	 2.737E+00	-4.126E+00	-7.458E+01	-1.273E+01	-3.019E+03
    6.3600	 1.200E+01	 0.000E+00	 0.000E+00	 5.790E-02	 2.354E-02	-1.825E-01	 6.425E-01	 4.331E+00	-3.004E+01	 1.572E+01	 1.575E+01	 3.545E+02	 4.062E+00	 1.319E+01	-2.619E+01	 4.513E+00	-1.477E+02	-6.565E+00	-2.432E+02	-2.437E+02	 2.791E+00	-3.403E-01	-7.562E+01	-1.296E+01	-3.007E+03
    6.4000	 1.200E+01	 0.000E+00	 0.000E+00	 6.238E-02	 2.664E-02	-2.074E-01	 6.680E-01	 3.554E+00	-3.342E+01	 1.757E+01	 1.759E+01	 3.957E+02	 4.593E+00	 1.315E+01	-2.955E+01	 4.881E+00	-1.523E+02	-6.769E+00	-2.801E+02	-2.805E+02	 2.691E+00	 2.371E+00	-7.607E+01	-1.319E+01	-2.992E+03
    6.4400	 1.200E+01	 0.000E+00	 0.000E+00	 5.717E-02	 2.822E-02	-2.183E-01	 6.433E-01	 6.206E+00	-3.414E+01	 1.943E+01	 1.944E+01	 4.375E+02	 4.430E+00	 1.355E+01	-2.983E+01	 4.137E+00	-1.548E+02	-6.879E+00	-3.149E+02	-3.152E+02	 3.368E+00	 5.757E-01	-7.616E+01	-1.342E+01	-2.973E+03
    6.4800	 1.200E+01	 0.000E+00	 0.000E+00	 4.178E-02	 2.861E-02	-2.213E-01	 4.674E-01	 7.737E+00	-3.393E+01	 2.128E+01	 2.132E+01	 4.796E+02	 4.271E+00	 1.458E+01	-2.867E+01	 2.786E+00	-1.611E+02	-7.162E+00	-3.592E+02	-3.597E+02	 3.789E+00	 3.210E-01	-7.674E+01	-1.364E+01	-2.950E+03
    6.5200	 1.200E+01	 0.000E+00	 0.000E+00	 2.265E-02	 3.241E-02	-2.512E-01	 2.359E-01	 8.883E+00	-3.645E+01	 2.310E+01	 2.314E+01	 5.207E+02	 4.330E+00	 1.528E+01	-3.041E+01	 1.138E+00	-1.705E+02	-7.576E+00	-4.123E+02	-4.131E+02	 3.702E+00	 3.198E+00	-7.676E+01	-1.384E+01	-2.921E+03
    6.5600	 1.200E+01	 0.000E+00	 0.000E+00	 7.504E-03	 3.799E-02	-2.925E-01	 1.116E-01	 1.224E+01	-3.978E+01	 2.487E+01	 2.491E+01	 5.605E+02	 4.217E+00	 1.550E+01	-3.338E+01	-4.655E-01	-1.781E+02	-7.915E+00	-4.639E+02	-4.645E+02	 3.897E+00	 4.824E+00	-7.578E+01	-1.401E+01	-2.888E+03
    6.6000	 1.200E+01	 0.000E+00	 0.000E+00	-2.283E-03	 4.006E-02	-3.079E-01	 1.587E-02	 1.421E+01	-4.096E+01	 2.659E+01	 2.663E+01	 5.992E+02	 4.286E+00	 1.623E+01	-3.376E+01	-1.258E+00	-1.857E+02	-8.254E+00	-5.171E+02	-5.179E+02	 4.545E+00	 4.588E+00	-7.540E+01	-1.415E+01	-2.849E+03
    6.6400	 1.200E+01	 0.000E+00	 0.000E+00	-4.679E-03	 3.978E-02	-3.065E-01	-3.144E-02	 1.507E+01	-4.185E+01	 2.824E+01	 2.828E+01	 6.364E+02	 4.684E+00	 1.711E+01	-3.349E+01	-1.169E+00	-1.941E+02	-8.625E+00	-5.740E+02	-5.748E+02	 5.383E+00	 5.820E+00	-7.519E+01	-1.426E+01	-2.805E+03
    6.6800	 1.200E+01	 0.000E+00	 0.000E+00	 5.943E-04	 4.161E-02	-3.194E-01	 5.986E-02	 1.766E+01	-4.457E+01	 2.982E+01	 2.986E+01	 6.718E+02	 5.162E+00	 1.739E+01	-3.576E+01	-7.606E-01	-2.027E+02	-9.008E+00	-6.328E+02	-6.337E+02	 6.282E+00	 8.327E+00	-7.355E+01	-1.433E+01	-2.755E+03
    6.7200	 1.200E+01	 0.000E+00	 0.000E+00	 4.622E-03	 4.427E-02	-3.380E-01	 1.581E-01	 2.115E+01	-4.699E+01	 3.130E+01	 3.134E+01	 7.051E+02	 5.497E+00	 1.749E+01	-3.811E+01	-6.310E-01	-2.104E+02	-9.349E+00	-6.895E+02	-6.903E+02	 7.015E+00	 9.540E+00	-7.122E+01	-1.436E+01	-2.701E+03
    6.7600	 1.200E+01	 0.000E+00	 0.000E+00	-3.403E-03	 4.598E-02	-3.504E-01	 8.821E-02	 2.432E+01	-4.771E+01	 3.271E+01	 3.274E+01	 7.365E+02	 5.556E+00	 1.765E+01	-3.849E+01	-1.437E+00	-2.155E+02	-9.576E+00	-7.381E+02	-7.386E+02	 7.669E+00	 9.745E+00	-6.919E+01	-1.435E+01	-2.641E+03
    6.8000	 1.200E+01	 0.000E+00	 0.000E+00	-2.572E-02	 4.910E-02	-3.739E-01	-1.487E-01	 2.807E+01	-4.834E+01	 3.406E+01	 3.407E+01	 7.666E+02	 5.248E+00	 1.754E+01	-3.886E+01	-3.535E+00	-2.186E+02	-9.717E+00	-7.798E+02	-7.801E+02	 8.305E+00	 1.038E+01	-6.698E+01	-1.428E+01	-2.576E+03
    6.8400	 1.200E+01	 0.000E+00	 0.000E+00	-5.635E-02	 5.394E-02	-4.103E-01	-4.714E-01	 3.227E+01	-4.919E+01	 3.535E+01	 3.535E+01	 7.955E+02	 4.729E+00	 1.707E+01	-3.970E+01	-6.378E+00	-2.201E+02	-9.784E+00	-8.149E+02	-8.150E+02	 8.589E+00	 1.085E+01	-6.456E+01	-1.417E+01	-2.505E+03
    6.8800	 1.200E+01	 0.000E+00	 0.000E+00	-8.482E-02	 5.706E-02	-4.340E-01	-7.842E-01	 3.595E+01	-4.878E+01	 3.661E+01	 3.660E+01	 8.235E+02	 4.283E+00	 1.650E+01	-3.913E+01	-8.784E+00	-2.179E+02	-9.683E+00	-8.353E+02	-8.350E+02	 8.709E+00	 1.022E+01	-6.290E+01	-1.401E+01	-2.427E+03
    6.9200	 1.200E+01	 0.000E+00	 0.000E+00	-1.020E-01	 5.708E-02	-4.336E-01	-9.649E-01	 3.958E+01	-4.683E+01	 3.787E+01	 3.784E+01	 8.515E+02	 3.925E+00	 1.584E+01	-3.717E+01	-1.008E+01	-2.115E+02	-9.398E+00	-8.387E+02	-8.380E+02	 9.229E+00	 9.095E+00	-6.234E+01	-1.378E+01	-2.340E+03
    6.9600	 1.200E+01	 0.000E+00	 0.000E+00	-1.048E-01	 5.556E-02	-4.215E-01	-9.875E-01	 4.232E+01	-4.468E+01	 3.916E+01	 3.911E+01	 8.801E+02	 3.848E+00	 1.485E+01	-3.562E+01	-1.006E+01	-2.020E+02	-8.978E+00	-8.284E+02	-8.274E+02	 1.015E+01	 8.082E+00	-6.228E+01	-1.347E+01	-2.239E+03
    7.0000	 1.200E+01	 0.000E+00	 0.000E+00	-9.715E-02	 5.285E-02	-4.002E-01	-8.916E-01	 4.450E+01	-4.273E+01	 4.048E+01	 4.042E+01	 9.095E+02	 3.751E+00	 1.356E+01	-3.389E+01	-9.187E+00	-1.895E+02	-8.422E+00	-8.033E+02	-8.021E+02	 1.090E+01	 6.603E+00	-6.296E+01	-1.306E+01	-2.122E+03
    7.0400	 1.200E+01	 0.000E+00	 0.000E+00	-8.595E-02	 4.731E-02	-3.585E-01	-7.930E-01	 4.479E+01	-4.008E+01	 4.186E+01	 4.178E+01	 9.400E+02	 3.624E+00	 1.228E+01	-2.996E+01	-7.907E+00	-1.726E+02	-7.671E+00	-7.565E+02	-7.550E+02	 1.184E+01	 4.675E+00	-6.478E+01	-1.251E+01	-1.986E+03
    7.0800	 1.200E+01	 0.000E+00	 0.000E+00	-7.070E-02	 4.058E-02	-3.093E-01	-6.933E-01	 4.367E+01	-3.596E+01	 4.329E+01	 4.319E+01	 9.718E+02	 3.624E+00	 1.068E+01	-2.624E+01	-6.000E+00	-1.522E+02	-6.765E+00	-6.900E+02	-6.885E+02	 1.333E+01	 2.826E+00	-6.727E+01	-1.179E+01	-1.824E+03
    7.1200	 1.200E+01	 0.000E+00	 0.000E+00	-4.609E-02	 3.601E-02	-2.755E-01	-4.508E-01	 4.367E+01	-3.319E+01	 4.472E+01	 4.463E+01	 1.004E+03	 3.843E+00	 8.497E+00	-2.533E+01	-3.468E+00	-1.330E+02	-5.911E+00	-6.228E+02	-6.215E+02	 1.494E+01	 7.281E-01	-7.007E+01	-1.087E+01	-1.639E+03
    7.1600	 1.200E+01	 0.000E+00	 0.000E+00	-1.668E-02	 3.093E-02	-2.363E-01	-1.201E-01	 4.528E+01	-2.801E+01	 4.611E+01	 4.602E+01	 1.035E+03	 3.808E+00	 6.379E+00	-2.418E+01	-7.605E-01	-1.135E+02	-5.047E+00	-5.483E+02	-5.472E+02	 1.608E+01	-1.265E+00	-7.340E+01	-9.785E+00	-1.438E+03
    7.2000	 1.200E+01	 0.000E+00	 0.000E+00	 1.296E-02	 2.681E-02	-2.074E-01	 1.412E-01	 4.378E+01	-2.417E+01	 4.739E+01	 4.731E+01	 1.065E+03	 4.383E+00	 4.113E+00	-2.447E+01	 2.391E+00	-9.715E+01	-4.318E+00	-4.821E+02	-4.813E+02	 1.771E+01	-3.025E+00	-7.659E+01	-8.579E+00	-1.230E+03
    7.2400	 1.200E+01	 0.000E+00	 0.000E+00	 3.972E-02	 2.005E-02	-1.568E-01	 4.043E-01	 4.460E+01	-2.159E+01	 4.857E+01	 4.847E+01	 1.091E+03	 4.286E+00	 2.307E+00	-2.067E+01	 5.066E+00	-7.770E+01	-3.453E+00	-3.952E+02	-3.944E+02	 1.946E+01	-3.506E+00	-7.902E+01	-7.320E+00	-1.027E+03
    7.2800	 1.200E+01	 0.000E+00	 0.000E+00	 5.975E-02	 9.854E-03	-8.204E-02	 5.249E-01	 4.288E+01	-1.609E+01	 4.963E+01	 4.953E+01	 1.114E+03	 3.807E+00	 1.148E+00	-1.432E+01	 7.544E+00	-5.683E+01	-2.526E+00	-2.954E+02	-2.948E+02	 2.095E+01	-2.969E+00	-7.890E+01	-6.014E+00	-8.267E+02
    7.3200	 1.200E+01	 0.000E+00	 0.000E+00	 8.415E-02	 4.534E-03	-4.789E-02	 6.207E-01	 3.640E+01	-1.341E+01	 5.052E+01	 5.045E+01	 1.135E+03	 4.051E+00	-6.980E-01	-1.407E+01	 1.061E+01	-4.150E+01	-1.845E+00	-2.196E+02	-2.193E+02	 2.282E+01	-3.183E+00	-7.818E+01	-4.751E+00	-6.421E+02
    7.3600	 1.200E+01	 0.000E+00	 0.000E+00	 1.242E-01	 2.053E-03	-3.248E-02	 9.770E-01	 3.215E+01	-1.290E+01	 5.125E+01	 5.120E+01	 1.152E+03	 4.481E+00	-2.713E+00	-1.670E+01	 1.450E+01	-3.010E+01	-1.338E+00	-1.615E+02	-1.614E+02	 2.564E+01	-3.730E+00	-7.797E+01	-3.639E+00	-4.857E+02
    7.4000	 1.200E+01	 0.000E+00	 0.000E+00	 1.699E-01	-5.335E-03	 2.234E-02	 1.438E+00	 2.750E+01	-9.303E+00	 5.183E+01	 5.178E+01	 1.165E+03	 4.798E+00	-3.294E+00	-1.493E+01	 1.872E+01	-2.061E+01	-9.162E-01	-1.119E+02	-1.118E+02	 2.853E+01	-3.123E+00	-7.539E+01	-2.709E+00	-3.587E+02
    7.4400	 1.200E+01	 0.000E+00	 0.000E+00	 2.027E-01	-1.351E-02	 8.469E-02	 1.789E+00	 2.331E+01	-4.832E+00	 5.226E+01	 5.223E+01	 1.175E+03	 4.615E+00	-3.049E+00	-1.146E+01	 2.152E+01	-1.403E+01	-6.235E-01	-7.677E+01	-7.673E+01	 2.971E+01	-2.005E+00	-7.111E+01	-1.962E+00	-2.591E+02
    7.4800	 1.200E+01	 0.000E+00	 0.000E+00	 2.051E-01	-1.489E-02	 9.728E-02	 1.866E+00	 2.199E+01	-2.868E+00	 5.257E+01	 5.255E+01	 1.182E+03	 3.668E+00	-3.103E+00	-1.057E+01	 2.100E+01	-1.051E+01	-4.670E-01	-5.785E+01	-5.783E+01	 2.966E+01	-1.898E+00	-6.821E+01	-1.403E+00	-1.859E+02
    7.5200	 1.200E+01	 0.000E+00	 0.000E+00	 1.722E-01	-1.125E-02	 7.069E-02	 1.533E+00	 2.106E+01	-1.818E+00	 5.279E+01	 5.278E+01	 1.188E+03	 2.335E+00	-3.169E+00	-1.000E+01	 1.739E+01	-7.904E+00	-3.513E-01	-4.370E+01	-4.368E+01	 2.983E+01	-2.270E+00	-6.669E+01	-1.006E+00	-1.345E+02
    7.5600	 1.200E+01	 0.000E+00	 0.000E+00	 1.204E-01	-7.541E-03	 4.256E-02	 9.583E-01	 2.047E+01	 5.879E-02	 5.295E+01	 5.294E+01	 1.191E+03	 8.636E-01	-2.766E+00	-7.579E+00	 1.251E+01	-5.382E+00	-2.392E-01	-2.985E+01	-2.984E+01	 2.943E+01	-1.862E+00	-6.560E+01	-7.181E-01	-9.754E+01
    7.6000	 1.200E+01	 0.000E+00	 0.000E+00	 7.394E-02	-4.388E-03	 1.971E-02	 4.697E-01	 2.143E+01	 1.274E+00	 5.307E+01	 5.306E+01	 1.194E+03	-4.387E-01	-2.367E+00	-5.431E+00	 8.219E+00	-2.714E+00	-1.206E-01	-1.508E+01	-1.508E+01	 2.778E+01	-8.736E-01	-6.574E+01	-4.992E-01	-6.962E+01
    7.6400	 1.200E+01	 0.000E+00	 0.000E+00	 4.735E-02	-2.147E-03	 3.772E-03	 2.037E-01	 2.220E+01	 1.132E+00	 5.319E+01	 5.317E+01	 1.196E+03	-1.043E+00	-2.355E+00	-4.608E+00	 5.837E+00	 1.731E+00	 7.692E-02	 9.641E+00	 9.637E+00	 2.656E+01	 2.905E-01	-6.726E+01	-3.053E-01	-4.502E+01
    7.6800	 1.200E+01	 0.000E+00	 0.000E+00	 4.511E-02	-3.655E-03	 1.487E-02	 1.637E-01	 2.186E+01	 1.178E+00	 5.332E+01	 5.329E+01	 1.199E+03	-8.460E-01	-2.302E+00	-3.173E+00	 5.962E+00	 8.301E+00	 3.689E-01	 4.635E+01	 4.632E+01	 2.663E+01	 1.876E+00	-6.898E+01	-8.559E-02	-1.728E+01
    7.7200	 1.200E+01	 0.000E+00	 0.000E+00	 6.652E-02	-9.536E-03	 5.824E-02	 3.529E-01	 2.148E+01	 1.791E+00	 5.345E+01	 5.342E+01	 1.202E+03	-2.474E-02	-1.921E+00	-7.724E-01	 8.454E+00	 1.485E+01	 6.598E-01	 8.310E+01	 8.306E+01	 2.676E+01	 3.692E+00	-7.058E+01	 1.684E-01	 1.461E+01
    7.7600	 1.200E+01	 0.000E+00	 0.000E+00	 1.054E-01	-1.732E-02	 1.160E-01	 7.310E-01	 2.204E+01	 2.013E+00	 5.359E+01	 5.356E+01	 1.205E+03	 1.275E+00	-1.459E+00	 1.214E+00	 1.256E+01	 2.039E+01	 9.064E-01	 1.145E+02	 1.144E+02	 2.657E+01	 5.321E+00	-7.216E+01	 4.291E-01	 4.713E+01
    7.8000	 1.200E+01	 0.000E+00	 0.000E+00	 1.490E-01	-2.515E-02	 1.745E-01	 1.175E+00	 2.431E+01	 1.898E+00	 5.372E+01	 5.370E+01	 1.208E+03	 2.719E+00	-9.770E-01	 2.851E+00	 1.693E+01	 2.539E+01	 1.128E+00	 1.428E+02	 1.428E+02	 2.677E+01	 6.791E+00	-7.337E+01	 6.801E-01	 7.826E+01
    7.8400	 1.200E+01	 0.000E+00	 0.000E+00	 1.813E-01	-3.196E-02	 2.255E-01	 1.501E+00	 2.733E+01	 2.053E+00	 5.383E+01	 5.382E+01	 1.211E+03	 3.849E+00	-3.070E-01	 4.876E+00	 2.010E+01	 2.926E+01	 1.300E+00	 1.649E+02	 1.649E+02	 2.697E+01	 8.065E+00	-7.412E+01	 9.104E-01	 1.067E+02
    7.8800	 1.200E+01	 0.000E+00	 0.000E+00	 1.919E-01	-3.593E-02	 2.548E-01	 1.585E+00	 3.020E+01	 2.099E+00	 5.392E+01	 5.391E+01	 1.213E+03	 4.425E+00	 4.058E-01	 6.655E+00	 2.120E+01	 3.148E+01	 1.399E+00	 1.777E+02	 1.777E+02	 2.647E+01	 8.866E+00	-7.427E+01	 1.100E+00	 1.300E+02
    7.9200	 1.200E+01	 0.000E+00	 0.000E+00	 1.818E-01	-3.634E-02	 2.571E-01	 1.449E+00	 3.276E+01	 1.592E+00	 5.399E+01	 5.399E+01	 1.215E+03	 4.509E+00	 9.461E-01	 7.624E+00	 2.033E+01	 3.239E+01	 1.440E+00	 1.831E+02	 1.831E+02	 2.565E+01	 9.130E+00	-7.357E+01	 1.238E+00	 1.468E+02
    7.9600	 1.200E+01	 0.000E+00	 0.000E+00	 1.614E-01	-3.496E-02	 2.464E-01	 1.214E+00	 3.513E+01	 1.051E+00	 5.403E+01	 5.403E+01	 1.216E+03	 4.338E+00	 1.393E+00	 8.423E+00	 1.852E+01	 3.247E+01	 1.443E+00	 1.837E+02	 1.837E+02	 2.510E+01	 8.857E+00	-7.237E+01	 1.325E+00	 1.574E+02
    8.0000	 1.200E+01	 0.000E+00	 0.000E+00	 1.424E-01	-3.383E-02	 2.382E-01	 1.013E+00	 3.708E+01	 9.618E-01	 5.405E+01	 5.405E+01	 1.216E+03	 4.124E+00	 1.836E+00	 9.456E+00	 1.692E+01	 3.196E+01	 1.420E+00	 1.809E+02	 1.809E+02	 2.473E+01	 7.896E+00	-7.123E+01	 1.370E+00	 1.629E+02
    8.0400	 1.200E+01	 0.000E+00	 0.000E+00	 1.322E-01	-3.322E-02	 2.345E-01	 9.250E-01	 3.872E+01	 9.458E-01	 5.406E+01	 5.406E+01	 1.216E+03	 4.001E+00	 2.075E+00	 1.007E+01	 1.607E+01	 3.138E+01	 1.395E+00	 1.777E+02	 1.777E+02	 2.451E+01	 6.341E+00	-7.020E+01	 1.385E+00	 1.647E+02
    8.0800	 1.200E+01	 0.000E+00	 0.000E+00	 1.310E-01	-3.271E-02	 2.316E-01	 9.369E-01	 3.960E+01	 6.881E-01	 5.406E+01	 5.406E+01	 1.216E+03	 4.051E+00	 1.967E+00	 9.856E+00	 1.599E+01	 3.115E+01	 1.384E+00	 1.763E+02	 1.763E+02	 2.476E+01	 4.526E+00	-6.925E+01	 1.386E+00	 1.648E+02
    8.1200	 1.200E+01	 0.000E+00	 0.000E+00	 1.354E-01	-3.238E-02	 2.294E-01	 9.973E-01	 3.955E+01	 4.395E-01	 5.406E+01	 5.406E+01	 1.216E+03	 4.233E+00	 1.594E+00	 9.217E+00	 1.642E+01	 3.135E+01	 1.393E+00	 1.775E+02	 1.775E+02	 2.549E+01	 2.585E+00	-6.867E+01	 1.387E+00	 1.649E+02
    8.1600	 1.200E+01	 0.000E+00	 0.000E+00	 1.424E-01	-3.211E-02	 2.275E-01	 1.080E+00	 3.921E+01	 3.346E-01	 5.407E+01	 5.407E+01	 1.216E+03	 4.443E+00	 1.013E+00	 8.382E+00	 1.705E+01	 3.189E+01	 1.417E+00	 1.805E+02	 1.805E+02	 2.638E+01	 5.152E-01	-6.857E+01	 1.395E+00	 1.659E+02
    8.2000	 1.200E+01	 0.000E+00	 0.000E+00	 1.488E-01	-3.131E-02	 2.216E-01	 1.159E+00	 3.900E+01	 2.212E-01	 5.408E+01	 5.407E+01	 1.217E+03	 4.622E+00	 2.099E-01	 7.183E+00	 1.757E+01	 3.261E+01	 1.449E+00	 1.846E+02	 1.846E+02	 2.722E+01	-1.503E+00	-6.883E+01	 1.412E+00	 1.680E+02
    8.2400	 1.200E+01	 0.000E+00	 0.000E+00	 1.517E-01	-2.973E-02	 2.097E-01	 1.201E+00	 3.890E+01	 1.362E-01	 5.409E+01	 5.409E+01	 1.217E+03	 4.715E+00	-7.503E-01	 5.728E+00	 1.773E+01	 3.336E+01	 1.483E+00	 1.889E+02	 1.889E+02	 2.804E+01	-3.221E+00	-6.942E+01	 1.436E+00	 1.709E+02
    8.2800	 1.200E+01	 0.000E+00	 0.000E+00	 1.499E-01	-2.754E-02	 1.929E-01	 1.184E+00	 3.877E+01	 2.030E-01	 5.410E+01	 5.410E+01	 1.217E+03	 4.692E+00	-1.769E+00	 4.271E+00	 1.747E+01	 3.404E+01	 1.513E+00	 1.929E+02	 1.929E+02	 2.881E+01	-4.538E+00	-7.023E+01	 1.464E+00	 1.743E+02
    8.3200	 1.200E+01	 0.000E+00	 0.000E+00	 1.449E-01	-2.495E-02	 1.728E-01	 1.126E+00	 3.847E+01	 3.315E-01	 5.412E+01	 5.412E+01	 1.218E+03	 4.598E+00	-2.821E+00	 2.768E+00	 1.696E+01	 3.469E+01	 1.542E+00	 1.966E+02	 1.966E+02	 2.946E+01	-5.446E+00	-7.103E+01	 1.492E+00	 1.777E+02
    8.3600	 1.200E+01	 0.000E+00	 0.000E+00	 1.404E-01	-2.234E-02	 1.526E-01	 1.072E+00	 3.804E+01	 4.679E-01	 5.413E+01	 5.413E+01	 1.218E+03	 4.513E+00	-3.871E+00	 1.188E+00	 1.653E+01	 3.535E+01	 1.571E+00	 2.004E+02	 2.004E+02	 3.002E+01	-5.917E+00	-7.171E+01	 1.521E+00	 1.812E+02
    8.4000	 1.200E+01	 0.000E+00	 0.000E+00	 1.394E-01	-2.033E-02	 1.369E-01	 1.057E+00	 3.746E+01	 7.355E-01	 5.415E+01	 5.414E+01	 1.218E+03	 4.489E+00	-4.822E+00	-2.478E-01	 1.644E+01	 3.599E+01	 1.599E+00	 2.041E+02	 2.040E+02	 3.058E+01	-5.913E+00	-7.219E+01	 1.550E+00	 1.847E+02
    8.4400	 1.200E+01	 0.000E+00	 0.000E+00	 1.426E-01	-1.917E-02	 1.278E-01	 1.088E+00	 3.672E+01	 1.154E+00	 5.416E+01	 5.416E+01	 1.219E+03	 4.532E+00	-5.612E+00	-1.423E+00	 1.672E+01	 3.658E+01	 1.626E+00	 2.075E+02	 2.075E+02	 3.113E+01	-5.455E+00	-7.235E+01	 1.578E+00	 1.881E+02
    8.4800	 1.200E+01	 0.000E+00	 0.000E+00	 1.484E-01	-1.863E-02	 1.233E-01	 1.147E+00	 3.588E+01	 1.599E+00	 5.418E+01	 5.417E+01	 1.219E+03	 4.599E+00	-6.228E+00	-2.390E+00	 1.722E+01	 3.709E+01	 1.648E+00	 2.104E+02	 2.104E+02	 3.154E+01	-4.643E+00	-7.221E+01	 1.605E+00	 1.914E+02
    8.5200	 1.200E+01	 0.000E+00	 0.000E+00	 1.541E-01	-1.842E-02	 1.215E-01	 1.206E+00	 3.503E+01	 2.027E+00	 5.419E+01	 5.418E+01	 1.219E+03	 4.635E+00	-6.650E+00	-3.094E+00	 1.769E+01	 3.744E+01	 1.664E+00	 2.124E+02	 2.124E+02	 3.178E+01	-3.582E+00	-7.183E+01	 1.628E+00	 1.942E+02
    8.5600	 1.200E+01	 0.000E+00	 0.000E+00	 1.578E-01	-1.840E-02	 1.211E-01	 1.243E+00	 3.432E+01	 2.449E+00	 5.419E+01	 5.419E+01	 1.219E+03	 4.598E+00	-6.847E+00	-3.429E+00	 1.796E+01	 3.755E+01	 1.669E+00	 2.131E+02	 2.131E+02	 3.182E+01	-2.341E+00	-7.127E+01	 1.646E+00	 1.963E+02
    8.6000	 1.200E+01	 0.000E+00	 0.000E+00	 1.583E-01	-1.844E-02	 1.214E-01	 1.248E+00	 3.388E+01	 2.809E+00	 5.420E+01	 5.420E+01	 1.219E+03	 4.472E+00	-6.821E+00	-3.413E+00	 1.795E+01	 3.741E+01	 1.663E+00	 2.123E+02	 2.123E+02	 3.160E+01	-9.958E-01	-7.064E+01	 1.655E+00	 1.975E+02
    8.6400	 1.200E+01	 0.000E+00	 0.000E+00	 1.558E-01	-1.846E-02	 1.216E-01	 1.222E+00	 3.372E+01	 3.034E+00	 5.420E+01	 5.420E+01	 1.219E+03	 4.269E+00	-6.600E+00	-3.112E+00	 1.765E+01	 3.704E+01	 1.646E+00	 2.102E+02	 2.102E+02	 3.113E+01	 3.511E-01	-7.008E+01	 1.655E+00	 1.974E+02
    8.6800	 1.200E+01	 0.000E+00	 0.000E+00	 1.510E-01	-1.854E-02	 1.224E-01	 1.172E+00	 3.369E+01	 3.103E+00	 5.419E+01	 5.419E+01	 1.219E+03	 4.030E+00	-6.213E+00	-2.556E+00	 1.718E+01	 3.657E+01	 1.625E+00	 2.075E+02	 2.075E+02	 3.050E+01	 1.627E+00	-6.971E+01	 1.646E+00	 1.964E+02
    8.7200	 1.200E+01	 0.000E+00	 0.000E+00	 1.459E-01	-1.891E-02	 1.253E-01	 1.115E+00	 3.370E+01	 3.029E+00	 5.418E+01	 5.419E+01	 1.219E+03	 3.815E+00	-5.682E+00	-1.765E+00	 1.671E+01	 3.613E+01	 1.606E+00	 2.050E+02	 2.050E+02	 2.982E+01	 2.804E+00	-6.957E+01	 1.632E+00	 1.947E+02
    8.7600	 1.200E+01	 0.000E+00	 0.000E+00	 1.424E-01	-1.979E-02	 1.321E-01	 1.074E+00	 3.374E+01	 2.855E+00	 5.418E+01	 5.418E+01	 1.219E+03	 3.671E+00	-5.027E+00	-7.605E-01	 1.643E+01	 3.581E+01	 1.591E+00	 2.032E+02	 2.032E+02	 2.911E+01	 3.851E+00	-6.967E+01	 1.617E+00	 1.928E+02
    8.8000	 1.200E+01	 0.000E+00	 0.000E+00	 1.419E-01	-2.132E-02	 1.437E-01	 1.064E+00	 3.382E+01	 2.654E+00	 5.417E+01	 5.417E+01	 1.219E+03	 3.620E+00	-4.255E+00	 4.523E-01	 1.643E+01	 3.564E+01	 1.584E+00	 2.022E+02	 2.022E+02	 2.844E+01	 4.710E+00	-6.994E+01	 1.603E+00	 1.912E+02
    8.8400	 1.200E+01	 0.000E+00	 0.000E+00	 1.440E-01	-2.344E-02	 1.599E-01	 1.080E+00	 3.393E+01	 2.489E+00	 5.417E+01	 5.417E+01	 1.219E+03	 3.655E+00	-3.387E+00	 1.854E+00	 1.670E+01	 3.564E+01	 1.584E+00	 2.021E+02	 2.021E+02	 2.786E+01	 5.332E+00	-7.033E+01	 1.594E+00	 1.901E+02
    8.8800	 1.200E+01	 0.000E+00	 0.000E+00	 1.475E-01	-2.595E-02	 1.788E-01	 1.109E+00	 3.409E+01	 2.381E+00	 5.417E+01	 5.417E+01	 1.219E+03	 3.743E+00	-2.453E+00	 3.380E+00	 1.711E+01	 3.574E+01	 1.588E+00	 2.027E+02	 2.027E+02	 2.737E+01	 5.697E+00	-7.076E+01	 1.590E+00	 1.896E+02
    8.9200	 1.200E+01	 0.000E+00	 0.000E+00	 1.510E-01	-2.854E-02	 1.983E-01	 1.137E+00	 3.432E+01	 2.336E+00	 5.417E+01	 5.417E+01	 1.219E+03	 3.847E+00	-1.495E+00	 4.953E+00	 1.752E+01	 3.588E+01	 1.595E+00	 2.035E+02	 2.035E+02	 2.696E+01	 5.791E+00	-7.115E+01	 1.590E+00	 1.896E+02
    8.9600	 1.200E+01	 0.000E+00	 0.000E+00	 1.537E-01	-3.100E-02	 2.169E-01	 1.155E+00	 3.462E+01	 2.355E+00	 5.417E+01	 5.417E+01	 1.219E+03	 3.944E+00	-5.625E-01	 6.498E+00	 1.785E+01	 3.602E+01	 1.601E+00	 2.043E+02	 2.043E+02	 2.665E+01	 5.597E+00	-7.144E+01	 1.593E+00	 1.899E+02
    9.0000	 1.200E+01	 0.000E+00	 0.000E+00	 1.551E-01	-3.316E-02	 2.332E-01	 1.160E+00	 3.495E+01	 2.415E+00	 5.417E+01	 5.417E+01	 1.219E+03	 4.023E+00	 2.890E-01	 7.925E+00	 1.806E+01	 3.613E+01	 1.606E+00	 2.049E+02	 2.049E+02	 2.646E+01	 5.110E+00	-7.157E+01	 1.597E+00	 1.904E+02