
Predictions were generated on 14-Jan-2021 at 17:43:24 using OpenFAST, compiled as a 64-bit application using double precision at commit v2.5.0-10-gb4fd3acc
 linked with  NWTC Subroutine Library; ElastoDyn; InflowWind; AeroDyn

Description from the FAST input file: IEA task 37 RWT turbine -- https://github.com/IEAWindTask37/IEA-3.4-130-RWT

Time	Azimuth	BldPitch1	GenSpeed	IPDefl1	LSSGagMya	LSSGagMza	OoPDefl1	RootFxb1	RootFyb1	RootFzb1	RootMxb1	RootMyb1	RootMzb1	RotSpeed	RotTorq	YawPzn
(s)	(deg)	(deg)	(rpm)	(m)	(kN-m)	(kN-m)	(m)	(kN)	(kN)	(kN)	(kN-m)	(kN-m)	(kN-m)	(rpm)	(kN-m)	(deg)
    0.0000	 0.000E+00	 1.170E+00	 9.715E+02	 0.000E+00	-1.894E+03	 2.386E+01	 0.000E+00	 6.979E+00	 3.099E-02	 2.131E+02	-4.622E+00	 5.284E+01	 4.975E-16	 1.004E+01	-1.113E+01	 0.000E+00
    0.0063	 3.765E-01	 1.170E+00	 9.715E+02	-1.350E-04	-1.894E+03	 4.443E+01	 1.565E-03	 1.761E+01	-2.786E+00	 2.063E+02	 2.189E+01	 1.958E+02	-4.477E+01	 1.004E+01	 9.431E+01	 0.000E+00
    0.0125	 7.530E-01	 1.170E+00	 9.715E+02	-5.340E-04	-1.898E+03	 5.458E+01	 6.153E-03	 1.795E+01	-3.702E+00	 2.070E+02	 1.098E+01	 2.061E+02	-4.178E+01	 1.004E+01	 5.464E+01	 0.000E+00
    0.0188	 1.130E+00	 1.170E+00	 9.715E+02	-1.193E-03	-1.903E+03	 6.016E+01	 1.366E-02	 1.782E+01	-3.799E+00	 2.067E+02	 2.306E+01	 2.100E+02	-4.378E+01	 1.004E+01	 7.818E+01	 0.000E+00
    0.0250	 1.506E+00	 1.170E+00	 9.715E+02	-2.120E-03	-1.912E+03	 6.362E+01	 2.413E-02	 1.797E+01	-4.416E+00	 2.072E+02	 1.722E+01	 2.216E+02	-4.259E+01	 1.004E+01	 5.065E+01	 0.000E+00
    0.0312	 1.883E+00	 1.170E+00	 9.715E+02	-3.315E-03	-1.922E+03	 6.397E+01	 3.748E-02	 1.814E+01	-4.887E+00	 2.075E+02	 1.425E+01	 2.357E+02	-4.213E+01	 1.004E+01	 2.994E+01	 0.000E+00
    0.0375	 2.259E+00	 1.170E+00	 9.715E+02	-4.779E-03	-1.935E+03	 6.173E+01	 5.361E-02	 1.839E+01	-5.346E+00	 2.079E+02	 1.016E+01	 2.534E+02	-4.155E+01	 1.004E+01	 4.729E+00	 0.000E+00
    0.0438	 2.635E+00	 1.170E+00	 9.715E+02	-6.513E-03	-1.950E+03	 5.709E+01	 7.242E-02	 1.874E+01	-5.792E+00	 2.083E+02	 5.182E+00	 2.752E+02	-4.095E+01	 1.004E+01	-2.452E+01	 0.000E+00
    0.0500	 3.012E+00	 1.170E+00	 9.715E+02	-8.517E-03	-1.967E+03	 5.025E+01	 9.378E-02	 1.921E+01	-6.226E+00	 2.088E+02	-5.065E-01	 3.013E+02	-4.032E+01	 1.004E+01	-5.742E+01	 0.000E+00
    0.0563	 3.388E+00	 1.170E+00	 9.715E+02	-1.079E-02	-1.985E+03	 4.146E+01	 1.176E-01	 1.981E+01	-6.648E+00	 2.092E+02	-6.748E+00	 3.319E+02	-3.967E+01	 1.004E+01	-9.370E+01	 0.000E+00
    0.0625	 3.765E+00	 1.170E+00	 9.715E+02	-1.333E-02	-2.006E+03	 3.100E+01	 1.437E-01	 2.055E+01	-7.060E+00	 2.097E+02	-1.339E+01	 3.672E+02	-3.902E+01	 1.004E+01	-1.331E+02	 0.000E+00
    0.0688	 4.141E+00	 1.170E+00	 9.715E+02	-1.615E-02	-2.028E+03	 1.916E+01	 1.720E-01	 2.145E+01	-7.462E+00	 2.102E+02	-2.031E+01	 4.074E+02	-3.836E+01	 1.004E+01	-1.754E+02	 0.000E+00
    0.0750	 4.518E+00	 1.170E+00	 9.715E+02	-1.922E-02	-2.052E+03	 6.259E+00	 2.023E-01	 2.251E+01	-7.853E+00	 2.107E+02	-2.735E+01	 4.527E+02	-3.770E+01	 1.004E+01	-2.202E+02	 0.000E+00
    0.0813	 4.894E+00	 1.170E+00	 9.715E+02	-2.257E-02	-2.077E+03	-7.444E+00	 2.345E-01	 2.375E+01	-8.237E+00	 2.112E+02	-3.439E+01	 5.033E+02	-3.706E+01	 1.004E+01	-2.674E+02	 0.000E+00
    0.0875	 5.271E+00	 1.170E+00	 9.715E+02	-2.617E-02	-2.102E+03	-2.379E+01	 2.686E-01	 2.517E+01	-8.614E+00	 2.117E+02	-4.129E+01	 5.593E+02	-3.642E+01	 1.004E+01	-3.175E+02	 0.000E+00
    0.0938	 5.648E+00	 1.170E+00	 9.715E+02	-3.004E-02	-2.130E+03	-3.797E+01	 3.043E-01	 2.663E+01	-8.990E+00	 2.122E+02	-4.854E+01	 6.185E+02	-3.566E+01	 1.004E+01	-3.704E+02	 0.000E+00
    0.1000	 6.024E+00	 1.170E+00	 9.715E+02	-3.416E-02	-2.160E+03	-5.045E+01	 3.416E-01	 2.831E+01	-9.364E+00	 2.128E+02	-5.549E+01	 6.834E+02	-3.500E+01	 1.004E+01	-4.243E+02	 0.000E+00
    0.1063	 6.400E+00	 1.170E+00	 9.715E+02	-3.853E-02	-2.189E+03	-6.341E+01	 3.802E-01	 3.030E+01	-9.737E+00	 2.133E+02	-6.155E+01	 7.557E+02	-3.434E+01	 1.004E+01	-4.788E+02	 0.000E+00
    0.1125	 6.777E+00	 1.170E+00	 9.715E+02	-4.315E-02	-2.219E+03	-7.617E+01	 4.202E-01	 3.252E+01	-1.011E+01	 2.139E+02	-6.688E+01	 8.337E+02	-3.398E+01	 1.004E+01	-5.338E+02	 0.000E+00
    0.1188	 7.154E+00	 1.170E+00	 9.715E+02	-4.801E-02	-2.248E+03	-8.782E+01	 4.613E-01	 3.498E+01	-1.049E+01	 2.144E+02	-7.122E+01	 9.179E+02	-3.335E+01	 1.004E+01	-5.890E+02	 0.000E+00
    0.1250	 7.530E+00	 1.170E+00	 9.715E+02	-5.311E-02	-2.277E+03	-9.847E+01	 5.035E-01	 3.767E+01	-1.088E+01	 2.149E+02	-7.461E+01	 1.008E+03	-3.259E+01	 1.004E+01	-6.442E+02	 0.000E+00
    0.1313	 7.906E+00	 1.170E+00	 9.715E+02	-5.844E-02	-2.306E+03	-1.082E+02	 5.468E-01	 4.054E+01	-1.128E+01	 2.154E+02	-7.700E+01	 1.103E+03	-3.244E+01	 1.004E+01	-6.993E+02	 0.000E+00
    0.1375	 8.283E+00	 1.170E+00	 9.715E+02	-6.400E-02	-2.335E+03	-1.158E+02	 5.910E-01	 4.361E+01	-1.171E+01	 2.160E+02	-7.806E+01	 1.202E+03	-3.187E+01	 1.004E+01	-7.535E+02	 0.000E+00
    0.1438	 8.660E+00	 1.170E+00	 9.715E+02	-6.977E-02	-2.363E+03	-1.222E+02	 6.362E-01	 4.684E+01	-1.215E+01	 2.165E+02	-7.781E+01	 1.306E+03	-3.143E+01	 1.004E+01	-8.068E+02	 0.000E+00
    0.1500	 9.036E+00	 1.170E+00	 9.715E+02	-7.574E-02	-2.390E+03	-1.267E+02	 6.823E-01	 5.022E+01	-1.263E+01	 2.170E+02	-7.604E+01	 1.415E+03	-3.099E+01	 1.004E+01	-8.585E+02	 0.000E+00
    0.1562	 9.413E+00	 1.170E+00	 9.715E+02	-8.192E-02	-2.416E+03	-1.295E+02	 7.293E-01	 5.372E+01	-1.314E+01	 2.175E+02	-7.264E+01	 1.526E+03	-3.042E+01	 1.004E+01	-9.082E+02	 0.000E+00
    0.1625	 9.789E+00	 1.170E+00	 9.715E+02	-8.829E-02	-2.442E+03	-1.301E+02	 7.771E-01	 5.734E+01	-1.369E+01	 2.180E+02	-6.743E+01	 1.641E+03	-3.032E+01	 1.004E+01	-9.553E+02	 0.000E+00
    0.1688	 1.017E+01	 1.170E+00	 9.715E+02	-9.484E-02	-2.466E+03	-1.284E+02	 8.258E-01	 6.104E+01	-1.429E+01	 2.185E+02	-6.024E+01	 1.758E+03	-2.989E+01	 1.004E+01	-9.994E+02	 0.000E+00
    0.1750	 1.054E+01	 1.170E+00	 9.715E+02	-1.016E-01	-2.490E+03	-1.246E+02	 8.753E-01	 6.478E+01	-1.494E+01	 2.190E+02	-5.099E+01	 1.876E+03	-2.958E+01	 1.004E+01	-1.040E+03	 0.000E+00
    0.1813	 1.092E+01	 1.170E+00	 9.715E+02	-1.084E-01	-2.512E+03	-1.193E+02	 9.257E-01	 6.856E+01	-1.565E+01	 2.195E+02	-3.950E+01	 1.996E+03	-2.930E+01	 1.004E+01	-1.077E+03	 0.000E+00
    0.1875	 1.130E+01	 1.170E+00	 9.715E+02	-1.155E-01	-2.534E+03	-1.101E+02	 9.770E-01	 7.235E+01	-1.642E+01	 2.200E+02	-2.562E+01	 2.116E+03	-2.906E+01	 1.004E+01	-1.109E+03	 0.000E+00
    0.1938	 1.167E+01	 1.170E+00	 9.715E+02	-1.226E-01	-2.555E+03	-9.933E+01	 1.029E+00	 7.612E+01	-1.726E+01	 2.205E+02	-9.194E+00	 2.237E+03	-2.858E+01	 1.004E+01	-1.136E+03	 0.000E+00
    0.2000	 1.205E+01	 1.170E+00	 9.715E+02	-1.300E-01	-2.574E+03	-8.601E+01	 1.082E+00	 7.989E+01	-1.817E+01	 2.210E+02	 9.917E+00	 2.358E+03	-2.864E+01	 1.004E+01	-1.157E+03	 0.000E+00
    0.2063	 1.242E+01	 1.170E+00	 9.715E+02	-1.374E-01	-2.592E+03	-6.955E+01	 1.136E+00	 8.358E+01	-1.916E+01	 2.214E+02	 3.181E+01	 2.477E+03	-2.841E+01	 1.004E+01	-1.173E+03	 0.000E+00
    0.2125	 1.280E+01	 1.170E+00	 9.715E+02	-1.449E-01	-2.610E+03	-5.246E+01	 1.191E+00	 8.718E+01	-2.023E+01	 2.219E+02	 5.652E+01	 2.595E+03	-2.827E+01	 1.004E+01	-1.181E+03	 0.000E+00
    0.2188	 1.318E+01	 1.170E+00	 9.715E+02	-1.526E-01	-2.625E+03	-3.244E+01	 1.246E+00	 9.069E+01	-2.139E+01	 2.223E+02	 8.419E+01	 2.711E+03	-2.821E+01	 1.004E+01	-1.184E+03	 0.000E+00
    0.2250	 1.355E+01	 1.170E+00	 9.715E+02	-1.603E-01	-2.642E+03	-9.371E+00	 1.303E+00	 9.402E+01	-2.263E+01	 2.228E+02	 1.148E+02	 2.824E+03	-2.817E+01	 1.004E+01	-1.178E+03	 0.000E+00
    0.2313	 1.393E+01	 1.170E+00	 9.715E+02	-1.681E-01	-2.655E+03	 1.514E+01	 1.360E+00	 9.731E+01	-2.395E+01	 2.232E+02	 1.486E+02	 2.935E+03	-2.821E+01	 1.004E+01	-1.166E+03	 0.000E+00
    0.2375	 1.431E+01	 1.170E+00	 9.715E+02	-1.760E-01	-2.669E+03	 4.194E+01	 1.418E+00	 1.004E+02	-2.537E+01	 2.236E+02	 1.854E+02	 3.042E+03	-2.828E+01	 1.004E+01	-1.145E+03	 0.000E+00
    0.2438	 1.468E+01	 1.170E+00	 9.715E+02	-1.839E-01	-2.682E+03	 7.070E+01	 1.477E+00	 1.033E+02	-2.688E+01	 2.240E+02	 2.253E+02	 3.146E+03	-2.841E+01	 1.004E+01	-1.117E+03	 0.000E+00
    0.2500	 1.506E+01	 1.170E+00	 9.715E+02	-1.919E-01	-2.693E+03	 1.011E+02	 1.537E+00	 1.061E+02	-2.848E+01	 2.244E+02	 2.683E+02	 3.247E+03	-2.861E+01	 1.004E+01	-1.080E+03	 0.000E+00
    0.2563	 1.544E+01	 1.170E+00	 9.715E+02	-2.000E-01	-2.704E+03	 1.337E+02	 1.598E+00	 1.086E+02	-3.016E+01	 2.248E+02	 3.143E+02	 3.343E+03	-2.888E+01	 1.004E+01	-1.035E+03	 0.000E+00
    0.2625	 1.581E+01	 1.170E+00	 9.715E+02	-2.080E-01	-2.714E+03	 1.677E+02	 1.659E+00	 1.110E+02	-3.194E+01	 2.252E+02	 3.632E+02	 3.435E+03	-2.920E+01	 1.004E+01	-9.818E+02	 0.000E+00
    0.2687	 1.619E+01	 1.170E+00	 9.715E+02	-2.161E-01	-2.724E+03	 2.033E+02	 1.721E+00	 1.132E+02	-3.380E+01	 2.255E+02	 4.151E+02	 3.523E+03	-2.960E+01	 1.004E+01	-9.203E+02	 0.000E+00
    0.2750	 1.657E+01	 1.170E+00	 9.715E+02	-2.243E-01	-2.732E+03	 2.402E+02	 1.784E+00	 1.152E+02	-3.574E+01	 2.258E+02	 4.696E+02	 3.606E+03	-3.007E+01	 1.004E+01	-8.508E+02	 0.000E+00
    0.2812	 1.694E+01	 1.170E+00	 9.715E+02	-2.324E-01	-2.741E+03	 2.784E+02	 1.847E+00	 1.170E+02	-3.776E+01	 2.262E+02	 5.268E+02	 3.685E+03	-3.059E+01	 1.004E+01	-7.733E+02	 0.000E+00
    0.2875	 1.732E+01	 1.170E+00	 9.715E+02	-2.405E-01	-2.747E+03	 3.176E+02	 1.911E+00	 1.186E+02	-3.986E+01	 2.264E+02	 5.864E+02	 3.761E+03	-3.121E+01	 1.004E+01	-6.881E+02	 0.000E+00
    0.2938	 1.770E+01	 1.170E+00	 9.715E+02	-2.486E-01	-2.754E+03	 3.577E+02	 1.976E+00	 1.200E+02	-4.203E+01	 2.267E+02	 6.483E+02	 3.832E+03	-3.189E+01	 1.004E+01	-5.954E+02	 0.000E+00
    0.3000	 1.807E+01	 1.170E+00	 9.715E+02	-2.567E-01	-2.760E+03	 3.987E+02	 2.040E+00	 1.213E+02	-4.425E+01	 2.269E+02	 7.123E+02	 3.899E+03	-3.264E+01	 1.004E+01	-4.956E+02	 0.000E+00
    0.3063	 1.845E+01	 1.170E+00	 9.715E+02	-2.648E-01	-2.765E+03	 4.404E+02	 2.106E+00	 1.224E+02	-4.654E+01	 2.271E+02	 7.782E+02	 3.962E+03	-3.347E+01	 1.004E+01	-3.891E+02	 0.000E+00
    0.3125	 1.883E+01	 1.170E+00	 9.715E+02	-2.729E-01	-2.769E+03	 4.826E+02	 2.171E+00	 1.233E+02	-4.888E+01	 2.273E+02	 8.457E+02	 4.022E+03	-3.436E+01	 1.004E+01	-2.763E+02	 0.000E+00
    0.3188	 1.920E+01	 1.170E+00	 9.715E+02	-2.810E-01	-2.773E+03	 5.252E+02	 2.236E+00	 1.241E+02	-5.126E+01	 2.275E+02	 9.145E+02	 4.079E+03	-3.532E+01	 1.004E+01	-1.577E+02	 0.000E+00
    0.3250	 1.958E+01	 1.170E+00	 9.715E+02	-2.890E-01	-2.776E+03	 5.681E+02	 2.302E+00	 1.248E+02	-5.367E+01	 2.276E+02	 9.845E+02	 4.133E+03	-3.634E+01	 1.004E+01	-3.396E+01	 0.000E+00
    0.3313	 1.995E+01	 1.170E+00	 9.715E+02	-2.970E-01	-2.778E+03	 6.112E+02	 2.367E+00	 1.254E+02	-5.611E+01	 2.277E+02	 1.055E+03	 4.185E+03	-3.742E+01	 1.004E+01	 9.446E+01	 0.000E+00
    0.3375	 2.033E+01	 1.170E+00	 9.715E+02	-3.049E-01	-2.779E+03	 6.543E+02	 2.433E+00	 1.259E+02	-5.857E+01	 2.278E+02	 1.127E+03	 4.234E+03	-3.856E+01	 1.004E+01	 2.269E+02	 0.000E+00
    0.3438	 2.071E+01	 1.170E+00	 9.715E+02	-3.128E-01	-2.779E+03	 6.975E+02	 2.498E+00	 1.264E+02	-6.104E+01	 2.279E+02	 1.198E+03	 4.283E+03	-3.974E+01	 1.004E+01	 3.627E+02	 0.000E+00
    0.3500	 2.108E+01	 1.170E+00	 9.715E+02	-3.206E-01	-2.779E+03	 7.406E+02	 2.562E+00	 1.268E+02	-6.351E+01	 2.279E+02	 1.270E+03	 4.330E+03	-4.097E+01	 1.004E+01	 5.013E+02	 0.000E+00
    0.3563	 2.146E+01	 1.170E+00	 9.715E+02	-3.283E-01	-2.777E+03	 7.834E+02	 2.626E+00	 1.272E+02	-6.598E+01	 2.279E+02	 1.341E+03	 4.376E+03	-4.223E+01	 1.004E+01	 6.419E+02	 0.000E+00
    0.3625	 2.184E+01	 1.170E+00	 9.715E+02	-3.361E-01	-2.775E+03	 8.262E+02	 2.690E+00	 1.276E+02	-6.842E+01	 2.279E+02	 1.412E+03	 4.422E+03	-4.351E+01	 1.004E+01	 7.838E+02	 0.000E+00
    0.3688	 2.221E+01	 1.170E+00	 9.715E+02	-3.437E-01	-2.771E+03	 8.680E+02	 2.752E+00	 1.281E+02	-7.084E+01	 2.279E+02	 1.482E+03	 4.469E+03	-4.484E+01	 1.004E+01	 9.264E+02	 0.000E+00
    0.3750	 2.259E+01	 1.170E+00	 9.715E+02	-3.512E-01	-2.766E+03	 9.112E+02	 2.814E+00	 1.285E+02	-7.323E+01	 2.278E+02	 1.551E+03	 4.516E+03	-4.615E+01	 1.004E+01	 1.069E+03	 0.000E+00
    0.3813	 2.297E+01	 1.170E+00	 9.715E+02	-3.587E-01	-2.760E+03	 9.527E+02	 2.874E+00	 1.291E+02	-7.557E+01	 2.277E+02	 1.618E+03	 4.565E+03	-4.748E+01	 1.004E+01	 1.211E+03	 0.000E+00
    0.3875	 2.334E+01	 1.170E+00	 9.715E+02	-3.661E-01	-2.753E+03	 9.945E+02	 2.934E+00	 1.297E+02	-7.786E+01	 2.276E+02	 1.684E+03	 4.614E+03	-4.881E+01	 1.004E+01	 1.351E+03	 0.000E+00
    0.3938	 2.372E+01	 1.170E+00	 9.715E+02	-3.734E-01	-2.744E+03	 1.035E+03	 2.992E+00	 1.305E+02	-8.010E+01	 2.275E+02	 1.747E+03	 4.666E+03	-5.012E+01	 1.004E+01	 1.489E+03	 0.000E+00
    0.4000	 2.410E+01	 1.170E+00	 9.715E+02	-3.807E-01	-2.734E+03	 1.076E+03	 3.049E+00	 1.314E+02	-8.227E+01	 2.274E+02	 1.809E+03	 4.720E+03	-5.142E+01	 1.004E+01	 1.625E+03	 0.000E+00
    0.4062	 2.447E+01	 1.170E+00	 9.715E+02	-3.878E-01	-2.723E+03	 1.115E+03	 3.104E+00	 1.324E+02	-8.436E+01	 2.273E+02	 1.868E+03	 4.777E+03	-5.291E+01	 1.004E+01	 1.757E+03	 0.000E+00
    0.4125	 2.485E+01	 1.170E+00	 9.715E+02	-3.948E-01	-2.710E+03	 1.155E+03	 3.158E+00	 1.335E+02	-8.638E+01	 2.271E+02	 1.924E+03	 4.837E+03	-5.392E+01	 1.004E+01	 1.885E+03	 0.000E+00
    0.4188	 2.523E+01	 1.170E+00	 9.715E+02	-4.017E-01	-2.697E+03	 1.195E+03	 3.211E+00	 1.348E+02	-8.831E+01	 2.270E+02	 1.978E+03	 4.898E+03	-5.517E+01	 1.004E+01	 2.008E+03	 0.000E+00
    0.4250	 2.560E+01	 1.170E+00	 9.715E+02	-4.085E-01	-2.682E+03	 1.234E+03	 3.261E+00	 1.362E+02	-9.015E+01	 2.269E+02	 2.028E+03	 4.964E+03	-5.633E+01	 1.004E+01	 2.127E+03	 0.000E+00
    0.4313	 2.598E+01	 1.170E+00	 9.715E+02	-4.152E-01	-2.665E+03	 1.273E+03	 3.310E+00	 1.379E+02	-9.190E+01	 2.268E+02	 2.076E+03	 5.032E+03	-5.741E+01	 1.004E+01	 2.241E+03	 0.000E+00
    0.4375	 2.635E+01	 1.170E+00	 9.715E+02	-4.218E-01	-2.648E+03	 1.311E+03	 3.357E+00	 1.397E+02	-9.356E+01	 2.266E+02	 2.120E+03	 5.104E+03	-5.843E+01	 1.004E+01	 2.348E+03	 0.000E+00
    0.4438	 2.673E+01	 1.170E+00	 9.715E+02	-4.282E-01	-2.629E+03	 1.349E+03	 3.403E+00	 1.417E+02	-9.511E+01	 2.265E+02	 2.161E+03	 5.179E+03	-5.938E+01	 1.004E+01	 2.450E+03	 0.000E+00
    0.4500	 2.711E+01	 1.170E+00	 9.715E+02	-4.345E-01	-2.609E+03	 1.385E+03	 3.446E+00	 1.438E+02	-9.656E+01	 2.264E+02	 2.199E+03	 5.258E+03	-6.051E+01	 1.004E+01	 2.544E+03	 0.000E+00
    0.4563	 2.748E+01	 1.170E+00	 9.715E+02	-4.406E-01	-2.588E+03	 1.422E+03	 3.487E+00	 1.462E+02	-9.790E+01	 2.263E+02	 2.233E+03	 5.340E+03	-6.107E+01	 1.004E+01	 2.633E+03	 0.000E+00
    0.4625	 2.786E+01	 1.170E+00	 9.715E+02	-4.466E-01	-2.567E+03	 1.458E+03	 3.527E+00	 1.487E+02	-9.914E+01	 2.262E+02	 2.264E+03	 5.424E+03	-6.189E+01	 1.004E+01	 2.714E+03	 0.000E+00
    0.4688	 2.824E+01	 1.170E+00	 9.715E+02	-4.524E-01	-2.545E+03	 1.491E+03	 3.564E+00	 1.513E+02	-1.003E+02	 2.261E+02	 2.291E+03	 5.512E+03	-6.280E+01	 1.004E+01	 2.790E+03	 0.000E+00
    0.4750	 2.861E+01	 1.170E+00	 9.715E+02	-4.581E-01	-2.522E+03	 1.525E+03	 3.600E+00	 1.542E+02	-1.013E+02	 2.260E+02	 2.315E+03	 5.602E+03	-6.314E+01	 1.004E+01	 2.858E+03	 0.000E+00
    0.4813	 2.899E+01	 1.170E+00	 9.715E+02	-4.636E-01	-2.496E+03	 1.561E+03	 3.633E+00	 1.571E+02	-1.022E+02	 2.259E+02	 2.336E+03	 5.695E+03	-6.376E+01	 1.004E+01	 2.919E+03	 0.000E+00
    0.4875	 2.937E+01	 1.170E+00	 9.715E+02	-4.689E-01	-2.468E+03	 1.598E+03	 3.665E+00	 1.603E+02	-1.031E+02	 2.259E+02	 2.354E+03	 5.790E+03	-6.442E+01	 1.004E+01	 2.973E+03	 0.000E+00
    0.4938	 2.974E+01	 1.170E+00	 9.715E+02	-4.740E-01	-2.439E+03	 1.636E+03	 3.695E+00	 1.636E+02	-1.038E+02	 2.258E+02	 2.369E+03	 5.887E+03	-6.478E+01	 1.004E+01	 3.020E+03	 0.000E+00
    0.5000	 3.012E+01	 1.170E+00	 9.715E+02	-4.790E-01	-2.404E+03	 1.677E+03	 3.723E+00	 1.672E+02	-1.045E+02	 2.257E+02	 2.381E+03	 5.989E+03	-6.519E+01	 1.004E+01	 3.061E+03	 0.000E+00
    0.5062	 3.050E+01	 1.170E+00	 9.715E+02	-4.837E-01	-2.372E+03	 1.721E+03	 3.749E+00	 1.707E+02	-1.050E+02	 2.257E+02	 2.391E+03	 6.090E+03	-6.545E+01	 1.004E+01	 3.097E+03	 0.000E+00
    0.5125	 3.087E+01	 1.170E+00	 9.715E+02	-4.882E-01	-2.343E+03	 1.766E+03	 3.774E+00	 1.741E+02	-1.055E+02	 2.256E+02	 2.398E+03	 6.186E+03	-6.576E+01	 1.004E+01	 3.126E+03	 0.000E+00
    0.5188	 3.125E+01	 1.170E+00	 9.715E+02	-4.926E-01	-2.311E+03	 1.811E+03	 3.798E+00	 1.775E+02	-1.059E+02	 2.256E+02	 2.403E+03	 6.282E+03	-6.598E+01	 1.004E+01	 3.148E+03	 0.000E+00
    0.5250	 3.163E+01	 1.170E+00	 9.715E+02	-4.966E-01	-2.279E+03	 1.856E+03	 3.820E+00	 1.809E+02	-1.062E+02	 2.256E+02	 2.405E+03	 6.376E+03	-6.615E+01	 1.004E+01	 3.165E+03	 0.000E+00
    0.5312	 3.200E+01	 1.170E+00	 9.715E+02	-5.005E-01	-2.249E+03	 1.902E+03	 3.841E+00	 1.841E+02	-1.065E+02	 2.256E+02	 2.406E+03	 6.466E+03	-6.629E+01	 1.004E+01	 3.176E+03	 0.000E+00
    0.5375	 3.238E+01	 1.170E+00	 9.715E+02	-5.041E-01	-2.219E+03	 1.947E+03	 3.861E+00	 1.872E+02	-1.068E+02	 2.257E+02	 2.404E+03	 6.552E+03	-6.638E+01	 1.004E+01	 3.181E+03	 0.000E+00
    0.5438	 3.276E+01	 1.170E+00	 9.715E+02	-5.075E-01	-2.189E+03	 1.992E+03	 3.881E+00	 1.901E+02	-1.069E+02	 2.257E+02	 2.401E+03	 6.633E+03	-6.643E+01	 1.004E+01	 3.181E+03	 0.000E+00
    0.5500	 3.313E+01	 1.170E+00	 9.715E+02	-5.107E-01	-2.161E+03	 2.035E+03	 3.899E+00	 1.928E+02	-1.071E+02	 2.258E+02	 2.397E+03	 6.709E+03	-6.645E+01	 1.004E+01	 3.177E+03	 0.000E+00
    0.5563	 3.351E+01	 1.170E+00	 9.715E+02	-5.136E-01	-2.134E+03	 2.078E+03	 3.917E+00	 1.952E+02	-1.072E+02	 2.259E+02	 2.391E+03	 6.779E+03	-6.645E+01	 1.004E+01	 3.167E+03	 0.000E+00
    0.5625	 3.388E+01	 1.170E+00	 9.715E+02	-5.163E-01	-2.108E+03	 2.118E+03	 3.934E+00	 1.974E+02	-1.073E+02	 2.260E+02	 2.384E+03	 6.842E+03	-6.643E+01	 1.004E+01	 3.154E+03	 0.000E+00
    0.5687	 3.426E+01	 1.170E+00	 9.715E+02	-5.187E-01	-2.084E+03	 2.157E+03	 3.950E+00	 1.993E+02	-1.074E+02	 2.261E+02	 2.376E+03	 6.899E+03	-6.638E+01	 1.004E+01	 3.136E+03	 0.000E+00
    0.5750	 3.464E+01	 1.170E+00	 9.715E+02	-5.209E-01	-2.062E+03	 2.193E+03	 3.966E+00	 2.010E+02	-1.075E+02	 2.263E+02	 2.368E+03	 6.949E+03	-6.633E+01	 1.004E+01	 3.114E+03	 0.000E+00
    0.5813	 3.501E+01	 1.170E+00	 9.715E+02	-5.228E-01	-2.041E+03	 2.226E+03	 3.982E+00	 2.023E+02	-1.075E+02	 2.264E+02	 2.359E+03	 6.990E+03	-6.626E+01	 1.004E+01	 3.089E+03	 0.000E+00
    0.5875	 3.539E+01	 1.170E+00	 9.715E+02	-5.245E-01	-2.022E+03	 2.256E+03	 3.997E+00	 2.033E+02	-1.076E+02	 2.266E+02	 2.349E+03	 7.025E+03	-6.620E+01	 1.004E+01	 3.061E+03	 0.000E+00
    0.5938	 3.577E+01	 1.170E+00	 9.715E+02	-5.259E-01	-2.005E+03	 2.283E+03	 4.012E+00	 2.040E+02	-1.077E+02	 2.268E+02	 2.340E+03	 7.051E+03	-6.615E+01	 1.004E+01	 3.029E+03	 0.000E+00
    0.6000	 3.614E+01	 1.170E+00	 9.715E+02	-5.272E-01	-1.990E+03	 2.306E+03	 4.026E+00	 2.044E+02	-1.077E+02	 2.270E+02	 2.330E+03	 7.070E+03	-6.609E+01	 1.004E+01	 2.995E+03	 0.000E+00
    0.6063	 3.652E+01	 1.170E+00	 9.715E+02	-5.282E-01	-1.978E+03	 2.325E+03	 4.040E+00	 2.044E+02	-1.078E+02	 2.272E+02	 2.321E+03	 7.080E+03	-6.605E+01	 1.004E+01	 2.958E+03	 0.000E+00
    0.6125	 3.690E+01	 1.170E+00	 9.715E+02	-5.289E-01	-1.967E+03	 2.341E+03	 4.054E+00	 2.042E+02	-1.079E+02	 2.275E+02	 2.312E+03	 7.083E+03	-6.603E+01	 1.004E+01	 2.919E+03	 0.000E+00
    0.6188	 3.727E+01	 1.170E+00	 9.715E+02	-5.295E-01	-1.959E+03	 2.352E+03	 4.068E+00	 2.036E+02	-1.080E+02	 2.277E+02	 2.303E+03	 7.078E+03	-6.602E+01	 1.004E+01	 2.878E+03	 0.000E+00
    0.6250	 3.765E+01	 1.170E+00	 9.715E+02	-5.298E-01	-1.955E+03	 2.362E+03	 4.081E+00	 2.027E+02	-1.082E+02	 2.280E+02	 2.295E+03	 7.066E+03	-6.603E+01	 1.004E+01	 2.834E+03	 0.000E+00
    0.6313	 3.803E+01	 1.170E+00	 9.715E+02	-5.300E-01	-1.948E+03	 2.361E+03	 4.094E+00	 2.016E+02	-1.083E+02	 2.283E+02	 2.287E+03	 7.046E+03	-6.606E+01	 1.004E+01	 2.788E+03	 0.000E+00
    0.6375	 3.840E+01	 1.170E+00	 9.715E+02	-5.299E-01	-1.947E+03	 2.360E+03	 4.107E+00	 2.002E+02	-1.085E+02	 2.286E+02	 2.280E+03	 7.021E+03	-6.612E+01	 1.004E+01	 2.741E+03	 0.000E+00
    0.6438	 3.878E+01	 1.170E+00	 9.715E+02	-5.297E-01	-1.946E+03	 2.353E+03	 4.119E+00	 1.985E+02	-1.087E+02	 2.289E+02	 2.273E+03	 6.989E+03	-6.620E+01	 1.004E+01	 2.692E+03	 0.000E+00
    0.6500	 3.916E+01	 1.170E+00	 9.715E+02	-5.293E-01	-1.948E+03	 2.343E+03	 4.131E+00	 1.967E+02	-1.090E+02	 2.292E+02	 2.267E+03	 6.951E+03	-6.631E+01	 1.004E+01	 2.641E+03	 0.000E+00
    0.6562	 3.953E+01	 1.170E+00	 9.715E+02	-5.287E-01	-1.951E+03	 2.328E+03	 4.142E+00	 1.946E+02	-1.092E+02	 2.295E+02	 2.262E+03	 6.908E+03	-6.644E+01	 1.004E+01	 2.588E+03	 0.000E+00
    0.6625	 3.991E+01	 1.170E+00	 9.715E+02	-5.280E-01	-1.956E+03	 2.310E+03	 4.153E+00	 1.924E+02	-1.095E+02	 2.299E+02	 2.258E+03	 6.861E+03	-6.660E+01	 1.004E+01	 2.534E+03	 0.000E+00
    0.6688	 4.029E+01	 1.170E+00	 9.715E+02	-5.272E-01	-1.963E+03	 2.286E+03	 4.163E+00	 1.900E+02	-1.098E+02	 2.302E+02	 2.254E+03	 6.810E+03	-6.679E+01	 1.004E+01	 2.479E+03	 0.000E+00
    0.6750	 4.066E+01	 1.170E+00	 9.715E+02	-5.263E-01	-1.970E+03	 2.262E+03	 4.172E+00	 1.875E+02	-1.101E+02	 2.306E+02	 2.252E+03	 6.755E+03	-6.701E+01	 1.004E+01	 2.422E+03	 0.000E+00
    0.6813	 4.104E+01	 1.170E+00	 9.715E+02	-5.252E-01	-1.979E+03	 2.233E+03	 4.181E+00	 1.849E+02	-1.105E+02	 2.310E+02	 2.250E+03	 6.698E+03	-6.726E+01	 1.004E+01	 2.363E+03	 0.000E+00
    0.6875	 4.142E+01	 1.170E+00	 9.715E+02	-5.241E-01	-1.989E+03	 2.202E+03	 4.189E+00	 1.823E+02	-1.108E+02	 2.314E+02	 2.248E+03	 6.640E+03	-6.753E+01	 1.004E+01	 2.303E+03	 0.000E+00
    0.6938	 4.179E+01	 1.170E+00	 9.715E+02	-5.228E-01	-2.000E+03	 2.171E+03	 4.196E+00	 1.797E+02	-1.112E+02	 2.318E+02	 2.248E+03	 6.580E+03	-6.782E+01	 1.004E+01	 2.242E+03	 0.000E+00
    0.7000	 4.217E+01	 1.170E+00	 9.715E+02	-5.215E-01	-2.010E+03	 2.133E+03	 4.202E+00	 1.770E+02	-1.116E+02	 2.322E+02	 2.248E+03	 6.519E+03	-6.814E+01	 1.004E+01	 2.180E+03	 0.000E+00
    0.7063	 4.254E+01	 1.170E+00	 9.715E+02	-5.202E-01	-2.019E+03	 2.096E+03	 4.207E+00	 1.745E+02	-1.120E+02	 2.326E+02	 2.249E+03	 6.461E+03	-6.844E+01	 1.004E+01	 2.117E+03	 0.000E+00
    0.7125	 4.292E+01	 1.170E+00	 9.715E+02	-5.188E-01	-2.032E+03	 2.056E+03	 4.211E+00	 1.718E+02	-1.124E+02	 2.331E+02	 2.250E+03	 6.399E+03	-6.882E+01	 1.004E+01	 2.054E+03	 0.000E+00
    0.7188	 4.330E+01	 1.170E+00	 9.715E+02	-5.174E-01	-2.046E+03	 2.022E+03	 4.214E+00	 1.694E+02	-1.128E+02	 2.335E+02	 2.253E+03	 6.341E+03	-6.919E+01	 1.004E+01	 1.987E+03	 0.000E+00
    0.7250	 4.367E+01	 1.170E+00	 9.715E+02	-5.159E-01	-2.056E+03	 1.980E+03	 4.215E+00	 1.671E+02	-1.133E+02	 2.340E+02	 2.255E+03	 6.284E+03	-6.959E+01	 1.004E+01	 1.921E+03	 0.000E+00
    0.7313	 4.405E+01	 1.170E+00	 9.715E+02	-5.145E-01	-2.069E+03	 1.943E+03	 4.216E+00	 1.648E+02	-1.137E+02	 2.346E+02	 2.259E+03	 6.230E+03	-6.999E+01	 1.004E+01	 1.855E+03	 0.000E+00
    0.7375	 4.443E+01	 1.170E+00	 9.715E+02	-5.130E-01	-2.080E+03	 1.903E+03	 4.215E+00	 1.627E+02	-1.141E+02	 2.351E+02	 2.262E+03	 6.178E+03	-7.042E+01	 1.004E+01	 1.787E+03	 0.000E+00
    0.7438	 4.480E+01	 1.170E+00	 9.715E+02	-5.116E-01	-2.089E+03	 1.869E+03	 4.213E+00	 1.608E+02	-1.146E+02	 2.357E+02	 2.267E+03	 6.130E+03	-7.086E+01	 1.004E+01	 1.720E+03	 0.000E+00
    0.7500	 4.518E+01	 1.170E+00	 9.715E+02	-5.102E-01	-2.099E+03	 1.833E+03	 4.210E+00	 1.591E+02	-1.150E+02	 2.363E+02	 2.272E+03	 6.085E+03	-7.131E+01	 1.004E+01	 1.652E+03	 0.000E+00
    0.7563	 4.556E+01	 1.170E+00	 9.715E+02	-5.088E-01	-2.106E+03	 1.801E+03	 4.206E+00	 1.576E+02	-1.155E+02	 2.369E+02	 2.277E+03	 6.045E+03	-7.177E+01	 1.004E+01	 1.586E+03	 0.000E+00
    0.7625	 4.593E+01	 1.170E+00	 9.715E+02	-5.075E-01	-2.116E+03	 1.765E+03	 4.200E+00	 1.563E+02	-1.159E+02	 2.376E+02	 2.283E+03	 6.008E+03	-7.223E+01	 1.004E+01	 1.517E+03	 0.000E+00
    0.7688	 4.631E+01	 1.170E+00	 9.715E+02	-5.062E-01	-2.121E+03	 1.738E+03	 4.193E+00	 1.552E+02	-1.164E+02	 2.383E+02	 2.290E+03	 5.976E+03	-7.271E+01	 1.004E+01	 1.451E+03	 0.000E+00
    0.7750	 4.669E+01	 1.170E+00	 9.715E+02	-5.050E-01	-2.123E+03	 1.712E+03	 4.185E+00	 1.544E+02	-1.169E+02	 2.389E+02	 2.297E+03	 5.951E+03	-7.317E+01	 1.004E+01	 1.386E+03	 0.000E+00
    0.7812	 4.706E+01	 1.170E+00	 9.715E+02	-5.038E-01	-2.128E+03	 1.688E+03	 4.176E+00	 1.536E+02	-1.173E+02	 2.397E+02	 2.305E+03	 5.925E+03	-7.366E+01	 1.004E+01	 1.321E+03	 0.000E+00
    0.7875	 4.744E+01	 1.170E+00	 9.715E+02	-5.027E-01	-2.129E+03	 1.670E+03	 4.165E+00	 1.531E+02	-1.178E+02	 2.405E+02	 2.313E+03	 5.907E+03	-7.416E+01	 1.004E+01	 1.259E+03	 0.000E+00
    0.7938	 4.782E+01	 1.170E+00	 9.715E+02	-5.016E-01	-2.130E+03	 1.651E+03	 4.154E+00	 1.528E+02	-1.183E+02	 2.413E+02	 2.324E+03	 5.891E+03	-7.496E+01	 1.004E+01	 1.200E+03	 0.000E+00
    0.8000	 4.819E+01	 1.170E+00	 9.715E+02	-5.007E-01	-2.117E+03	 1.637E+03	 4.141E+00	 1.531E+02	-1.188E+02	 2.421E+02	 2.332E+03	 5.888E+03	-7.524E+01	 1.004E+01	 1.139E+03	 0.000E+00
    0.8063	 4.857E+01	 1.170E+00	 9.715E+02	-4.998E-01	-2.116E+03	 1.628E+03	 4.128E+00	 1.531E+02	-1.193E+02	 2.430E+02	 2.343E+03	 5.879E+03	-7.588E+01	 1.004E+01	 1.084E+03	 0.000E+00
    0.8125	 4.894E+01	 1.170E+00	 9.715E+02	-4.990E-01	-2.106E+03	 1.623E+03	 4.113E+00	 1.536E+02	-1.198E+02	 2.438E+02	 2.355E+03	 5.880E+03	-7.642E+01	 1.004E+01	 1.034E+03	 0.000E+00
    0.8188	 4.932E+01	 1.170E+00	 9.715E+02	-4.982E-01	-2.101E+03	 1.627E+03	 4.098E+00	 1.541E+02	-1.203E+02	 2.448E+02	 2.367E+03	 5.882E+03	-7.699E+01	 1.004E+01	 9.844E+02	 0.000E+00
    0.8250	 4.970E+01	 1.170E+00	 9.715E+02	-4.975E-01	-2.087E+03	 1.629E+03	 4.082E+00	 1.548E+02	-1.209E+02	 2.457E+02	 2.380E+03	 5.889E+03	-7.756E+01	 1.004E+01	 9.401E+02	 0.000E+00
    0.8313	 5.007E+01	 1.170E+00	 9.715E+02	-4.969E-01	-2.072E+03	 1.638E+03	 4.066E+00	 1.557E+02	-1.215E+02	 2.467E+02	 2.394E+03	 5.898E+03	-7.814E+01	 1.004E+01	 9.006E+02	 0.000E+00
    0.8375	 5.045E+01	 1.170E+00	 9.715E+02	-4.964E-01	-2.060E+03	 1.654E+03	 4.049E+00	 1.567E+02	-1.221E+02	 2.476E+02	 2.409E+03	 5.910E+03	-7.872E+01	 1.004E+01	 8.648E+02	 0.000E+00
    0.8438	 5.083E+01	 1.170E+00	 9.715E+02	-4.959E-01	-2.041E+03	 1.670E+03	 4.031E+00	 1.578E+02	-1.227E+02	 2.485E+02	 2.425E+03	 5.925E+03	-7.929E+01	 1.004E+01	 8.345E+02	 0.000E+00
    0.8500	 5.120E+01	 1.170E+00	 9.715E+02	-4.955E-01	-2.023E+03	 1.691E+03	 4.013E+00	 1.589E+02	-1.234E+02	 2.496E+02	 2.442E+03	 5.940E+03	-7.990E+01	 1.004E+01	 8.100E+02	 0.000E+00
    0.8563	 5.158E+01	 1.170E+00	 9.715E+02	-4.952E-01	-2.000E+03	 1.717E+03	 3.995E+00	 1.601E+02	-1.241E+02	 2.506E+02	 2.461E+03	 5.958E+03	-8.050E+01	 1.004E+01	 7.926E+02	 0.000E+00
    0.8625	 5.196E+01	 1.170E+00	 9.715E+02	-4.949E-01	-1.980E+03	 1.740E+03	 3.977E+00	 1.614E+02	-1.248E+02	 2.516E+02	 2.481E+03	 5.976E+03	-8.111E+01	 1.004E+01	 7.784E+02	 0.000E+00
    0.8688	 5.233E+01	 1.170E+00	 9.715E+02	-4.947E-01	-1.956E+03	 1.773E+03	 3.958E+00	 1.626E+02	-1.256E+02	 2.525E+02	 2.502E+03	 5.993E+03	-8.169E+01	 1.004E+01	 7.724E+02	 0.000E+00
    0.8750	 5.271E+01	 1.170E+00	 9.715E+02	-4.945E-01	-1.931E+03	 1.805E+03	 3.940E+00	 1.638E+02	-1.264E+02	 2.536E+02	 2.524E+03	 6.011E+03	-8.234E+01	 1.004E+01	 7.732E+02	 0.000E+00
    0.8813	 5.309E+01	 1.170E+00	 9.715E+02	-4.943E-01	-1.902E+03	 1.842E+03	 3.922E+00	 1.651E+02	-1.272E+02	 2.546E+02	 2.548E+03	 6.030E+03	-8.301E+01	 1.004E+01	 7.818E+02	 0.000E+00
    0.8875	 5.346E+01	 1.170E+00	 9.715E+02	-4.942E-01	-1.875E+03	 1.876E+03	 3.904E+00	 1.663E+02	-1.281E+02	 2.556E+02	 2.573E+03	 6.046E+03	-8.366E+01	 1.004E+01	 7.954E+02	 0.000E+00
    0.8938	 5.384E+01	 1.170E+00	 9.715E+02	-4.942E-01	-1.844E+03	 1.917E+03	 3.886E+00	 1.673E+02	-1.290E+02	 2.567E+02	 2.601E+03	 6.061E+03	-8.447E+01	 1.004E+01	 8.185E+02	 0.000E+00
    0.9000	 5.422E+01	 1.170E+00	 9.715E+02	-4.942E-01	-1.809E+03	 1.957E+03	 3.869E+00	 1.686E+02	-1.300E+02	 2.576E+02	 2.628E+03	 6.078E+03	-8.504E+01	 1.004E+01	 8.470E+02	 0.000E+00
    0.9062	 5.459E+01	 1.170E+00	 9.715E+02	-4.941E-01	-1.777E+03	 1.998E+03	 3.852E+00	 1.694E+02	-1.310E+02	 2.587E+02	 2.658E+03	 6.088E+03	-8.581E+01	 1.004E+01	 8.847E+02	 0.000E+00
    0.9125	 5.497E+01	 1.170E+00	 9.715E+02	-4.942E-01	-1.744E+03	 2.042E+03	 3.836E+00	 1.703E+02	-1.321E+02	 2.597E+02	 2.690E+03	 6.097E+03	-8.667E+01	 1.004E+01	 9.289E+02	 0.000E+00
    0.9188	 5.535E+01	 1.170E+00	 9.715E+02	-4.942E-01	-1.704E+03	 2.083E+03	 3.820E+00	 1.711E+02	-1.332E+02	 2.606E+02	 2.721E+03	 6.106E+03	-8.730E+01	 1.004E+01	 9.806E+02	 0.000E+00
    0.9250	 5.572E+01	 1.170E+00	 9.715E+02	-4.942E-01	-1.671E+03	 2.128E+03	 3.805E+00	 1.717E+02	-1.344E+02	 2.616E+02	 2.755E+03	 6.109E+03	-8.812E+01	 1.004E+01	 1.038E+03	 0.000E+00
    0.9313	 5.610E+01	 1.170E+00	 9.715E+02	-4.942E-01	-1.633E+03	 2.170E+03	 3.791E+00	 1.721E+02	-1.356E+02	 2.626E+02	 2.789E+03	 6.110E+03	-8.890E+01	 1.004E+01	 1.104E+03	 0.000E+00
    0.9375	 5.647E+01	 1.170E+00	 9.715E+02	-4.943E-01	-1.596E+03	 2.212E+03	 3.777E+00	 1.724E+02	-1.368E+02	 2.635E+02	 2.825E+03	 6.107E+03	-8.969E+01	 1.004E+01	 1.176E+03	 0.000E+00
    0.9438	 5.685E+01	 1.170E+00	 9.715E+02	-4.943E-01	-1.556E+03	 2.254E+03	 3.764E+00	 1.726E+02	-1.381E+02	 2.645E+02	 2.862E+03	 6.102E+03	-9.051E+01	 1.004E+01	 1.256E+03	 0.000E+00
    0.9500	 5.723E+01	 1.170E+00	 9.715E+02	-4.943E-01	-1.519E+03	 2.293E+03	 3.752E+00	 1.725E+02	-1.394E+02	 2.654E+02	 2.899E+03	 6.092E+03	-9.133E+01	 1.004E+01	 1.339E+03	 0.000E+00
    0.9563	 5.760E+01	 1.170E+00	 9.715E+02	-4.943E-01	-1.480E+03	 2.332E+03	 3.740E+00	 1.723E+02	-1.407E+02	 2.663E+02	 2.938E+03	 6.080E+03	-9.217E+01	 1.004E+01	 1.430E+03	 0.000E+00
    0.9625	 5.798E+01	 1.170E+00	 9.715E+02	-4.943E-01	-1.440E+03	 2.368E+03	 3.730E+00	 1.720E+02	-1.421E+02	 2.673E+02	 2.977E+03	 6.064E+03	-9.301E+01	 1.004E+01	 1.526E+03	 0.000E+00
    0.9688	 5.836E+01	 1.170E+00	 9.715E+02	-4.943E-01	-1.401E+03	 2.402E+03	 3.720E+00	 1.715E+02	-1.434E+02	 2.682E+02	 3.017E+03	 6.044E+03	-9.386E+01	 1.004E+01	 1.626E+03	 0.000E+00
    0.9750	 5.873E+01	 1.170E+00	 9.715E+02	-4.942E-01	-1.362E+03	 2.434E+03	 3.711E+00	 1.708E+02	-1.448E+02	 2.691E+02	 3.057E+03	 6.022E+03	-9.472E+01	 1.004E+01	 1.730E+03	 0.000E+00