
Predictions were generated on 23-Jul-2020 at 12:26:53 using AA 
 AeroAcoustics
Number of observers      :    2
Number of frequencies    :   34
     Time           	Obs1_Freq10         	Obs1_Freq12.5       	Obs1_Freq16         	Obs1_Freq20         	Obs1_Freq25         	Obs1_Freq31.5       	Obs1_Freq40         	Obs1_Freq50         	Obs1_Freq63         	Obs1_Freq80         	Obs1_Freq100        	Obs1_Freq125        	Obs1_Freq160        	Obs1_Freq200        	Obs1_Freq250        	Obs1_Freq315        	Obs1_Freq400        	Obs1_Freq500        	Obs1_Freq630        	Obs1_Freq800        	Obs1_Freq1000       	Obs1_Freq1250       	Obs1_Freq1600       	Obs1_Freq2000       	Obs1_Freq2500       	Obs1_Freq3150       	Obs1_Freq4000       	Obs1_Freq5000       	Obs1_Freq6300       	Obs1_Freq8000       	Obs1_Freq10000      	Obs1_Freq12500      	Obs1_Freq16000      	Obs1_Freq20000      	Obs2_Freq10         	Obs2_Freq12.5       	Obs2_Freq16         	Obs2_Freq20         	Obs2_Freq25         	Obs2_Freq31.5       	Obs2_Freq40         	Obs2_Freq50         	Obs2_Freq63         	Obs2_Freq80         	Obs2_Freq100        	Obs2_Freq125        	Obs2_Freq160        	Obs2_Freq200        	Obs2_Freq250        	Obs2_Freq315        	Obs2_Freq400        	Obs2_Freq500        	Obs2_Freq630        	Obs2_Freq800        	Obs2_Freq1000       	Obs2_Freq1250       	Obs2_Freq1600       	Obs2_Freq2000       	Obs2_Freq2500       	Obs2_Freq3150       	Obs2_Freq4000       	Obs2_Freq5000       	Obs2_Freq6300       	Obs2_Freq8000       	Obs2_Freq10000      	Obs2_Freq12500      	Obs2_Freq16000      	Obs2_Freq20000      
      (s)           	SPL                 	SPL                 	SPL                 	SPL                 	SPL                 	SPL                 	SPL                 	SPL                 	SPL                 	SPL                 	SPL                 	SPL                 	SPL                 	SPL                 	SPL                 	SPL                 	SPL                 	SPL                 	SPL                 	SPL                 	SPL                 	SPL                 	SPL                 	SPL                 	SPL                 	SPL                 	SPL                 	SPL                 	SPL                 	SPL                 	SPL                 	SPL                 	SPL                 	SPL                 	SPL                 	SPL                 	SPL                 	SPL                 	SPL                 	SPL                 	SPL                 	SPL                 	SPL                 	SPL                 	SPL                 	SPL                 	SPL                 	SPL                 	SPL                 	SPL                 	SPL                 	SPL                 	SPL                 	SPL                 	SPL                 	SPL                 	SPL                 	SPL                 	SPL                 	SPL                 	SPL                 	SPL                 	SPL                 	SPL                 	SPL                 	SPL                 	SPL                 	SPL                 
         0.0000	  2.549646E+001	  2.762776E+001	  2.994742E+001	  3.203782E+001	  3.413598E+001	  3.629236E+001	  3.840510E+001	  4.022327E+001	  4.195778E+001	  4.363648E+001	  4.513345E+001	  4.635250E+001	  4.661853E+001	  4.534001E+001	  4.305888E+001	  4.080985E+001	  3.868523E+001	  3.690611E+001	  3.544372E+001	  3.449147E+001	  3.376959E+001	  3.259257E+001	  3.068011E+001	  2.909165E+001	  2.751413E+001	  2.569844E+001	  2.364927E+001	  2.172488E+001	  1.969036E+001	  1.750369E+001	  1.536082E+001	  1.310428E+001	  1.045703E+001	  7.910658E+000	  7.190932E+000	  9.264916E+000	  1.156002E+001	  1.365756E+001	  1.577656E+001	  1.793059E+001	  1.994479E+001	  2.157891E+001	  2.307910E+001	  2.449831E+001	  2.572044E+001	  2.663556E+001	  2.667981E+001	  2.537302E+001	  2.316154E+001	  2.097707E+001	  1.892440E+001	  1.717905E+001	  1.569947E+001	  1.468506E+001	  1.390788E+001	  1.270109E+001	  1.077981E+001	  9.178047E+000	  7.584807E+000	  5.753190E+000	  3.687443E+000	  1.746353E+000	 -3.050349E-001	 -2.507117E+000	 -4.661509E+000	 -6.926207E+000	 -9.578354E+000	 -1.212571E+001
         0.1000	  7.208982E+001	  7.115663E+001	  7.001683E+001	  6.888447E+001	  6.764944E+001	  6.625547E+001	  6.468477E+001	  6.309271E+001	  6.131332E+001	  5.932617E+001	  5.735054E+001	  5.525926E+001	  5.289946E+001	  5.082679E+001	  4.867417E+001	  4.667463E+001	  4.465405E+001	  4.277178E+001	  4.077184E+001	  3.868755E+001	  3.678162E+001	  3.458496E+001	  3.208770E+001	  2.999338E+001	  2.803427E+001	  2.596453E+001	  2.372549E+001	  2.165545E+001	  1.948680E+001	  1.718002E+001	  1.495159E+001	  1.264458E+001	  9.987855E+000	  7.473454E+000	  5.186415E+001	  5.092106E+001	  4.977052E+001	  4.862872E+001	  4.738467E+001	  4.598215E+001	  4.440420E+001	  4.280727E+001	  4.102517E+001	  3.903476E+001	  3.705981E+001	  3.496254E+001	  3.260763E+001	  3.057244E+001	  2.838408E+001	  2.642222E+001	  2.442630E+001	  2.256149E+001	  2.057681E+001	  1.849060E+001	  1.659244E+001	  1.431852E+001	  1.183557E+001	  9.764421E+000	  7.831861E+000	  5.783156E+000	  3.560322E+000	  1.509142E+000	 -6.370863E-001	 -2.919412E+000	 -5.125374E+000	 -7.411543E+000	 -1.004823E+001	 -1.254777E+001
         0.2000	  7.225589E+001	  7.132618E+001	  7.019035E+001	  6.906177E+001	  6.783068E+001	  6.644090E+001	  6.487450E+001	  6.328623E+001	  6.150995E+001	  5.952503E+001	  5.754962E+001	  5.545716E+001	  5.309880E+001	  5.102936E+001	  4.888008E+001	  4.689731E+001	  4.489845E+001	  4.299836E+001	  4.097446E+001	  3.889791E+001	  3.698078E+001	  3.477050E+001	  3.226526E+001	  3.015943E+001	  2.819246E+001	  2.612083E+001	  2.387914E+001	  2.180906E+001	  1.964305E+001	  1.734120E+001	  1.511871E+001	  1.281836E+001	  1.016922E+001	  7.661500E+000	  5.182606E+001	  5.090446E+001	  4.977941E+001	  4.866263E+001	  4.744578E+001	  4.607380E+001	  4.452976E+001	  4.296599E+001	  4.121823E+001	  3.926015E+001	  3.731091E+001	  3.523034E+001	  3.288710E+001	  3.085529E+001	  2.864579E+001	  2.668520E+001	  2.470605E+001	  2.282878E+001	  2.081108E+001	  1.873058E+001	  1.682281E+001	  1.453219E+001	  1.203839E+001	  9.960250E+000	  8.033845E+000	  6.001901E+000	  3.793037E+000	  1.759728E+000	 -3.652604E-001	 -2.625508E+000	 -4.812235E+000	 -7.081078E+000	 -9.700872E+000	 -1.218681E+001
         0.3000	  7.232636E+001	  7.139614E+001	  7.025976E+001	  6.913065E+001	  6.789902E+001	  6.650868E+001	  6.494171E+001	  6.335331E+001	  6.157529E+001	  5.959121E+001	  5.761594E+001	  5.552485E+001	  5.316991E+001	  5.110611E+001	  4.897125E+001	  4.701359E+001	  4.501548E+001	  4.308084E+001	  4.104727E+001	  3.897181E+001	  3.704874E+001	  3.482817E+001	  3.231715E+001	  3.020744E+001	  2.823817E+001	  2.616467E+001	  2.392340E+001	  2.185631E+001	  1.969577E+001	  1.740151E+001	  1.518690E+001	  1.289406E+001	  1.025141E+001	  7.747064E+000	  5.233513E+001	  5.143189E+001	  5.032814E+001	  4.923170E+001	  4.803631E+001	  4.668765E+001	  4.516855E+001	  4.362849E+001	  4.190286E+001	  3.997014E+001	  3.803952E+001	  3.597333E+001	  3.363396E+001	  3.159641E+001	  2.939473E+001	  2.745436E+001	  2.547092E+001	  2.354031E+001	  2.150582E+001	  1.943609E+001	  1.752950E+001	  1.525154E+001	  1.275323E+001	  1.067633E+001	  8.756696E+000	  6.733874E+000	  4.535484E+000	  2.514716E+000	  4.043680E-001	 -1.840463E+000	 -4.013893E+000	 -6.271724E+000	 -8.883081E+000	 -1.136515E+001
         0.4000	  7.233244E+001	  7.140127E+001	  7.026378E+001	  6.913360E+001	  6.790080E+001	  6.650913E+001	  6.494071E+001	  6.335086E+001	  6.157239E+001	  5.958550E+001	  5.760868E+001	  5.551508E+001	  5.315655E+001	  5.108864E+001	  4.894338E+001	  4.696548E+001	  4.496436E+001	  4.305736E+001	  4.103215E+001	  3.895038E+001	  3.702847E+001	  3.481601E+001	  3.231544E+001	  3.021479E+001	  2.825091E+001	  2.617716E+001	  2.393732E+001	  2.186809E+001	  1.970216E+001	  1.740000E+001	  1.517682E+001	  1.287508E+001	  1.022308E+001	  7.711211E+000	  5.320924E+001	  5.231759E+001	  5.122682E+001	  5.014224E+001	  4.895875E+001	  4.762223E+001	  4.611480E+001	  4.458511E+001	  4.286936E+001	  4.094501E+001	  3.901877E+001	  3.695296E+001	  3.460521E+001	  3.254798E+001	  3.033275E+001	  2.835728E+001	  2.636813E+001	  2.447124E+001	  2.244715E+001	  2.038148E+001	  1.848731E+001	  1.625790E+001	  1.377941E+001	  1.171919E+001	  9.810469E+000	  7.791803E+000	  5.597330E+000	  3.574026E+000	  1.455632E+000	 -8.014757E-001	 -2.988467E+000	 -5.260420E+000	 -7.886477E+000	 -1.038004E+001
         0.5000	  7.228756E+001	  7.135472E+001	  7.021528E+001	  6.908321E+001	  6.784837E+001	  6.645446E+001	  6.488346E+001	  6.329150E+001	  6.151019E+001	  5.952343E+001	  5.754756E+001	  5.545736E+001	  5.310067E+001	  5.103340E+001	  4.889214E+001	  4.690805E+001	  4.488081E+001	  4.296304E+001	  4.093477E+001	  3.884616E+001	  3.692037E+001	  3.470586E+001	  3.220285E+001	  3.010507E+001	  2.814307E+001	  2.606606E+001	  2.382922E+001	  2.176378E+001	  1.960209E+001	  1.730431E+001	  1.508451E+001	  1.278451E+001	  1.013156E+001	  7.615655E+000	  5.370145E+001	  5.280929E+001	  5.171770E+001	  5.063207E+001	  4.944710E+001	  4.810851E+001	  4.659820E+001	  4.506520E+001	  4.334551E+001	  4.141785E+001	  3.948933E+001	  3.742603E+001	  3.508062E+001	  3.302050E+001	  3.083272E+001	  2.884930E+001	  2.684113E+001	  2.494933E+001	  2.293363E+001	  2.087381E+001	  1.899149E+001	  1.680660E+001	  1.433384E+001	  1.228161E+001	  1.037687E+001	  8.354831E+000	  6.160437E+000	  4.136287E+000	  2.016570E+000	 -2.417909E-001	 -2.429840E+000	 -4.703130E+000	 -7.331608E+000	 -9.828732E+000
         0.6000	  7.242070E+001	  7.148563E+001	  7.034336E+001	  6.920833E+001	  6.797015E+001	  6.657238E+001	  6.499726E+001	  6.340097E+001	  6.161775E+001	  5.963287E+001	  5.766864E+001	  5.560545E+001	  5.329437E+001	  5.127608E+001	  4.920524E+001	  4.720752E+001	  4.503157E+001	  4.297553E+001	  4.087408E+001	  3.875708E+001	  3.683729E+001	  3.460628E+001	  3.209303E+001	  3.000324E+001	  2.805584E+001	  2.599870E+001	  2.380109E+001	  2.177944E+001	  1.966463E+001	  1.741095E+001	  1.522235E+001	  1.293886E+001	  1.028375E+001	  7.747593E+000	  5.399195E+001	  5.309553E+001	  5.199887E+001	  5.090826E+001	  4.971788E+001	  4.837323E+001	  4.685656E+001	  4.531674E+001	  4.359160E+001	  4.166060E+001	  3.973654E+001	  3.769381E+001	  3.538715E+001	  3.336797E+001	  3.128174E+001	  2.932964E+001	  2.723256E+001	  2.520429E+001	  2.314498E+001	  2.108332E+001	  1.921584E+001	  1.705166E+001	  1.456863E+001	  1.252435E+001	  1.063102E+001	  8.620146E+000	  6.451622E+000	  4.457990E+000	  2.372604E+000	  1.484033E-001	 -2.013612E+000	 -4.270883E+000	 -6.896644E+000	 -9.405500E+000
         0.7000	  7.267740E+001	  7.174097E+001	  7.059679E+001	  6.945967E+001	  6.821913E+001	  6.681895E+001	  6.524218E+001	  6.364650E+001	  6.186968E+001	  5.990463E+001	  5.798147E+001	  5.602421E+001	  5.385000E+001	  5.183253E+001	  4.956940E+001	  4.730345E+001	  4.498572E+001	  4.286206E+001	  4.070864E+001	  3.860206E+001	  3.673593E+001	  3.455970E+001	  3.205185E+001	  2.997638E+001	  2.805399E+001	  2.603276E+001	  2.388948E+001	  2.192189E+001	  1.985857E+001	  1.764730E+001	  1.548419E+001	  1.321023E+001	  1.054692E+001	  7.988261E+000	  5.443679E+001	  5.354024E+001	  5.244328E+001	  5.135224E+001	  5.016133E+001	  4.881614E+001	  4.729917E+001	  4.575991E+001	  4.403848E+001	  4.211760E+001	  4.021923E+001	  3.823415E+001	  3.602331E+001	  3.410096E+001	  3.209754E+001	  3.000125E+001	  2.770474E+001	  2.560886E+001	  2.348042E+001	  2.139363E+001	  1.956901E+001	  1.746754E+001	  1.498970E+001	  1.295800E+001	  1.108158E+001	  9.092470E+000	  6.960343E+000	  5.004490E+000	  2.956943E+000	  7.659517E-001	 -1.374353E+000	 -3.621693E+000	 -6.251459E+000	 -8.776718E+000
         0.8000	  7.294273E+001	  7.201137E+001	  7.087290E+001	  6.974111E+001	  6.850629E+001	  6.711310E+001	  6.554692E+001	  6.396984E+001	  6.223523E+001	  6.037132E+001	  5.860256E+001	  5.673041E+001	  5.440171E+001	  5.209343E+001	  4.962297E+001	  4.722122E+001	  4.482209E+001	  4.267883E+001	  4.055167E+001	  3.849232E+001	  3.667151E+001	  3.456469E+001	  3.206464E+001	  3.000686E+001	  2.812080E+001	  2.615015E+001	  2.407042E+001	  2.216176E+001	  2.015176E+001	  1.798363E+001	  1.584820E+001	  1.358928E+001	  1.092845E+001	  8.360423E+000	  5.494092E+001	  5.405264E+001	  5.296499E+001	  5.188264E+001	  5.070082E+001	  4.936569E+001	  4.786048E+001	  4.633573E+001	  4.463830E+001	  4.277513E+001	  4.099125E+001	  3.923314E+001	  3.723600E+001	  3.512956E+001	  3.273951E+001	  3.036604E+001	  2.796029E+001	  2.578071E+001	  2.362933E+001	  2.160597E+001	  1.986452E+001	  1.787930E+001	  1.538933E+001	  1.335650E+001	  1.150061E+001	  9.551692E+000	  7.477679E+000	  5.583849E+000	  3.598596E+000	  1.462602E+000	 -6.391573E-001	 -2.862293E+000	 -5.482092E+000	 -8.012128E+000
         0.9000	  7.309678E+001	  7.216907E+001	  7.103490E+001	  6.990742E+001	  6.867764E+001	  6.729134E+001	  6.573615E+001	  6.417788E+001	  6.248064E+001	  6.067992E+001	  5.893756E+001	  5.701612E+001	  5.462835E+001	  5.233469E+001	  4.994165E+001	  4.761568E+001	  4.530610E+001	  4.323455E+001	  4.113926E+001	  3.903531E+001	  3.711655E+001	  3.493304E+001	  3.234433E+001	  3.017708E+001	  2.817156E+001	  2.608420E+001	  2.389994E+001	  2.192172E+001	  1.986793E+001	  1.767891E+001	  1.554144E+001	  1.329388E+001	  1.065817E+001	  8.121889E+000	  5.519677E+001	  5.431508E+001	  5.323505E+001	  5.216006E+001	  5.098626E+001	  4.966053E+001	  4.816717E+001	  4.665912E+001	  4.499180E+001	  4.319690E+001	  4.153986E+001	  3.987948E+001	  3.771913E+001	  3.541494E+001	  3.303838E+001	  3.061303E+001	  2.816045E+001	  2.597518E+001	  2.384457E+001	  2.183882E+001	  2.011497E+001	  1.819066E+001	  1.569974E+001	  1.366471E+001	  1.181857E+001	  9.890032E+000	  7.840440E+000	  5.970665E+000	  4.008198E+000	  1.891779E+000	 -1.957913E-001	 -2.408638E+000	 -5.021319E+000	 -7.548444E+000
         1.0000	  7.310317E+001	  7.217481E+001	  7.103990E+001	  6.991169E+001	  6.868096E+001	  6.729309E+001	  6.573479E+001	  6.416939E+001	  6.245481E+001	  6.061667E+001	  5.886585E+001	  5.699181E+001	  5.463100E+001	  5.229082E+001	  4.983536E+001	  4.741405E+001	  4.500240E+001	  4.285952E+001	  4.073965E+001	  3.869152E+001	  3.688557E+001	  3.482964E+001	  3.232911E+001	  3.027394E+001	  2.839481E+001	  2.643405E+001	  2.436467E+001	  2.246517E+001	  2.046309E+001	  1.830121E+001	  1.616988E+001	  1.391354E+001	  1.125398E+001	  8.685855E+000	  5.501480E+001	  5.413098E+001	  5.304876E+001	  5.197196E+001	  5.079654E+001	  4.946925E+001	  4.797386E+001	  4.646157E+001	  4.478253E+001	  4.295311E+001	  4.122700E+001	  3.952903E+001	  3.747622E+001	  3.527580E+001	  3.289875E+001	  3.051396E+001	  2.809481E+001	  2.591327E+001	  2.376443E+001	  2.173335E+001	  1.997814E+001	  1.797268E+001	  1.546725E+001	  1.342118E+001	  1.156155E+001	  9.618679E+000	  7.553110E+000	  5.669782E+000	  3.695529E+000	  1.569575E+000	 -5.243706E-001	 -2.741116E+000	 -5.355242E+000	 -7.881145E+000
         1.1000	  7.302278E+001	  7.209544E+001	  7.096195E+001	  6.983531E+001	  6.860640E+001	  6.722037E+001	  6.566283E+001	  6.409513E+001	  6.236900E+001	  6.050629E+001	  5.872911E+001	  5.687255E+001	  5.460804E+001	  5.234076E+001	  4.992080E+001	  4.753305E+001	  4.514148E+001	  4.299596E+001	  4.086346E+001	  3.880652E+001	  3.699440E+001	  3.494606E+001	  3.242346E+001	  3.035265E+001	  2.846053E+001	  2.648738E+001	  2.440547E+001	  2.249938E+001	  2.049496E+001	  1.833436E+001	  1.620711E+001	  1.395727E+001	  1.130733E+001	  8.749757E+000	  5.472155E+001	  5.383756E+001	  5.275563E+001	  5.167961E+001	  5.050553E+001	  4.918022E+001	  4.768704E+001	  4.617562E+001	  4.449191E+001	  4.263927E+001	  4.085549E+001	  3.908328E+001	  3.709182E+001	  3.504600E+001	  3.267467E+001	  3.034424E+001	  2.797495E+001	  2.580879E+001	  2.364376E+001	  2.157911E+001	  1.978509E+001	  1.767159E+001	  1.515170E+001	  1.309602E+001	  1.122492E+001	  9.267108E+000	  7.186382E+000	  5.291217E+000	  3.307613E+000	  1.175289E+000	 -9.215714E-001	 -3.138526E+000	 -5.750206E+000	 -8.271984E+000
         1.2000	  7.293606E+001	  7.201058E+001	  7.087924E+001	  6.975460E+001	  6.852757E+001	  6.714291E+001	  6.558525E+001	  6.401414E+001	  6.227978E+001	  6.040552E+001	  5.862927E+001	  5.677786E+001	  5.452906E+001	  5.230248E+001	  4.988359E+001	  4.750720E+001	  4.512090E+001	  4.297156E+001	  4.083122E+001	  3.876362E+001	  3.694145E+001	  3.486273E+001	  3.233673E+001	  3.025795E+001	  2.835701E+001	  2.637616E+001	  2.428547E+001	  2.237354E+001	  2.036583E+001	  1.820441E+001	  1.607839E+001	  1.383139E+001	  1.118612E+001	  8.633850E+000	  5.450303E+001	  5.362162E+001	  5.254311E+001	  5.147077E+001	  5.030097E+001	  4.898075E+001	  4.749370E+001	  4.598780E+001	  4.430963E+001	  4.245822E+001	  4.066726E+001	  3.887445E+001	  3.688508E+001	  3.488274E+001	  3.250583E+001	  3.020682E+001	  2.786199E+001	  2.570445E+001	  2.353292E+001	  2.144671E+001	  1.962440E+001	  1.742708E+001	  1.489409E+001	  1.283022E+001	  1.095343E+001	  8.989659E+000	  6.905962E+000	  5.010849E+000	  3.029139E+000	  9.000992E-001	 -1.192824E+000	 -3.405377E+000	 -6.012147E+000	 -8.529903E+000
         1.3000	  7.274987E+001	  7.182314E+001	  7.069046E+001	  6.956459E+001	  6.833622E+001	  6.694968E+001	  6.538832E+001	  6.380984E+001	  6.205662E+001	  6.013592E+001	  5.830237E+001	  5.645290E+001	  5.430717E+001	  5.217223E+001	  4.979019E+001	  4.744887E+001	  4.508714E+001	  4.293765E+001	  4.078557E+001	  3.870766E+001	  3.687525E+001	  3.476128E+001	  3.223056E+001	  3.014679E+001	  2.823494E+001	  2.623843E+001	  2.412836E+001	  2.219959E+001	  2.017770E+001	  1.800567E+001	  1.587350E+001	  1.362380E+001	  1.097919E+001	  8.430443E+000	  5.436721E+001	  5.348822E+001	  5.241279E+001	  5.134370E+001	  5.017767E+001	  4.886191E+001	  4.737978E+001	  4.587886E+001	  4.420422E+001	  4.234960E+001	  4.054083E+001	  3.870294E+001	  3.669990E+001	  3.477654E+001	  3.243410E+001	  3.016423E+001	  2.784848E+001	  2.570331E+001	  2.352423E+001	  2.141251E+001	  1.956093E+001	  1.728949E+001	  1.474569E+001	  1.267297E+001	  1.078836E+001	  8.816098E+000	  6.724419E+000	  4.823979E+000	  2.838831E+000	  7.083190E-001	 -1.384123E+000	 -3.594555E+000	 -6.197403E+000	 -8.710562E+000
         1.4000	  7.256210E+001	  7.163208E+001	  7.049568E+001	  6.936633E+001	  6.813431E+001	  6.674371E+001	  6.517738E+001	  6.359234E+001	  6.182564E+001	  5.987218E+001	  5.797177E+001	  5.604226E+001	  5.395363E+001	  5.198528E+001	  4.967202E+001	  4.736545E+001	  4.504256E+001	  4.290528E+001	  4.074274E+001	  3.864877E+001	  3.680622E+001	  3.466185E+001	  3.213879E+001	  3.005775E+001	  2.813922E+001	  2.612750E+001	  2.399577E+001	  2.204528E+001	  2.000294E+001	  1.781398E+001	  1.567059E+001	  1.341422E+001	  1.076722E+001	  8.220292E+000	  5.446192E+001	  5.358740E+001	  5.251725E+001	  5.145333E+001	  5.029290E+001	  4.898346E+001	  4.750828E+001	  4.601371E+001	  4.434410E+001	  4.248830E+001	  4.066486E+001	  3.878172E+001	  3.674369E+001	  3.488744E+001	  3.260671E+001	  3.035652E+001	  2.806432E+001	  2.593131E+001	  2.374643E+001	  2.161038E+001	  1.973202E+001	  1.740242E+001	  1.484920E+001	  1.276733E+001	  1.087512E+001	  8.896024E+000	  6.796151E+000	  4.889744E+000	  2.900379E+000	  7.676049E-001	 -1.324926E+000	 -3.533455E+000	 -6.132009E+000	 -8.639538E+000
         1.5000	  7.250416E+001	  7.157326E+001	  7.043579E+001	  6.930535E+001	  6.807211E+001	  6.667999E+001	  6.511178E+001	  6.352375E+001	  6.175408E+001	  5.979338E+001	  5.788274E+001	  5.593603E+001	  5.384297E+001	  5.190321E+001	  4.960599E+001	  4.730370E+001	  4.498645E+001	  4.285163E+001	  4.068864E+001	  3.859274E+001	  3.675098E+001	  3.460097E+001	  3.208544E+001	  3.000780E+001	  2.808963E+001	  2.607634E+001	  2.394002E+001	  2.198456E+001	  1.993772E+001	  1.774541E+001	  1.560020E+001	  1.334325E+001	  1.069688E+001	  8.151525E+000	  5.469839E+001	  5.383134E+001	  5.276983E+001	  5.171416E+001	  5.056250E+001	  4.926267E+001	  4.779794E+001	  4.631298E+001	  4.465397E+001	  4.280628E+001	  4.098789E+001	  3.910419E+001	  3.706583E+001	  3.521442E+001	  3.292128E+001	  3.067858E+001	  2.838889E+001	  2.625451E+001	  2.406434E+001	  2.191752E+001	  2.002656E+001	  1.766585E+001	  1.510023E+001	  1.300915E+001	  1.111338E+001	  9.134940E+000	  7.037113E+000	  5.135596E+000	  3.152814E+000	  1.027280E+000	 -1.058590E+000	 -3.260770E+000	 -5.852781E+000	 -8.354861E+000
         1.6000	  7.247547E+001	  7.154466E+001	  7.040725E+001	  6.927681E+001	  6.804350E+001	  6.665118E+001	  6.508255E+001	  6.349430E+001	  6.172355E+001	  5.976264E+001	  5.785356E+001	  5.591234E+001	  5.381913E+001	  5.186488E+001	  4.955620E+001	  4.725215E+001	  4.493131E+001	  4.279475E+001	  4.063285E+001	  3.854014E+001	  3.670214E+001	  3.455226E+001	  3.203955E+001	  2.996333E+001	  2.804637E+001	  2.603458E+001	  2.389897E+001	  2.194436E+001	  1.989874E+001	  1.770790E+001	  1.556412E+001	  1.330852E+001	  1.066353E+001	  8.119268E+000	  5.481536E+001	  5.395520E+001	  5.290179E+001	  5.185402E+001	  5.071086E+001	  4.942052E+001	  4.796634E+001	  4.649192E+001	  4.484378E+001	  4.300707E+001	  4.119735E+001	  3.931967E+001	  3.728469E+001	  3.543527E+001	  3.314239E+001	  3.090574E+001	  2.861776E+001	  2.648242E+001	  2.428928E+001	  2.213802E+001	  2.024171E+001	  1.786966E+001	  1.529257E+001	  1.319648E+001	  1.130033E+001	  9.322849E+000	  7.228831E+000	  5.333245E+000	  3.357361E+000	  1.238792E+000	 -8.411139E-001	 -3.038086E+000	 -5.625425E+000	 -8.124393E+000
         1.7000	  7.240753E+001	  7.147573E+001	  7.033718E+001	  6.920567E+001	  6.797123E+001	  6.657772E+001	  6.500777E+001	  6.341853E+001	  6.164614E+001	  5.968379E+001	  5.777150E+001	  5.582020E+001	  5.369296E+001	  5.173270E+001	  4.947291E+001	  4.718341E+001	  4.487016E+001	  4.274263E+001	  4.058637E+001	  3.849154E+001	  3.664883E+001	  3.449192E+001	  3.198244E+001	  2.990972E+001	  2.799401E+001	  2.598057E+001	  2.384189E+001	  2.188309E+001	  1.983259E+001	  1.763693E+001	  1.548937E+001	  1.323099E+001	  1.058413E+001	  8.039191E+000	  5.483763E+001	  5.398234E+001	  5.293479E+001	  5.189281E+001	  5.075601E+001	  4.947289E+001	  4.802683E+001	  4.656058E+001	  4.492080E+001	  4.309309E+001	  4.128879E+001	  3.940988E+001	  3.735223E+001	  3.550354E+001	  3.326948E+001	  3.104613E+001	  2.876208E+001	  2.663199E+001	  2.444177E+001	  2.228851E+001	  2.038856E+001	  1.802598E+001	  1.544349E+001	  1.334862E+001	  1.145446E+001	  9.475900E+000	  7.382686E+000	  5.487958E+000	  3.512570E+000	  1.394267E+000	 -6.853805E-001	 -2.882036E+000	 -5.469084E+000	 -7.968060E+000
         1.8000	  7.235727E+001	  7.142467E+001	  7.028517E+001	  6.915277E+001	  6.791738E+001	  6.652287E+001	  6.495194E+001	  6.336177E+001	  6.158871E+001	  5.962544E+001	  5.771241E+001	  5.576033E+001	  5.363112E+001	  5.166800E+001	  4.940846E+001	  4.712377E+001	  4.481157E+001	  4.268599E+001	  4.053242E+001	  3.844064E+001	  3.660033E+001	  3.444581E+001	  3.194012E+001	  2.987213E+001	  2.795976E+001	  2.594739E+001	  2.380979E+001	  2.185098E+001	  1.979964E+001	  1.760255E+001	  1.545335E+001	  1.319313E+001	  1.054409E+001	  7.997067E+000	  5.493891E+001	  5.408641E+001	  5.304202E+001	  5.200298E+001	  5.086917E+001	  4.958918E+001	  4.814635E+001	  4.668290E+001	  4.504623E+001	  4.322157E+001	  4.142074E+001	  3.954939E+001	  3.749929E+001	  3.563889E+001	  3.340666E+001	  3.117644E+001	  2.888036E+001	  2.674397E+001	  2.455443E+001	  2.241056E+001	  2.052339E+001	  1.820655E+001	  1.562583E+001	  1.353655E+001	  1.164774E+001	  9.672168E+000	  7.583794E+000	  5.692764E+000	  3.719936E+000	  1.602988E+000	 -4.765142E-001	 -2.674096E+000	 -5.263382E+000	 -7.765435E+000
         1.9000	  7.237985E+001	  7.144711E+001	  7.030737E+001	  6.917461E+001	  6.793873E+001	  6.654352E+001	  6.497164E+001	  6.338054E+001	  6.160687E+001	  5.964509E+001	  5.773880E+001	  5.580636E+001	  5.370878E+001	  5.172978E+001	  4.941026E+001	  4.709637E+001	  4.476843E+001	  4.263099E+001	  4.047445E+001	  3.839202E+001	  3.656309E+001	  3.441692E+001	  3.191776E+001	  2.985410E+001	  2.794525E+001	  2.593720E+001	  2.380509E+001	  2.185051E+001	  1.980243E+001	  1.760725E+001	  1.545818E+001	  1.319636E+001	  1.054363E+001	  7.991835E+000	  5.509056E+001	  5.423717E+001	  5.319134E+001	  5.215050E+001	  5.101431E+001	  4.973109E+001	  4.828400E+001	  4.681572E+001	  4.517325E+001	  4.334322E+001	  4.154255E+001	  3.968810E+001	  3.767169E+001	  3.578689E+001	  3.350153E+001	  3.122740E+001	  2.890321E+001	  2.674829E+001	  2.455658E+001	  2.243500E+001	  2.057971E+001	  1.834016E+001	  1.576896E+001	  1.368900E+001	  1.180846E+001	  9.840333E+000	  7.760579E+000	  5.876114E+000	  3.908327E+000	  1.794571E+000	 -2.840310E-001	 -2.482821E+000	 -5.075770E+000	 -7.582938E+000
         2.0000	  7.245943E+001	  7.152510E+001	  7.038331E+001	  6.924840E+001	  6.801001E+001	  6.661177E+001	  6.503632E+001	  6.344106E+001	  6.166442E+001	  5.970130E+001	  5.779857E+001	  5.588016E+001	  5.379630E+001	  5.178719E+001	  4.941087E+001	  4.708913E+001	  4.475130E+001	  4.260768E+001	  4.045122E+001	  3.837358E+001	  3.654840E+001	  3.440246E+001	  3.190750E+001	  2.984398E+001	  2.793463E+001	  2.592811E+001	  2.379719E+001	  2.184316E+001	  1.979525E+001	  1.759977E+001	  1.544984E+001	  1.318661E+001	  1.053184E+001	  7.977992E+000	  5.506887E+001	  5.420789E+001	  5.315264E+001	  5.210212E+001	  5.095493E+001	  4.965869E+001	  4.819617E+001	  4.671136E+001	  4.505035E+001	  4.319805E+001	  4.137938E+001	  3.951405E+001	  3.749344E+001	  3.557473E+001	  3.320659E+001	  3.091040E+001	  2.856719E+001	  2.640235E+001	  2.421269E+001	  2.210476E+001	  2.026504E+001	  1.802442E+001	  1.547937E+001	  1.341382E+001	  1.153967E+001	  9.576284E+000	  7.496791E+000	  5.607837E+000	  3.633180E+000	  1.511318E+000	 -5.754302E-001	 -2.782702E+000	 -5.385061E+000	 -7.900354E+000
         2.1000	  7.250453E+001	  7.156924E+001	  7.042628E+001	  6.929019E+001	  6.805052E+001	  6.665085E+001	  6.507382E+001	  6.347697E+001	  6.169855E+001	  5.973300E+001	  5.782626E+001	  5.589974E+001	  5.380636E+001	  5.179560E+001	  4.941517E+001	  4.709244E+001	  4.475421E+001	  4.261037E+001	  4.045269E+001	  3.837188E+001	  3.654310E+001	  3.438915E+001	  3.189413E+001	  2.982835E+001	  2.791673E+001	  2.590943E+001	  2.377684E+001	  2.182125E+001	  1.977194E+001	  1.757526E+001	  1.542448E+001	  1.316071E+001	  1.050580E+001	  7.952304E+000	  5.487726E+001	  5.400760E+001	  5.294181E+001	  5.188069E+001	  5.072166E+001	  4.941164E+001	  4.793305E+001	  4.643123E+001	  4.475030E+001	  4.287346E+001	  4.102867E+001	  3.912973E+001	  3.707677E+001	  3.514995E+001	  3.274404E+001	  3.043612E+001	  2.808757E+001	  2.592167E+001	  2.373354E+001	  2.162707E+001	  1.978958E+001	  1.752555E+001	  1.500362E+001	  1.294582E+001	  1.107099E+001	  9.106745E+000	  7.019149E+000	  5.118620E+000	  3.131240E+000	  9.970552E-001	 -1.099905E+000	 -3.315803E+000	 -5.925515E+000	 -8.445181E+000
         2.2000	  7.247637E+001	  7.154128E+001	  7.039860E+001	  6.926282E+001	  6.802352E+001	  6.662431E+001	  6.504789E+001	  6.345222E+001	  6.167460E+001	  5.971069E+001	  5.780659E+001	  5.587721E+001	  5.376118E+001	  5.174048E+001	  4.937606E+001	  4.705545E+001	  4.472065E+001	  4.258083E+001	  4.042475E+001	  3.834060E+001	  3.650607E+001	  3.433935E+001	  3.184085E+001	  2.977361E+001	  2.786140E+001	  2.585372E+001	  2.372136E+001	  2.176618E+001	  1.971720E+001	  1.752073E+001	  1.537011E+001	  1.310654E+001	  1.045189E+001	  7.898636E+000	  5.447333E+001	  5.359530E+001	  5.251964E+001	  5.144887E+001	  5.027933E+001	  4.895737E+001	  4.746522E+001	  4.594953E+001	  4.425266E+001	  4.235669E+001	  4.049060E+001	  3.855915E+001	  3.646005E+001	  3.453731E+001	  3.216723E+001	  2.985370E+001	  2.750995E+001	  2.535215E+001	  2.317084E+001	  2.106874E+001	  1.923607E+001	  1.697268E+001	  1.446847E+001	  1.242075E+001	  1.054722E+001	  8.579543E+000	  6.483237E+000	  4.570491E+000	  2.569293E+000	  4.215620E-001	 -1.686502E+000	 -3.911629E+000	 -6.529198E+000	 -9.053852E+000
         2.3000	  7.243104E+001	  7.149668E+001	  7.035493E+001	  6.922010E+001	  6.798187E+001	  6.658393E+001	  6.500899E+001	  6.341516E+001	  6.163856E+001	  5.967993E+001	  5.778327E+001	  5.586273E+001	  5.372867E+001	  5.168357E+001	  4.933095E+001	  4.701651E+001	  4.468253E+001	  4.254556E+001	  4.039213E+001	  3.830589E+001	  3.646578E+001	  3.428858E+001	  3.178612E+001	  2.971809E+001	  2.780640E+001	  2.579906E+001	  2.366871E+001	  2.171559E+001	  1.966834E+001	  1.747315E+001	  1.532331E+001	  1.306015E+001	  1.040551E+001	  7.851813E+000	  5.396260E+001	  5.307507E+001	  5.198843E+001	  5.090712E+001	  4.972632E+001	  4.839183E+001	  4.688576E+001	  4.535647E+001	  4.364220E+001	  4.173188E+001	  3.984756E+001	  3.788828E+001	  3.574016E+001	  3.382432E+001	  3.153082E+001	  2.923336E+001	  2.690300E+001	  2.476193E+001	  2.259462E+001	  2.050130E+001	  1.867486E+001	  1.642833E+001	  1.394103E+001	  1.190939E+001	  1.004194E+001	  8.069811E+000	  5.966493E+000	  4.042294E+000	  2.026902E+000	 -1.355462E-001	 -2.256170E+000	 -4.492245E+000	 -7.120005E+000	 -9.652406E+000