
Predictions were generated on 08-Jun-2017 at 12:39:26 using OpenFAST (v8.17.01b-dev, 18-Jan-2017), compiled as a 64-bit application using double precision
 linked with  NWTC Subroutine Library (v2.11.02, 13-Mar-2017); ElastoDyn (v1.04.00a-bjj, 26-Jul-2016); InflowWind (v3.04.00, 31-Dec-2016); AeroDyn (v15.04.02a, 10-May-2017); ServoDyn (v1.06.00a-bjj, 26-Jul-2016)

Description from the FAST input file: FAST Certification Test #03: AWT-27CR2 with many DOFs with free yaw and steady wind.

Time      	Wind1VelX 	Wind1VelY 	Wind1VelZ 	Azimuth   	TeetDefl  	RotTeetV  	RotTeetA  	OoPDefl2  	IPDefl2   	RootMOoP2 	RootMIP2  	RotTorq   	YawBrTDxp 	YawBrTDyp 	YawBrTAxp 	YawBrTAyp 	NacYaw    	NacYawV   	NacYawA   	LSSGagMys 	LSSGagMzs 	TwrBsMxt  	TwrBsMyt  	B1N3VUndx 	B1N3VUndy 	B1N3VUndz 	B1N3VDisx 	B1N3VDisy 	B1N3VDisz 	B1N3STVx  	B1N3STVy  	B1N3STVz  
(s)       	(m/s)     	(m/s)     	(m/s)     	(deg)     	(deg)     	(deg/s)   	(deg/s^2) 	(m)       	(m)       	(kN·m)    	(kN·m)    	(kN·m)    	(m)       	(m)       	(m/s^2)   	(m/s^2)   	(deg)     	(deg/s)   	(deg/s^2) 	(kN·m)    	(kN·m)    	(kN·m)    	(kN·m)    	(m/s)     	(m/s)     	(m/s)     	(m/s)     	(m/s)     	(m/s)     	(m/s)     	(m/s)     	(m/s)     
   10.0000	 1.039E+01	-6.000E+00	 0.000E+00	 1.515E+01	 4.366E-01	 3.764E+00	-5.202E+01	 1.519E-01	-2.007E-02	 3.572E+01	 7.735E+00	 3.385E+01	 4.456E-02	-2.382E-02	 9.670E-02	 2.326E-02	-2.582E+01	-4.031E-04	-1.174E+01	 7.699E+00	-1.835E+00	 6.070E+02	 1.157E+03	 1.245E+01	-8.855E-01	 2.120E+00	 1.245E+01	-8.855E-01	 2.120E+00	 8.502E-01	-7.745E+01	-1.259E-01
   10.0200	 1.039E+01	-6.000E+00	 0.000E+00	 2.166E+01	 5.045E-01	 3.162E+00	-1.405E+01	 1.413E-01	-1.969E-02	 3.768E+01	 7.501E+00	 3.447E+01	 4.413E-02	-2.377E-02	 1.475E-01	-1.968E-03	-2.582E+01	-1.996E-01	-8.174E+00	 7.682E+00	-2.096E+00	 6.056E+02	 1.138E+03	 1.242E+01	-8.480E-01	 2.211E+00	 1.242E+01	-8.480E-01	 2.211E+00	 9.146E-01	-7.748E+01	-1.317E-01
   10.0400	 1.039E+01	-6.000E+00	 0.000E+00	 2.818E+01	 5.655E-01	 2.938E+00	-1.122E+01	 1.342E-01	-1.946E-02	 3.776E+01	 7.128E+00	 3.646E+01	 4.375E-02	-2.371E-02	 1.075E-01	 1.301E-02	-2.582E+01	-3.420E-01	-6.682E+00	 8.111E+00	-2.399E+00	 6.004E+02	 1.116E+03	 1.237E+01	-7.986E-01	 2.323E+00	 1.237E+01	-7.986E-01	 2.323E+00	 1.009E+00	-7.751E+01	-1.372E-01
   10.0600	 1.039E+01	-6.000E+00	 0.000E+00	 3.469E+01	 6.221E-01	 2.742E+00	-6.518E+00	 1.327E-01	-1.849E-02	 3.623E+01	 5.347E+00	 3.784E+01	 4.342E-02	-2.365E-02	 3.476E-02	 6.764E-02	-2.583E+01	-4.908E-01	-8.648E+00	 8.827E+00	-2.809E+00	 5.932E+02	 1.099E+03	 1.231E+01	-7.384E-01	 2.446E+00	 1.231E+01	-7.384E-01	 2.446E+00	 9.623E-01	-7.752E+01	-1.420E-01
   10.0800	 1.039E+01	-6.000E+00	 0.000E+00	 4.120E+01	 6.762E-01	 2.693E+00	 3.192E-01	 1.353E-01	-1.691E-02	 3.498E+01	 2.294E+00	 3.777E+01	 4.310E-02	-2.356E-02	 2.637E-02	 1.066E-01	-2.584E+01	-6.944E-01	-1.156E+01	 9.861E+00	-3.115E+00	 5.877E+02	 1.093E+03	 1.224E+01	-6.683E-01	 2.553E+00	 1.224E+01	-6.683E-01	 2.553E+00	 7.608E-01	-7.751E+01	-1.446E-01
   10.1000	 1.039E+01	-6.000E+00	 0.000E+00	 4.772E+01	 7.301E-01	 2.677E+00	-3.571E+00	 1.395E-01	-1.547E-02	 3.536E+01	-8.566E-01	 3.683E+01	 4.279E-02	-2.343E-02	 1.073E-01	 9.032E-02	-2.586E+01	-9.369E-01	-1.210E+01	 1.097E+01	-3.153E+00	 5.860E+02	 1.096E+03	 1.218E+01	-5.895E-01	 2.628E+00	 1.218E+01	-5.895E-01	 2.628E+00	 5.045E-01	-7.748E+01	-1.449E-01
   10.1200	 1.039E+01	-6.000E+00	 0.000E+00	 5.423E+01	 7.823E-01	 2.511E+00	-1.344E+01	 1.438E-01	-1.485E-02	 3.692E+01	-2.818E+00	 3.617E+01	 4.253E-02	-2.327E-02	 2.094E-01	 3.065E-02	-2.588E+01	-1.154E+00	-9.093E+00	 1.182E+01	-2.908E+00	 5.860E+02	 1.098E+03	 1.211E+01	-5.036E-01	 2.672E+00	 1.211E+01	-5.036E-01	 2.672E+00	 3.046E-01	-7.744E+01	-1.444E-01
   10.1400	 1.039E+01	-6.000E+00	 0.000E+00	 6.075E+01	 8.291E-01	 2.136E+00	-2.392E+01	 1.476E-01	-1.508E-02	 3.837E+01	-3.332E+00	 3.634E+01	 4.235E-02	-2.309E-02	 2.481E-01	-2.673E-02	-2.591E+01	-1.287E+00	-4.042E+00	 1.233E+01	-2.493E+00	 5.839E+02	 1.094E+03	 1.205E+01	-4.121E-01	 2.699E+00	 1.205E+01	-4.121E-01	 2.699E+00	 1.992E-01	-7.742E+01	-1.444E-01
   10.1600	 1.039E+01	-6.000E+00	 0.000E+00	 6.726E+01	 8.664E-01	 1.565E+00	-3.268E+01	 1.511E-01	-1.563E-02	 3.887E+01	-3.173E+00	 3.698E+01	 4.227E-02	-2.293E-02	 2.022E-01	-4.573E-02	-2.593E+01	-1.319E+00	 5.578E-01	 1.261E+01	-2.058E+00	 5.771E+02	 1.084E+03	 1.197E+01	-3.170E-01	 2.723E+00	 1.197E+01	-3.170E-01	 2.723E+00	 1.366E-01	-7.740E+01	-1.463E-01
   10.1800	 1.039E+01	-6.000E+00	 0.000E+00	 7.378E+01	 8.908E-01	 8.572E-01	-3.732E+01	 1.535E-01	-1.585E-02	 3.859E+01	-3.293E+00	 3.743E+01	 4.226E-02	-2.278E-02	 1.233E-01	-2.935E-02	-2.596E+01	-1.277E+00	 3.336E+00	 1.286E+01	-1.670E+00	 5.670E+02	 1.074E+03	 1.189E+01	-2.199E-01	 2.744E+00	 1.189E+01	-2.199E-01	 2.744E+00	 4.095E-02	-7.740E+01	-1.511E-01
   10.2000	 1.039E+01	-6.000E+00	 0.000E+00	 8.029E+01	 9.004E-01	 1.024E-01	-3.758E+01	 1.541E-01	-1.551E-02	 3.822E+01	-4.057E+00	 3.734E+01	 4.231E-02	-2.264E-02	 7.924E-02	-1.042E-02	-2.598E+01	-1.195E+00	 4.800E+00	 1.316E+01	-1.283E+00	 5.576E+02	 1.073E+03	 1.181E+01	-1.224E-01	 2.753E+00	 1.181E+01	-1.224E-01	 2.753E+00	-1.178E-01	-7.739E+01	-1.588E-01
   10.2200	 1.039E+01	-6.000E+00	 0.000E+00	 8.681E+01	 8.950E-01	-6.318E-01	-3.573E+01	 1.527E-01	-1.483E-02	 3.819E+01	-5.085E+00	 3.696E+01	 4.239E-02	-2.251E-02	 9.393E-02	-1.845E-02	-2.601E+01	-1.084E+00	 6.335E+00	 1.346E+01	-8.279E-01	 5.522E+02	 1.082E+03	 1.172E+01	-2.576E-02	 2.743E+00	 1.172E+01	-2.576E-02	 2.743E+00	-3.147E-01	-7.738E+01	-1.690E-01
   10.2400	 1.039E+01	-6.000E+00	 0.000E+00	 9.333E+01	 8.754E-01	-1.323E+00	-3.334E+01	 1.499E-01	-1.425E-02	 3.838E+01	-5.654E+00	 3.666E+01	 4.250E-02	-2.238E-02	 1.345E-01	-5.479E-02	-2.603E+01	-9.357E-01	 8.671E+00	 1.357E+01	-2.968E-01	 5.513E+02	 1.095E+03	 1.164E+01	 6.878E-02	 2.712E+00	 1.164E+01	 6.878E-02	 2.712E+00	-5.073E-01	-7.736E+01	-1.800E-01
   10.2600	 1.039E+01	-6.000E+00	 0.000E+00	 9.984E+01	 8.424E-01	-1.977E+00	-3.221E+01	 1.471E-01	-1.416E-02	 3.842E+01	-5.255E+00	 3.664E+01	 4.268E-02	-2.228E-02	 1.518E-01	-9.734E-02	-2.604E+01	-7.355E-01	 1.128E+01	 1.338E+01	 2.387E-01	 5.526E+02	 1.108E+03	 1.156E+01	 1.602E-01	 2.666E+00	 1.156E+01	 1.602E-01	 2.666E+00	-6.745E-01	-7.733E+01	-1.899E-01
   10.2800	 1.039E+01	-6.000E+00	 0.000E+00	 1.064E+02	 7.965E-01	-2.606E+00	-3.046E+01	 1.454E-01	-1.461E-02	 3.810E+01	-3.908E+00	 3.673E+01	 4.291E-02	-2.222E-02	 1.215E-01	-1.214E-01	-2.606E+01	-4.913E-01	 1.287E+01	 1.289E+01	 6.831E-01	 5.533E+02	 1.117E+03	 1.148E+01	 2.478E-01	 2.608E+00	 1.148E+01	 2.478E-01	 2.608E+00	-8.206E-01	-7.732E+01	-1.969E-01
   10.3000	 1.039E+01	-6.000E+00	 0.000E+00	 1.129E+02	 7.384E-01	-3.195E+00	-2.849E+01	 1.451E-01	-1.544E-02	 3.757E+01	-2.091E+00	 3.671E+01	 4.318E-02	-2.220E-02	 5.994E-02	-1.198E-01	-2.606E+01	-2.323E-01	 1.273E+01	 1.225E+01	 1.000E+00	 5.525E+02	 1.121E+03	 1.140E+01	 3.307E-01	 2.539E+00	 1.140E+01	 3.307E-01	 2.539E+00	-9.537E-01	-7.731E+01	-2.003E-01
   10.3200	 1.039E+01	-6.000E+00	 0.000E+00	 1.194E+02	 6.689E-01	-3.742E+00	-2.603E+01	 1.457E-01	-1.633E-02	 3.713E+01	-3.409E-01	 3.651E+01	 4.349E-02	-2.223E-02	 3.857E-03	-1.041E-01	-2.606E+01	 8.212E-03	 1.116E+01	 1.162E+01	 1.212E+00	 5.512E+02	 1.126E+03	 1.133E+01	 4.083E-01	 2.458E+00	 1.133E+01	 4.083E-01	 2.458E+00	-1.068E+00	-7.734E+01	-2.008E-01
   10.3400	 1.039E+01	-6.000E+00	 0.000E+00	 1.259E+02	 5.891E-01	-4.230E+00	-2.261E+01	 1.466E-01	-1.710E-02	 3.695E+01	 1.083E+00	 3.626E+01	 4.379E-02	-2.231E-02	-2.299E-02	-9.125E-02	-2.606E+01	 2.114E-01	 9.190E+00	 1.110E+01	 1.373E+00	 5.516E+02	 1.135E+03	 1.125E+01	 4.800E-01	 2.365E+00	 1.125E+01	 4.800E-01	 2.365E+00	-1.145E+00	-7.737E+01	-1.998E-01
   10.3600	 1.039E+01	-6.000E+00	 0.000E+00	 1.324E+02	 5.003E-01	-4.640E+00	-1.815E+01	 1.473E-01	-1.770E-02	 3.694E+01	 2.287E+00	 3.613E+01	 4.409E-02	-2.242E-02	-2.303E-02	-8.930E-02	-2.606E+01	 3.789E-01	 7.657E+00	 1.064E+01	 1.510E+00	 5.551E+02	 1.146E+03	 1.119E+01	 5.452E-01	 2.264E+00	 1.119E+01	 5.452E-01	 2.264E+00	-1.169E+00	-7.741E+01	-1.983E-01
   10.3800	 1.039E+01	-6.000E+00	 0.000E+00	 1.389E+02	 4.042E-01	-4.946E+00	-1.220E+01	 1.475E-01	-1.827E-02	 3.692E+01	 3.583E+00	 3.618E+01	 4.437E-02	-2.256E-02	-1.558E-02	-9.417E-02	-2.605E+01	 5.207E-01	 6.548E+00	 1.018E+01	 1.596E+00	 5.615E+02	 1.159E+03	 1.113E+01	 6.034E-01	 2.161E+00	 1.113E+01	 6.034E-01	 2.161E+00	-1.147E+00	-7.745E+01	-1.962E-01
   10.4000	 1.039E+01	-6.000E+00	 0.000E+00	 1.454E+02	 3.033E-01	-5.120E+00	-5.014E+00	 1.474E-01	-1.895E-02	 3.680E+01	 5.215E+00	 3.632E+01	 4.466E-02	-2.275E-02	-1.823E-02	-9.560E-02	-2.604E+01	 6.398E-01	 5.289E+00	 9.656E+00	 1.581E+00	 5.694E+02	 1.170E+03	 1.108E+01	 6.542E-01	 2.058E+00	 1.108E+01	 6.542E-01	 2.058E+00	-1.100E+00	-7.747E+01	-1.926E-01
   10.4200	 1.039E+01	-6.000E+00	 0.000E+00	 1.520E+02	 2.004E-01	-5.145E+00	 2.512E+00	 1.471E-01	-1.980E-02	 3.666E+01	 7.200E+00	 3.643E+01	 4.493E-02	-2.297E-02	-3.373E-02	-8.647E-02	-2.602E+01	 7.279E-01	 3.419E+00	 9.078E+00	 1.434E+00	 5.775E+02	 1.177E+03	 1.104E+01	 6.971E-01	 1.957E+00	 1.104E+01	 6.971E-01	 1.957E+00	-1.052E+00	-7.749E+01	-1.869E-01
   10.4400	 1.039E+01	-6.000E+00	 0.000E+00	 1.585E+02	 9.849E-02	-5.022E+00	 9.674E+00	 1.467E-01	-2.078E-02	 3.661E+01	 9.343E+00	 3.645E+01	 4.519E-02	-2.322E-02	-5.287E-02	-6.657E-02	-2.601E+01	 7.739E-01	 1.162E+00	 8.498E+00	 1.170E+00	 5.853E+02	 1.182E+03	 1.100E+01	 7.318E-01	 1.856E+00	 1.100E+01	 7.318E-01	 1.856E+00	-1.015E+00	-7.750E+01	-1.793E-01
   10.4600	 1.039E+01	-6.000E+00	 0.000E+00	 1.650E+02	 2.693E-04	-4.790E+00	 1.305E+01	 1.468E-01	-2.180E-02	 3.666E+01	 1.145E+01	 3.643E+01	 4.543E-02	-2.350E-02	-7.018E-02	-3.785E-02	-2.599E+01	 7.750E-01	-1.032E+00	 7.978E+00	 8.179E-01	 5.930E+02	 1.185E+03	 1.098E+01	 7.578E-01	 1.753E+00	 1.098E+01	 7.578E-01	 1.753E+00	-9.865E-01	-7.752E+01	-1.711E-01
   10.4800	 1.039E+01	-6.000E+00	 0.000E+00	 1.715E+02	-9.309E-02	-4.577E+00	 1.057E+00	 1.473E-01	-2.281E-02	 3.640E+01	 1.355E+01	 3.634E+01	 4.564E-02	-2.380E-02	-1.049E-01	 6.763E-03	-2.598E+01	 7.311E-01	-3.590E+00	 7.607E+00	 3.655E-01	 6.013E+02	 1.189E+03	 1.097E+01	 7.748E-01	 1.649E+00	 1.097E+01	 7.748E-01	 1.649E+00	-9.542E-01	-7.754E+01	-1.636E-01
   10.5000	 1.039E+01	-6.000E+00	 0.000E+00	 1.780E+02	-1.852E-01	-4.627E+00	-6.501E-01	 1.473E-01	-2.381E-02	 3.544E+01	 1.588E+01	 3.624E+01	 4.580E-02	-2.410E-02	-1.342E-01	 5.120E-02	-2.596E+01	 6.223E-01	-7.037E+00	 7.582E+00	-2.031E-01	 6.110E+02	 1.195E+03	 1.097E+01	 7.825E-01	 1.551E+00	 8.533E+00	 6.097E-01	 1.202E+00	-9.021E-01	-7.754E+01	-1.601E-01
   10.5200	 1.039E+01	-6.000E+00	 0.000E+00	 1.845E+02	-2.793E-01	-4.875E+00	-1.922E+01	 1.456E-01	-2.460E-02	 3.350E+01	 1.831E+01	 3.604E+01	 4.592E-02	-2.437E-02	-1.585E-01	 9.222E-02	-2.595E+01	 4.521E-01	-1.046E+01	 7.839E+00	-8.178E-01	 6.217E+02	 1.201E+03	 1.099E+01	 7.804E-01	 1.477E+00	 1.099E+01	 7.804E-01	 1.477E+00	-1.073E+00	-7.747E+01	-1.574E-01
   10.5400	 1.039E+01	-6.000E+00	 0.000E+00	 1.910E+02	-3.759E-01	-4.468E+00	 6.256E+01	 1.415E-01	-2.523E-02	 3.391E+01	 2.046E+01	 3.454E+01	 4.597E-02	-2.461E-02	-3.985E-02	 7.632E-02	-2.595E+01	 2.087E-01	-1.291E+01	 7.939E+00	-1.531E+00	 6.325E+02	 1.207E+03	 1.102E+01	 7.684E-01	 1.375E+00	 1.102E+01	 7.684E-01	 1.375E+00	-1.308E+00	-7.746E+01	-1.420E-01
   10.5600	 1.039E+01	-6.000E+00	 0.000E+00	 1.976E+02	-4.532E-01	-3.372E+00	 3.391E+01	 1.402E-01	-2.584E-02	 3.644E+01	 2.115E+01	 3.369E+01	 4.601E-02	-2.481E-02	 4.884E-02	 5.485E-02	-2.594E+01	-3.140E-02	-1.054E+01	 7.566E+00	-1.958E+00	 6.404E+02	 1.206E+03	 1.106E+01	 7.462E-01	 1.235E+00	 1.106E+01	 7.462E-01	 1.235E+00	-1.322E+00	-7.752E+01	-1.290E-01
   10.5800	 1.039E+01	-6.000E+00	 0.000E+00	 2.041E+02	-5.162E-01	-3.009E+00	 1.004E+01	 1.434E-01	-2.684E-02	 3.821E+01	 2.242E+01	 3.504E+01	 4.607E-02	-2.500E-02	 4.906E-02	 4.848E-02	-2.595E+01	-2.075E-01	-7.357E+00	 7.763E+00	-2.201E+00	 6.442E+02	 1.198E+03	 1.112E+01	 7.143E-01	 1.102E+00	 1.112E+01	 7.143E-01	 1.102E+00	-1.073E+00	-7.755E+01	-1.268E-01
   10.6000	 1.039E+01	-6.000E+00	 0.000E+00	 2.106E+02	-5.744E-01	-2.804E+00	 1.017E+01	 1.500E-01	-2.837E-02	 3.771E+01	 2.500E+01	 3.700E+01	 4.614E-02	-2.516E-02	-2.880E-02	 8.987E-02	-2.595E+01	-3.475E-01	-7.269E+00	 8.303E+00	-2.558E+00	 6.438E+02	 1.188E+03	 1.119E+01	 6.730E-01	 1.003E+00	 1.119E+01	 6.730E-01	 1.003E+00	-7.123E-01	-7.754E+01	-1.273E-01
   10.6200	 1.039E+01	-6.000E+00	 0.000E+00	 2.171E+02	-6.288E-01	-2.670E+00	 2.332E+00	 1.576E-01	-3.016E-02	 3.627E+01	 2.807E+01	 3.787E+01	 4.620E-02	-2.529E-02	-1.009E-01	 1.526E-01	-2.596E+01	-5.179E-01	-1.002E+01	 9.153E+00	-2.955E+00	 6.421E+02	 1.186E+03	 1.126E+01	 6.228E-01	 9.395E-01	 1.126E+01	 6.228E-01	 9.395E-01	-4.261E-01	-7.752E+01	-1.264E-01
   10.6400	 1.039E+01	-6.000E+00	 0.000E+00	 2.236E+02	-6.822E-01	-2.677E+00	-1.108E+00	 1.628E-01	-3.183E-02	 3.573E+01	 3.086E+01	 3.738E+01	 4.622E-02	-2.536E-02	-8.565E-02	 1.789E-01	-2.597E+01	-7.455E-01	-1.238E+01	 1.027E+01	-3.168E+00	 6.423E+02	 1.193E+03	 1.134E+01	 5.640E-01	 8.912E-01	 1.134E+01	 5.640E-01	 8.912E-01	-2.843E-01	-7.752E+01	-1.250E-01
   10.6600	 1.039E+01	-6.000E+00	 0.000E+00	 2.301E+02	-7.356E-01	-2.641E+00	 5.886E+00	 1.641E-01	-3.309E-02	 3.666E+01	 3.287E+01	 3.644E+01	 4.621E-02	-2.536E-02	 4.274E-03	 1.471E-01	-2.599E+01	-9.917E-01	-1.162E+01	 1.133E+01	-3.090E+00	 6.452E+02	 1.204E+03	 1.142E+01	 4.972E-01	 8.422E-01	 1.142E+01	 4.972E-01	 8.422E-01	-2.134E-01	-7.755E+01	-1.255E-01
   10.6800	 1.039E+01	-6.000E+00	 0.000E+00	 2.366E+02	-7.866E-01	-2.420E+00	 1.631E+01	 1.630E-01	-3.386E-02	 3.825E+01	 3.399E+01	 3.608E+01	 4.621E-02	-2.530E-02	 8.384E-02	 8.554E-02	-2.601E+01	-1.188E+00	-7.588E+00	 1.207E+01	-2.757E+00	 6.475E+02	 1.210E+03	 1.151E+01	 4.233E-01	 7.938E-01	 1.151E+01	 4.233E-01	 7.938E-01	-1.263E-01	-7.760E+01	-1.289E-01
   10.7000	 1.039E+01	-6.000E+00	 0.000E+00	 2.432E+02	-8.310E-01	-1.990E+00	 2.656E+01	 1.620E-01	-3.424E-02	 3.927E+01	 3.457E+01	 3.651E+01	 4.623E-02	-2.520E-02	 8.518E-02	 4.157E-02	-2.604E+01	-1.288E+00	-2.408E+00	 1.248E+01	-2.309E+00	 6.455E+02	 1.207E+03	 1.160E+01	 3.434E-01	 7.555E-01	 1.160E+01	 3.434E-01	 7.555E-01	-5.029E-03	-7.763E+01	-1.331E-01
   10.7200	 1.039E+01	-6.000E+00	 0.000E+00	 2.497E+02	-8.649E-01	-1.375E+00	 3.430E+01	 1.625E-01	-3.445E-02	 3.925E+01	 3.503E+01	 3.717E+01	 4.629E-02	-2.509E-02	 1.685E-02	 3.860E-02	-2.606E+01	-1.292E+00	 1.641E+00	 1.274E+01	-1.880E+00	 6.380E+02	 1.198E+03	 1.170E+01	 2.588E-01	 7.332E-01	 1.170E+01	 2.588E-01	 7.332E-01	 1.139E-01	-7.764E+01	-1.343E-01
   10.7400	 1.039E+01	-6.000E+00	 0.000E+00	 2.562E+02	-8.852E-01	-6.491E-01	 3.745E+01	 1.646E-01	-3.473E-02	 3.870E+01	 3.562E+01	 3.744E+01	 4.635E-02	-2.496E-02	-5.570E-02	 5.978E-02	-2.609E+01	-1.234E+00	 3.879E+00	 1.300E+01	-1.492E+00	 6.275E+02	 1.191E+03	 1.179E+01	 1.706E-01	 7.243E-01	 1.179E+01	 1.706E-01	 7.243E-01	 1.970E-01	-7.763E+01	-1.301E-01
   10.7600	 1.039E+01	-6.000E+00	 0.000E+00	 2.627E+02	-8.907E-01	 9.809E-02	 3.687E+01	 1.670E-01	-3.517E-02	 3.833E+01	 3.635E+01	 3.722E+01	 4.639E-02	-2.481E-02	-7.566E-02	 6.939E-02	-2.611E+01	-1.142E+00	 5.295E+00	 1.331E+01	-1.079E+00	 6.181E+02	 1.192E+03	 1.188E+01	 8.012E-02	 7.223E-01	 1.188E+01	 8.012E-02	 7.223E-01	 2.520E-01	-7.762E+01	-1.208E-01
   10.7800	 1.039E+01	-6.000E+00	 0.000E+00	 2.692E+02	-8.815E-01	 8.178E-01	 3.502E+01	 1.686E-01	-3.564E-02	 3.837E+01	 3.695E+01	 3.685E+01	 4.640E-02	-2.463E-02	-4.110E-02	 4.671E-02	-2.613E+01	-1.019E+00	 7.166E+00	 1.356E+01	-5.900E-01	 6.125E+02	 1.199E+03	 1.197E+01	-1.164E-02	 7.245E-01	 1.197E+01	-1.164E-02	 7.245E-01	 3.180E-01	-7.763E+01	-1.087E-01
   10.8000	 1.039E+01	-6.000E+00	 0.000E+00	 2.757E+02	-8.583E-01	 1.495E+00	 3.313E+01	 1.689E-01	-3.586E-02	 3.850E+01	 3.703E+01	 3.667E+01	 4.640E-02	-2.444E-02	 2.466E-03	 1.165E-03	-2.615E+01	-8.507E-01	 9.772E+00	 1.356E+01	-4.511E-02	 6.100E+02	 1.209E+03	 1.205E+01	-1.036E-01	 7.342E-01	 1.205E+01	-1.036E-01	 7.342E-01	 4.267E-01	-7.766E+01	-9.654E-02
   10.8200	 1.039E+01	-6.000E+00	 0.000E+00	 2.822E+02	-8.218E-01	 2.149E+00	 3.220E+01	 1.678E-01	-3.555E-02	 3.832E+01	 3.629E+01	 3.673E+01	 4.639E-02	-2.424E-02	 1.238E-02	-4.173E-02	-2.617E+01	-6.298E-01	 1.217E+01	 1.325E+01	 4.611E-01	 6.078E+02	 1.213E+03	 1.213E+01	-1.947E-01	 7.579E-01	 1.213E+01	-1.947E-01	 7.579E-01	 5.750E-01	-7.768E+01	-8.615E-02
   10.8400	 1.039E+01	-6.000E+00	 0.000E+00	 2.888E+02	-7.725E-01	 2.774E+00	 3.023E+01	 1.655E-01	-3.461E-02	 3.772E+01	 3.476E+01	 3.681E+01	 4.639E-02	-2.406E-02	-2.199E-02	-6.172E-02	-2.618E+01	-3.735E-01	 1.316E+01	 1.267E+01	 8.539E-01	 6.037E+02	 1.212E+03	 1.221E+01	-2.842E-01	 7.993E-01	 1.221E+01	-2.842E-01	 7.993E-01	 7.307E-01	-7.770E+01	-7.830E-02
   10.8600	 1.039E+01	-6.000E+00	 0.000E+00	 2.953E+02	-7.111E-01	 3.360E+00	 2.828E+01	 1.620E-01	-3.327E-02	 3.696E+01	 3.281E+01	 3.673E+01	 4.639E-02	-2.390E-02	-7.271E-02	-5.962E-02	-2.618E+01	-1.154E-01	 1.239E+01	 1.201E+01	 1.119E+00	 5.974E+02	 1.207E+03	 1.228E+01	-3.709E-01	 8.572E-01	 1.228E+01	-3.709E-01	 8.572E-01	 8.629E-01	-7.769E+01	-7.284E-02
   10.8800	 1.039E+01	-6.000E+00	 0.000E+00	 3.018E+02	-6.385E-01	 3.899E+00	 2.545E+01	 1.578E-01	-3.189E-02	 3.635E+01	 3.092E+01	 3.650E+01	 4.635E-02	-2.377E-02	-1.054E-01	-5.054E-02	-2.618E+01	 1.144E-01	 1.050E+01	 1.142E+01	 1.296E+00	 5.910E+02	 1.202E+03	 1.234E+01	-4.540E-01	 9.280E-01	 1.234E+01	-4.540E-01	 9.280E-01	 9.601E-01	-7.766E+01	-6.923E-02
   10.9000	 1.039E+01	-6.000E+00	 0.000E+00	 3.083E+02	-5.556E-01	 4.371E+00	 2.164E+01	 1.534E-01	-3.075E-02	 3.601E+01	 2.940E+01	 3.630E+01	 4.627E-02	-2.365E-02	-1.055E-01	-4.938E-02	-2.618E+01	 3.047E-01	 8.603E+00	 1.092E+01	 1.440E+00	 5.864E+02	 1.200E+03	 1.239E+01	-5.324E-01	 1.008E+00	 1.239E+01	-5.324E-01	 1.008E+00	 1.027E+00	-7.763E+01	-6.710E-02
   10.9200	 1.039E+01	-6.000E+00	 0.000E+00	 3.148E+02	-4.642E-01	 4.757E+00	 1.664E+01	 1.499E-01	-2.990E-02	 3.584E+01	 2.813E+01	 3.624E+01	 4.615E-02	-2.356E-02	-8.401E-02	-5.931E-02	-2.617E+01	 4.622E-01	 7.228E+00	 1.047E+01	 1.556E+00	 5.845E+02	 1.200E+03	 1.244E+01	-6.050E-01	 1.096E+00	 1.244E+01	-6.050E-01	 1.096E+00	 1.074E+00	-7.760E+01	-6.656E-02
   10.9400	 1.039E+01	-6.000E+00	 0.000E+00	 3.213E+02	-3.661E-01	 5.026E+00	 1.005E+01	 1.479E-01	-2.920E-02	 3.572E+01	 2.680E+01	 3.634E+01	 4.599E-02	-2.349E-02	-6.157E-02	-7.300E-02	-2.616E+01	 5.956E-01	 6.102E+00	 9.995E+00	 1.605E+00	 5.848E+02	 1.199E+03	 1.247E+01	-6.707E-01	 1.192E+00	 1.247E+01	-6.707E-01	 1.192E+00	 1.105E+00	-7.758E+01	-6.826E-02
   10.9600	 1.039E+01	-6.000E+00	 0.000E+00	 3.279E+02	-2.641E-01	 5.152E+00	 2.568E+00	 1.477E-01	-2.846E-02	 3.563E+01	 2.514E+01	 3.649E+01	 4.582E-02	-2.345E-02	-5.139E-02	-8.036E-02	-2.615E+01	 7.038E-01	 4.618E+00	 9.449E+00	 1.539E+00	 5.859E+02	 1.195E+03	 1.250E+01	-7.287E-01	 1.294E+00	 1.250E+01	-7.287E-01	 1.294E+00	 1.121E+00	-7.757E+01	-7.281E-02
   10.9800	 1.039E+01	-6.000E+00	 0.000E+00	 3.344E+02	-1.611E-01	 5.127E+00	-5.017E+00	 1.487E-01	-2.760E-02	 3.566E+01	 2.313E+01	 3.657E+01	 4.562E-02	-2.344E-02	-5.156E-02	-7.633E-02	-2.613E+01	 7.763E-01	 2.549E+00	 8.867E+00	 1.344E+00	 5.868E+02	 1.188E+03	 1.252E+01	-7.779E-01	 1.401E+00	 1.252E+01	-7.779E-01	 1.401E+00	 1.124E+00	-7.755E+01	-8.017E-02
   11.0000	 1.039E+01	-6.000E+00	 0.000E+00	 3.409E+02	-6.001E-02	 4.957E+00	-1.128E+01	 1.503E-01	-2.670E-02	 3.587E+01	 2.099E+01	 3.658E+01	 4.539E-02	-2.346E-02	-5.184E-02	-6.256E-02	-2.612E+01	 8.046E-01	 2.955E-01	 8.303E+00	 1.045E+00	 5.875E+02	 1.178E+03	 1.253E+01	-8.173E-01	 1.512E+00	 1.253E+01	-8.173E-01	 1.512E+00	 1.118E+00	-7.754E+01	-8.942E-02
   11.0200	 1.039E+01	-6.000E+00	 0.000E+00	 3.474E+02	 3.671E-02	 4.708E+00	-1.255E+01	 1.518E-01	-2.587E-02	 3.615E+01	 1.889E+01	 3.654E+01	 4.515E-02	-2.351E-02	-5.198E-02	-3.974E-02	-2.610E+01	 7.889E-01	-1.866E+00	 7.824E+00	 6.625E-01	 5.884E+02	 1.169E+03	 1.254E+01	-8.460E-01	 1.627E+00	 1.254E+01	-8.460E-01	 1.627E+00	 1.107E+00	-7.752E+01	-9.927E-02
   11.0400	 1.039E+01	-6.000E+00	 0.000E+00	 3.539E+02	 1.291E-01	 4.603E+00	 4.661E+00	 1.535E-01	-2.515E-02	 3.567E+01	 1.663E+01	 3.638E+01	 4.489E-02	-2.357E-02	-8.146E-02	 4.161E-03	-2.608E+01	 7.237E-01	-5.013E+00	 7.580E+00	 1.527E-01	 5.903E+02	 1.160E+03	 1.253E+01	-8.634E-01	 1.745E+00	 1.253E+01	-8.634E-01	 1.745E+00	 1.092E+00	-7.751E+01	-1.083E-01
   11.0600	 1.039E+01	-6.000E+00	 0.000E+00	 4.287E-01	 2.217E-01	 4.662E+00	 8.241E+00	 1.565E-01	-2.432E-02	 3.428E+01	 1.442E+01	 3.643E+01	 4.460E-02	-2.363E-02	-8.507E-02	 3.384E-02	-2.607E+01	 5.912E-01	-7.979E+00	 7.616E+00	-4.119E-01	 5.942E+02	 1.153E+03	 1.252E+01	-8.688E-01	 1.866E+00	 1.252E+01	-8.688E-01	 1.866E+00	 1.048E+00	-7.749E+01	-1.153E-01
   11.0800	 1.039E+01	-6.000E+00	 0.000E+00	 6.943E+00	 3.181E-01	 4.951E+00	-4.384E+00	 1.582E-01	-2.238E-02	 3.237E+01	 1.114E+01	 3.571E+01	 4.427E-02	-2.368E-02	-6.405E-02	 5.726E-02	-2.606E+01	 3.929E-01	-1.205E+01	 8.005E+00	-1.095E+00	 5.991E+02	 1.148E+03	 1.249E+01	-8.617E-01	 1.983E+00	 1.249E+01	-8.617E-01	 1.983E+00	 9.708E-01	-7.747E+01	-1.188E-01
   11.1000	 1.039E+01	-6.000E+00	 0.000E+00	 1.346E+01	 4.097E-01	 3.994E+00	-6.325E+01	 1.542E-01	-2.035E-02	 3.496E+01	 8.086E+00	 3.412E+01	 4.392E-02	-2.370E-02	 9.064E-02	 2.111E-02	-2.606E+01	 1.390E-01	-1.243E+01	 7.759E+00	-1.737E+00	 6.038E+02	 1.142E+03	 1.247E+01	-8.420E-01	 2.083E+00	 1.247E+01	-8.420E-01	 2.083E+00	 8.567E-01	-7.745E+01	-1.243E-01
   11.1200	 1.039E+01	-6.000E+00	 0.000E+00	 1.997E+01	 4.798E-01	 3.170E+00	-2.005E+01	 1.440E-01	-1.969E-02	 3.722E+01	 7.455E+00	 3.408E+01	 4.361E-02	-2.372E-02	 1.601E-01	-4.692E-03	-2.606E+01	-7.974E-02	-9.172E+00	 7.573E+00	-2.052E+00	 6.055E+02	 1.128E+03	 1.243E+01	-8.099E-01	 2.166E+00	 1.243E+01	-8.099E-01	 2.166E+00	 8.815E-01	-7.746E+01	-1.305E-01
   11.1400	 1.039E+01	-6.000E+00	 0.000E+00	 2.648E+01	 5.404E-01	 2.919E+00	-1.062E+01	 1.355E-01	-1.955E-02	 3.792E+01	 7.319E+00	 3.589E+01	 4.336E-02	-2.374E-02	 1.378E-01	-8.755E-04	-2.606E+01	-2.343E-01	-6.799E+00	 7.920E+00	-2.320E+00	 6.034E+02	 1.110E+03	 1.239E+01	-7.662E-01	 2.266E+00	 1.239E+01	-7.662E-01	 2.266E+00	 9.940E-01	-7.750E+01	-1.362E-01
   11.1600	 1.039E+01	-6.000E+00	 0.000E+00	 3.299E+01	 5.966E-01	 2.708E+00	-8.586E+00	 1.326E-01	-1.883E-02	 3.669E+01	 5.968E+00	 3.759E+01	 4.316E-02	-2.376E-02	 5.857E-02	 5.053E-02	-2.606E+01	-3.763E-01	-7.964E+00	 8.553E+00	-2.718E+00	 5.986E+02	 1.095E+03	 1.233E+01	-7.120E-01	 2.383E+00	 1.233E+01	-7.120E-01	 2.383E+00	 9.982E-01	-7.752E+01	-1.416E-01
   11.1800	 1.039E+01	-6.000E+00	 0.000E+00	 3.951E+01	 6.496E-01	 2.626E+00	-5.404E-02	 1.343E-01	-1.736E-02	 3.518E+01	 3.190E+00	 3.791E+01	 4.298E-02	-2.376E-02	 1.966E-02	 1.027E-01	-2.607E+01	-5.658E-01	-1.100E+01	 9.518E+00	-3.072E+00	 5.945E+02	 1.091E+03	 1.227E+01	-6.481E-01	 2.493E+00	 1.227E+01	-6.481E-01	 2.493E+00	 8.365E-01	-7.752E+01	-1.449E-01
   11.2000	 1.039E+01	-6.000E+00	 0.000E+00	 4.602E+01	 7.023E-01	 2.636E+00	-9.103E-01	 1.384E-01	-1.580E-02	 3.509E+01	-8.350E-02	 3.710E+01	 4.282E-02	-2.372E-02	 7.391E-02	 1.053E-01	-2.609E+01	-8.054E-01	-1.246E+01	 1.065E+01	-3.187E+00	 5.939E+02	 1.096E+03	 1.221E+01	-5.757E-01	 2.573E+00	 1.221E+01	-5.757E-01	 2.573E+00	 5.868E-01	-7.749E+01	-1.458E-01
   11.2200	 1.039E+01	-6.000E+00	 0.000E+00	 5.254E+01	 7.543E-01	 2.536E+00	-9.788E+00	 1.427E-01	-1.492E-02	 3.646E+01	-2.459E+00	 3.626E+01	 4.269E-02	-2.363E-02	 1.740E-01	 5.605E-02	-2.611E+01	-1.040E+00	-1.039E+01	 1.161E+01	-3.008E+00	 5.959E+02	 1.104E+03	 1.214E+01	-4.961E-01	 2.621E+00	 1.214E+01	-4.961E-01	 2.621E+00	 3.665E-01	-7.745E+01	-1.454E-01
   11.2400	 1.039E+01	-6.000E+00	 0.000E+00	 5.905E+01	 8.024E-01	 2.235E+00	-2.028E+01	 1.467E-01	-1.495E-02	 3.807E+01	-3.331E+00	 3.621E+01	 4.262E-02	-2.353E-02	 2.306E-01	-4.618E-03	-2.613E+01	-1.203E+00	-5.665E+00	 1.222E+01	-2.617E+00	 5.967E+02	 1.106E+03	 1.207E+01	-4.108E-01	 2.648E+00	 1.207E+01	-4.108E-01	 2.648E+00	 2.399E-01	-7.742E+01	-1.451E-01
   11.2600	 1.039E+01	-6.000E+00	 0.000E+00	 6.557E+01	 8.423E-01	 1.731E+00	-2.977E+01	 1.503E-01	-1.548E-02	 3.887E+01	-3.255E+00	 3.679E+01	 4.265E-02	-2.343E-02	 2.004E-01	-3.348E-02	-2.615E+01	-1.265E+00	-7.163E-01	 1.255E+01	-2.167E+00	 5.931E+02	 1.100E+03	 1.200E+01	-3.216E-01	 2.670E+00	 1.200E+01	-3.216E-01	 2.670E+00	 1.762E-01	-7.741E+01	-1.464E-01
   11.2800	 1.039E+01	-6.000E+00	 0.000E+00	 7.208E+01	 8.705E-01	 1.068E+00	-3.580E+01	 1.531E-01	-1.585E-02	 3.876E+01	-3.227E+00	 3.735E+01	 4.275E-02	-2.333E-02	 1.187E-01	-2.205E-02	-2.618E+01	-1.243E+00	 2.614E+00	 1.279E+01	-1.757E+00	 5.853E+02	 1.093E+03	 1.192E+01	-2.302E-01	 2.691E+00	 1.192E+01	-2.302E-01	 2.691E+00	 9.779E-02	-7.740E+01	-1.503E-01
   11.3000	 1.039E+01	-6.000E+00	 0.000E+00	 7.860E+01	 8.846E-01	 3.312E-01	-3.716E+01	 1.544E-01	-1.567E-02	 3.836E+01	-3.817E+00	 3.741E+01	 4.290E-02	-2.325E-02	 5.586E-02	 1.950E-03	-2.620E+01	-1.172E+00	 4.347E+00	 1.308E+01	-1.368E+00	 5.767E+02	 1.092E+03	 1.184E+01	-1.380E-01	 2.703E+00	 1.184E+01	-1.380E-01	 2.703E+00	-4.207E-02	-7.740E+01	-1.573E-01
   11.3200	 1.039E+01	-6.000E+00	 0.000E+00	 8.511E+01	 8.838E-01	-4.002E-01	-3.573E+01	 1.535E-01	-1.504E-02	 3.823E+01	-4.837E+00	 3.707E+01	 4.308E-02	-2.317E-02	 5.159E-02	 4.534E-03	-2.623E+01	-1.071E+00	 5.780E+00	 1.339E+01	-9.269E-01	 5.713E+02	 1.101E+03	 1.176E+01	-4.635E-02	 2.698E+00	 1.176E+01	-4.635E-02	 2.698E+00	-2.311E-01	-7.739E+01	-1.670E-01
   11.3400	 1.039E+01	-6.000E+00	 0.000E+00	 9.163E+01	 8.688E-01	-1.093E+00	-3.341E+01	 1.510E-01	-1.440E-02	 3.840E+01	-5.599E+00	 3.672E+01	 4.328E-02	-2.308E-02	 8.679E-02	-2.430E-02	-2.625E+01	-9.353E-01	 7.934E+00	 1.357E+01	-4.056E-01	 5.705E+02	 1.117E+03	 1.167E+01	 4.351E-02	 2.674E+00	 1.167E+01	 4.351E-02	 2.674E+00	-4.272E-01	-7.737E+01	-1.780E-01
   11.3600	 1.039E+01	-6.000E+00	 0.000E+00	 9.814E+01	 8.404E-01	-1.747E+00	-3.217E+01	 1.482E-01	-1.415E-02	 3.853E+01	-5.486E+00	 3.663E+01	 4.351E-02	-2.301E-02	 1.118E-01	-6.699E-02	-2.626E+01	-7.496E-01	 1.063E+01	 1.346E+01	 1.444E-01	 5.724E+02	 1.132E+03	 1.159E+01	 1.306E-01	 2.633E+00	 1.159E+01	 1.306E-01	 2.633E+00	-6.012E-01	-7.734E+01	-1.885E-01
   11.3800	 1.039E+01	-6.000E+00	 0.000E+00	 1.047E+02	 7.991E-01	-2.379E+00	-3.088E+01	 1.461E-01	-1.447E-02	 3.832E+01	-4.360E+00	 3.672E+01	 4.378E-02	-2.296E-02	 9.309E-02	-9.709E-02	-2.628E+01	-5.146E-01	 1.265E+01	 1.304E+01	 6.220E-01	 5.743E+02	 1.143E+03	 1.151E+01	 2.143E-01	 2.580E+00	 1.151E+01	 2.143E-01	 2.580E+00	-7.520E-01	-7.732E+01	-1.966E-01
   11.4000	 1.039E+01	-6.000E+00	 0.000E+00	 1.112E+02	 7.455E-01	-2.975E+00	-2.883E+01	 1.454E-01	-1.523E-02	 3.782E+01	-2.604E+00	 3.675E+01	 4.409E-02	-2.295E-02	 3.549E-02	-1.012E-01	-2.628E+01	-2.551E-01	 1.301E+01	 1.242E+01	 9.743E-01	 5.743E+02	 1.150E+03	 1.143E+01	 2.937E-01	 2.516E+00	 1.143E+01	 2.937E-01	 2.516E+00	-8.887E-01	-7.732E+01	-2.011E-01
   11.4200	 1.039E+01	-6.000E+00	 0.000E+00	 1.177E+02	 6.803E-01	-3.532E+00	-2.672E+01	 1.458E-01	-1.614E-02	 3.734E+01	-7.828E-01	 3.659E+01	 4.442E-02	-2.298E-02	-2.592E-02	-8.724E-02	-2.629E+01	-5.396E-03	 1.175E+01	 1.176E+01	 1.207E+00	 5.731E+02	 1.155E+03	 1.135E+01	 3.683E-01	 2.440E+00	 1.135E+01	 3.683E-01	 2.440E+00	-1.011E+00	-7.733E+01	-2.024E-01
   11.4400	 1.039E+01	-6.000E+00	 0.000E+00	 1.242E+02	 6.045E-01	-4.037E+00	-2.359E+01	 1.467E-01	-1.695E-02	 3.709E+01	 7.465E-01	 3.634E+01	 4.474E-02	-2.305E-02	-6.160E-02	-7.211E-02	-2.628E+01	 2.100E-01	 9.775E+00	 1.120E+01	 1.373E+00	 5.728E+02	 1.162E+03	 1.128E+01	 4.375E-01	 2.354E+00	 1.128E+01	 4.375E-01	 2.354E+00	-1.101E+00	-7.737E+01	-2.018E-01
   11.4600	 1.039E+01	-6.000E+00	 0.000E+00	 1.307E+02	 5.193E-01	-4.470E+00	-1.951E+01	 1.475E-01	-1.760E-02	 3.705E+01	 1.992E+00	 3.618E+01	 4.503E-02	-2.315E-02	-6.685E-02	-6.734E-02	-2.628E+01	 3.877E-01	 8.084E+00	 1.073E+01	 1.512E+00	 5.751E+02	 1.173E+03	 1.121E+01	 5.008E-01	 2.258E+00	 1.121E+01	 5.008E-01	 2.258E+00	-1.142E+00	-7.741E+01	-2.005E-01
   11.4800	 1.039E+01	-6.000E+00	 0.000E+00	 1.372E+02	 4.264E-01	-4.807E+00	-1.399E+01	 1.479E-01	-1.817E-02	 3.705E+01	 3.237E+00	 3.618E+01	 4.529E-02	-2.327E-02	-5.799E-02	-7.187E-02	-2.627E+01	 5.369E-01	 6.894E+00	 1.027E+01	 1.612E+00	 5.803E+02	 1.184E+03	 1.115E+01	 5.576E-01	 2.159E+00	 1.115E+01	 5.576E-01	 2.159E+00	-1.133E+00	-7.744E+01	-1.987E-01
   11.5000	 1.039E+01	-6.000E+00	 0.000E+00	 1.438E+02	 3.279E-01	-5.020E+00	-7.133E+00	 1.479E-01	-1.881E-02	 3.696E+01	 4.768E+00	 3.631E+01	 4.554E-02	-2.342E-02	-5.479E-02	-7.618E-02	-2.626E+01	 6.637E-01	 5.733E+00	 9.764E+00	 1.623E+00	 5.871E+02	 1.194E+03	 1.110E+01	 6.075E-01	 2.061E+00	 1.110E+01	 6.075E-01	 2.061E+00	-1.092E+00	-7.747E+01	-1.956E-01
   11.5200	 1.039E+01	-6.000E+00	 0.000E+00	 1.503E+02	 2.265E-01	-5.089E+00	 3.404E-01	 1.476E-01	-1.962E-02	 3.682E+01	 6.674E+00	 3.645E+01	 4.576E-02	-2.360E-02	-6.453E-02	-7.153E-02	-2.624E+01	 7.624E-01	 4.026E+00	 9.194E+00	 1.505E+00	 5.943E+02	 1.200E+03	 1.105E+01	 6.502E-01	 1.964E+00	 1.105E+01	 6.502E-01	 1.964E+00	-1.044E+00	-7.749E+01	-1.905E-01
   11.5400	 1.039E+01	-6.000E+00	 0.000E+00	 1.568E+02	 1.253E-01	-5.008E+00	 7.683E+00	 1.472E-01	-2.057E-02	 3.672E+01	 8.802E+00	 3.649E+01	 4.595E-02	-2.381E-02	-8.084E-02	-5.558E-02	-2.623E+01	 8.212E-01	 1.805E+00	 8.610E+00	 1.264E+00	 6.010E+02	 1.204E+03	 1.101E+01	 6.852E-01	 1.867E+00	 1.101E+01	 6.852E-01	 1.867E+00	-1.006E+00	-7.750E+01	-1.833E-01
   11.5600	 1.039E+01	-6.000E+00	 0.000E+00	 1.633E+02	 2.710E-02	-4.799E+00	 1.219E+01	 1.471E-01	-2.159E-02	 3.675E+01	 1.093E+01	 3.648E+01	 4.611E-02	-2.404E-02	-9.496E-02	-3.086E-02	-2.621E+01	 8.346E-01	-4.385E-01	 8.067E+00	 9.284E-01	 6.072E+02	 1.205E+03	 1.099E+01	 7.122E-01	 1.770E+00	 1.099E+01	 7.122E-01	 1.770E+00	-9.789E-01	-7.752E+01	-1.750E-01