
FAST Summary File

Predictions were generated on 22-Feb-2018 at 12:33:29 using OpenFAST, compiled as a 64-bit application using double precision at commit v1.0.0-54-g1c3f9ad0-dirty
  compiled with
    NWTC Subroutine Library
    ElastoDyn
    BeamDyn [not called]
    InflowWind
    AeroDyn14 [not called]
    AeroDyn
    ServoDyn
    HydroDyn [not called]
    SubDyn [not called]
    ExtPtfm_MCKF [not called]
    MAP [not called]
    FEAMooring [not called]
    MoorDyn [not called]
    OrcaFlexInterface [not called]
    IceFloe [not called]
    IceDyn [not called]


Modeling a land-based turbine
Description from the FAST input file: 
  FAST Certification Test #05: AWT-27CR2 with many DOFs with startup and shutdown and FF turbulence.

Interpolation order for input/output time histories: 2 (quadratic)
Number of correction iterations:  0


   Requested Time Steps  
  -------------------------------------------------
  Component          Time Step (s)    Subcycles (-)
  -----------------  ---------------  -------------
  FAST (glue code)    4.000E-03
  InflowWind          4.000E-03              1
  ElastoDyn           4.000E-03              1
  AeroDyn             4.000E-03              1
  ServoDyn            4.000E-03              1
  FAST output files   4.000E-02             10^-1


   Requested Channels in FAST Output File(s)  
  --------------------------------------------
  Number  Name        Units       Generated by
  ------  ----------  ----------  ------------
       1  Time        (s)         OpenFAST
       2  Wind1VelX   (m/s)       InflowWind
       3  Wind1VelY   (m/s)       InflowWind
       4  Wind1VelZ   (m/s)       InflowWind
       5  TipDxb1     (m)         ElastoDyn
       6  TipDyb1     (m)         ElastoDyn
       7  TipRDxb1    (deg)       ElastoDyn
       8  TipRDyb1    (deg)       ElastoDyn
       9  Spn3ALxb1   (m/s^2)     ElastoDyn
      10  Spn3ALyb1   (m/s^2)     ElastoDyn
      11  RotSpeed    (rpm)       ElastoDyn
      12  LSSGagV     (rpm)       ElastoDyn
      13  HSShftV     (rpm)       ElastoDyn
      14  RootFxb2    (kN)        ElastoDyn
      15  RootFyb2    (kN)        ElastoDyn
      16  Spn2MLxb1   (kN-m)      ElastoDyn
      17  Spn2MLyb1   (kN-m)      ElastoDyn
      18  LSShftTq    (kN-m)      ElastoDyn
      19  HSShftTq    (kN-m)      ElastoDyn
      20  LSShftPwr   (kW)        ElastoDyn
      21  HSShftPwr   (kW)        ElastoDyn
      22  YawBrFxn    (kN)        ElastoDyn
      23  YawBrFyn    (kN)        ElastoDyn
      24  YawBrFzn    (kN)        ElastoDyn
      25  GenTq       (kN-m)      ServoDyn
      26  GenPwr      (kW)        ServoDyn
