
Linearized model: Predictions were generated on 20-Feb-2024 at 14:17:34 using OpenFAST, compiled on Feb 20 2024 at 13:58:53 as a 64-bit application using double precision at commit v3.5.2-957-g05b14cf4
 linked with  NWTC Subroutine Library; ElastoDyn; BeamDyn

Description from the FAST input file: Free-free beam test case

Simulation information:
   Simulation time:                     0.0000 s
   Rotor Speed:                         0.0000 rad/s
   Azimuth:                             0.0000 rad
   Wind Speed:                          0.0000 m/s
   Number of continuous states:       108
   Number of discrete states:           0
   Number of constraint states:         0
   Number of inputs:                  172
   Number of outputs:                 339
   Jacobians included in this file?   Yes

Order of continuous states:
   Row/Column Operating Point                                          Rotating Frame? Derivative Order Description
   ---------- ---------------                                          --------------- ---------------- -----------
          1    0.000000000E+000                                               F               2         ED Platform horizontal surge translation DOF (internal DOF index = DOF_Sg), m
          2    0.000000000E+000                                               F               2         ED Platform horizontal sway translation DOF (internal DOF index = DOF_Sw), m
          3    0.000000000E+000                                               F               2         ED Platform vertical heave translation DOF (internal DOF index = DOF_Hv), m
          4    0.000000000E+000                                               F               2         ED Platform roll tilt rotation DOF (internal DOF index = DOF_R), rad
          5    0.000000000E+000                                               F               2         ED Platform pitch tilt rotation DOF (internal DOF index = DOF_P), rad
          6    0.000000000E+000                                               F               2         ED Platform yaw rotation DOF (internal DOF index = DOF_Y), rad
          7    0.000000000E+000                                               F               2         ED First time derivative of Platform horizontal surge translation DOF (internal DOF index = DOF_Sg), m/s
          8    0.000000000E+000                                               F               2         ED First time derivative of Platform horizontal sway translation DOF (internal DOF index = DOF_Sw), m/s
          9    0.000000000E+000                                               F               2         ED First time derivative of Platform vertical heave translation DOF (internal DOF index = DOF_Hv), m/s
         10    0.000000000E+000                                               F               2         ED First time derivative of Platform roll tilt rotation DOF (internal DOF index = DOF_R), rad/s
         11    0.000000000E+000                                               F               2         ED First time derivative of Platform pitch tilt rotation DOF (internal DOF index = DOF_P), rad/s
         12    0.000000000E+000                                               F               2         ED First time derivative of Platform yaw rotation DOF (internal DOF index = DOF_Y), rad/s
         13    0.000000000E+000                                               T               2         BD_1 finite element node 2 (number of elements = 1; element order = 8) translational displacement in X, m
         14    0.000000000E+000                                               T               2         BD_1 finite element node 2 (number of elements = 1; element order = 8) translational displacement in Y, m
         15    0.000000000E+000                                               T               2         BD_1 finite element node 2 (number of elements = 1; element order = 8) translational displacement in Z, m
         16    0.000000000E+000                                               T               2         BD_1 finite element node 2 (number of elements = 1; element order = 8) rotational displacement in X, rad
         17    0.000000000E+000                                               T               2         BD_1 finite element node 2 (number of elements = 1; element order = 8) rotational displacement in Y, rad
         18    0.000000000E+000                                               T               2         BD_1 finite element node 2 (number of elements = 1; element order = 8) rotational displacement in Z, rad
         19    0.000000000E+000                                               T               2         BD_1 finite element node 3 (number of elements = 1; element order = 8) translational displacement in X, m
         20    0.000000000E+000                                               T               2         BD_1 finite element node 3 (number of elements = 1; element order = 8) translational displacement in Y, m
         21    0.000000000E+000                                               T               2         BD_1 finite element node 3 (number of elements = 1; element order = 8) translational displacement in Z, m
         22    0.000000000E+000                                               T               2         BD_1 finite element node 3 (number of elements = 1; element order = 8) rotational displacement in X, rad
         23    0.000000000E+000                                               T               2         BD_1 finite element node 3 (number of elements = 1; element order = 8) rotational displacement in Y, rad
         24    0.000000000E+000                                               T               2         BD_1 finite element node 3 (number of elements = 1; element order = 8) rotational displacement in Z, rad
         25    0.000000000E+000                                               T               2         BD_1 finite element node 4 (number of elements = 1; element order = 8) translational displacement in X, m
         26    0.000000000E+000                                               T               2         BD_1 finite element node 4 (number of elements = 1; element order = 8) translational displacement in Y, m
         27    0.000000000E+000                                               T               2         BD_1 finite element node 4 (number of elements = 1; element order = 8) translational displacement in Z, m
         28    0.000000000E+000                                               T               2         BD_1 finite element node 4 (number of elements = 1; element order = 8) rotational displacement in X, rad
         29    0.000000000E+000                                               T               2         BD_1 finite element node 4 (number of elements = 1; element order = 8) rotational displacement in Y, rad
         30    0.000000000E+000                                               T               2         BD_1 finite element node 4 (number of elements = 1; element order = 8) rotational displacement in Z, rad
         31    0.000000000E+000                                               T               2         BD_1 finite element node 5 (number of elements = 1; element order = 8) translational displacement in X, m
         32    0.000000000E+000                                               T               2         BD_1 finite element node 5 (number of elements = 1; element order = 8) translational displacement in Y, m
         33    0.000000000E+000                                               T               2         BD_1 finite element node 5 (number of elements = 1; element order = 8) translational displacement in Z, m
         34    0.000000000E+000                                               T               2         BD_1 finite element node 5 (number of elements = 1; element order = 8) rotational displacement in X, rad
         35    0.000000000E+000                                               T               2         BD_1 finite element node 5 (number of elements = 1; element order = 8) rotational displacement in Y, rad
         36    0.000000000E+000                                               T               2         BD_1 finite element node 5 (number of elements = 1; element order = 8) rotational displacement in Z, rad
         37    0.000000000E+000                                               T               2         BD_1 finite element node 6 (number of elements = 1; element order = 8) translational displacement in X, m
         38    0.000000000E+000                                               T               2         BD_1 finite element node 6 (number of elements = 1; element order = 8) translational displacement in Y, m
         39    0.000000000E+000                                               T               2         BD_1 finite element node 6 (number of elements = 1; element order = 8) translational displacement in Z, m
         40    0.000000000E+000                                               T               2         BD_1 finite element node 6 (number of elements = 1; element order = 8) rotational displacement in X, rad
         41    0.000000000E+000                                               T               2         BD_1 finite element node 6 (number of elements = 1; element order = 8) rotational displacement in Y, rad
         42    0.000000000E+000                                               T               2         BD_1 finite element node 6 (number of elements = 1; element order = 8) rotational displacement in Z, rad
         43    0.000000000E+000                                               T               2         BD_1 finite element node 7 (number of elements = 1; element order = 8) translational displacement in X, m
         44    0.000000000E+000                                               T               2         BD_1 finite element node 7 (number of elements = 1; element order = 8) translational displacement in Y, m
         45    0.000000000E+000                                               T               2         BD_1 finite element node 7 (number of elements = 1; element order = 8) translational displacement in Z, m
         46    0.000000000E+000                                               T               2         BD_1 finite element node 7 (number of elements = 1; element order = 8) rotational displacement in X, rad
         47    0.000000000E+000                                               T               2         BD_1 finite element node 7 (number of elements = 1; element order = 8) rotational displacement in Y, rad
         48    0.000000000E+000                                               T               2         BD_1 finite element node 7 (number of elements = 1; element order = 8) rotational displacement in Z, rad
         49    0.000000000E+000                                               T               2         BD_1 finite element node 8 (number of elements = 1; element order = 8) translational displacement in X, m
         50    0.000000000E+000                                               T               2         BD_1 finite element node 8 (number of elements = 1; element order = 8) translational displacement in Y, m
         51    0.000000000E+000                                               T               2         BD_1 finite element node 8 (number of elements = 1; element order = 8) translational displacement in Z, m
         52    0.000000000E+000                                               T               2         BD_1 finite element node 8 (number of elements = 1; element order = 8) rotational displacement in X, rad
         53    0.000000000E+000                                               T               2         BD_1 finite element node 8 (number of elements = 1; element order = 8) rotational displacement in Y, rad
         54    0.000000000E+000                                               T               2         BD_1 finite element node 8 (number of elements = 1; element order = 8) rotational displacement in Z, rad
         55    0.000000000E+000                                               T               2         BD_1 finite element node 9 (number of elements = 1; element order = 8) translational displacement in X, m
         56    0.000000000E+000                                               T               2         BD_1 finite element node 9 (number of elements = 1; element order = 8) translational displacement in Y, m
         57    0.000000000E+000                                               T               2         BD_1 finite element node 9 (number of elements = 1; element order = 8) translational displacement in Z, m
         58    0.000000000E+000                                               T               2         BD_1 finite element node 9 (number of elements = 1; element order = 8) rotational displacement in X, rad
         59    0.000000000E+000                                               T               2         BD_1 finite element node 9 (number of elements = 1; element order = 8) rotational displacement in Y, rad
         60    0.000000000E+000                                               T               2         BD_1 finite element node 9 (number of elements = 1; element order = 8) rotational displacement in Z, rad
         61    0.000000000E+000                                               T               2         BD_1 First time derivative of finite element node 2 (number of elements = 1; element order = 8) translational displacement in X, m/s
         62    0.000000000E+000                                               T               2         BD_1 First time derivative of finite element node 2 (number of elements = 1; element order = 8) translational displacement in Y, m/s
         63    0.000000000E+000                                               T               2         BD_1 First time derivative of finite element node 2 (number of elements = 1; element order = 8) translational displacement in Z, m/s
         64    0.000000000E+000                                               T               2         BD_1 First time derivative of finite element node 2 (number of elements = 1; element order = 8) rotational displacement in X, rad/s
         65    0.000000000E+000                                               T               2         BD_1 First time derivative of finite element node 2 (number of elements = 1; element order = 8) rotational displacement in Y, rad/s
         66    0.000000000E+000                                               T               2         BD_1 First time derivative of finite element node 2 (number of elements = 1; element order = 8) rotational displacement in Z, rad/s
         67    0.000000000E+000                                               T               2         BD_1 First time derivative of finite element node 3 (number of elements = 1; element order = 8) translational displacement in X, m/s
         68    0.000000000E+000                                               T               2         BD_1 First time derivative of finite element node 3 (number of elements = 1; element order = 8) translational displacement in Y, m/s
         69    0.000000000E+000                                               T               2         BD_1 First time derivative of finite element node 3 (number of elements = 1; element order = 8) translational displacement in Z, m/s
         70    0.000000000E+000                                               T               2         BD_1 First time derivative of finite element node 3 (number of elements = 1; element order = 8) rotational displacement in X, rad/s
         71    0.000000000E+000                                               T               2         BD_1 First time derivative of finite element node 3 (number of elements = 1; element order = 8) rotational displacement in Y, rad/s
         72    0.000000000E+000                                               T               2         BD_1 First time derivative of finite element node 3 (number of elements = 1; element order = 8) rotational displacement in Z, rad/s
         73    0.000000000E+000                                               T               2         BD_1 First time derivative of finite element node 4 (number of elements = 1; element order = 8) translational displacement in X, m/s
         74    0.000000000E+000                                               T               2         BD_1 First time derivative of finite element node 4 (number of elements = 1; element order = 8) translational displacement in Y, m/s
         75    0.000000000E+000                                               T               2         BD_1 First time derivative of finite element node 4 (number of elements = 1; element order = 8) translational displacement in Z, m/s
         76    0.000000000E+000                                               T               2         BD_1 First time derivative of finite element node 4 (number of elements = 1; element order = 8) rotational displacement in X, rad/s
         77    0.000000000E+000                                               T               2         BD_1 First time derivative of finite element node 4 (number of elements = 1; element order = 8) rotational displacement in Y, rad/s
         78    0.000000000E+000                                               T               2         BD_1 First time derivative of finite element node 4 (number of elements = 1; element order = 8) rotational displacement in Z, rad/s
         79    0.000000000E+000                                               T               2         BD_1 First time derivative of finite element node 5 (number of elements = 1; element order = 8) translational displacement in X, m/s
         80    0.000000000E+000                                               T               2         BD_1 First time derivative of finite element node 5 (number of elements = 1; element order = 8) translational displacement in Y, m/s
         81    0.000000000E+000                                               T               2         BD_1 First time derivative of finite element node 5 (number of elements = 1; element order = 8) translational displacement in Z, m/s
         82    0.000000000E+000                                               T               2         BD_1 First time derivative of finite element node 5 (number of elements = 1; element order = 8) rotational displacement in X, rad/s
         83    0.000000000E+000                                               T               2         BD_1 First time derivative of finite element node 5 (number of elements = 1; element order = 8) rotational displacement in Y, rad/s
         84    0.000000000E+000                                               T               2         BD_1 First time derivative of finite element node 5 (number of elements = 1; element order = 8) rotational displacement in Z, rad/s
         85    0.000000000E+000                                               T               2         BD_1 First time derivative of finite element node 6 (number of elements = 1; element order = 8) translational displacement in X, m/s
         86    0.000000000E+000                                               T               2         BD_1 First time derivative of finite element node 6 (number of elements = 1; element order = 8) translational displacement in Y, m/s
         87    0.000000000E+000                                               T               2         BD_1 First time derivative of finite element node 6 (number of elements = 1; element order = 8) translational displacement in Z, m/s
         88    0.000000000E+000                                               T               2         BD_1 First time derivative of finite element node 6 (number of elements = 1; element order = 8) rotational displacement in X, rad/s
         89    0.000000000E+000                                               T               2         BD_1 First time derivative of finite element node 6 (number of elements = 1; element order = 8) rotational displacement in Y, rad/s
         90    0.000000000E+000                                               T               2         BD_1 First time derivative of finite element node 6 (number of elements = 1; element order = 8) rotational displacement in Z, rad/s
         91    0.000000000E+000                                               T               2         BD_1 First time derivative of finite element node 7 (number of elements = 1; element order = 8) translational displacement in X, m/s
         92    0.000000000E+000                                               T               2         BD_1 First time derivative of finite element node 7 (number of elements = 1; element order = 8) translational displacement in Y, m/s
         93    0.000000000E+000                                               T               2         BD_1 First time derivative of finite element node 7 (number of elements = 1; element order = 8) translational displacement in Z, m/s
         94    0.000000000E+000                                               T               2         BD_1 First time derivative of finite element node 7 (number of elements = 1; element order = 8) rotational displacement in X, rad/s
         95    0.000000000E+000                                               T               2         BD_1 First time derivative of finite element node 7 (number of elements = 1; element order = 8) rotational displacement in Y, rad/s
         96    0.000000000E+000                                               T               2         BD_1 First time derivative of finite element node 7 (number of elements = 1; element order = 8) rotational displacement in Z, rad/s
         97    0.000000000E+000                                               T               2         BD_1 First time derivative of finite element node 8 (number of elements = 1; element order = 8) translational displacement in X, m/s
         98    0.000000000E+000                                               T               2         BD_1 First time derivative of finite element node 8 (number of elements = 1; element order = 8) translational displacement in Y, m/s
         99    0.000000000E+000                                               T               2         BD_1 First time derivative of finite element node 8 (number of elements = 1; element order = 8) translational displacement in Z, m/s
        100    0.000000000E+000                                               T               2         BD_1 First time derivative of finite element node 8 (number of elements = 1; element order = 8) rotational displacement in X, rad/s
        101    0.000000000E+000                                               T               2         BD_1 First time derivative of finite element node 8 (number of elements = 1; element order = 8) rotational displacement in Y, rad/s
        102    0.000000000E+000                                               T               2         BD_1 First time derivative of finite element node 8 (number of elements = 1; element order = 8) rotational displacement in Z, rad/s
        103    0.000000000E+000                                               T               2         BD_1 First time derivative of finite element node 9 (number of elements = 1; element order = 8) translational displacement in X, m/s
        104    0.000000000E+000                                               T               2         BD_1 First time derivative of finite element node 9 (number of elements = 1; element order = 8) translational displacement in Y, m/s
        105    0.000000000E+000                                               T               2         BD_1 First time derivative of finite element node 9 (number of elements = 1; element order = 8) translational displacement in Z, m/s
        106    0.000000000E+000                                               T               2         BD_1 First time derivative of finite element node 9 (number of elements = 1; element order = 8) rotational displacement in X, rad/s
        107    0.000000000E+000                                               T               2         BD_1 First time derivative of finite element node 9 (number of elements = 1; element order = 8) rotational displacement in Y, rad/s
        108    0.000000000E+000                                               T               2         BD_1 First time derivative of finite element node 9 (number of elements = 1; element order = 8) rotational displacement in Z, rad/s

Order of continuous state derivatives:
   Row/Column Operating Point                                          Rotating Frame? Derivative Order Description
   ---------- ---------------                                          --------------- ---------------- -----------
          1    0.000000000E+000                                               F               2         First time derivative of ED Platform horizontal surge translation DOF (internal DOF index = DOF_Sg), m/s
          2    0.000000000E+000                                               F               2         First time derivative of ED Platform horizontal sway translation DOF (internal DOF index = DOF_Sw), m/s
          3    0.000000000E+000                                               F               2         First time derivative of ED Platform vertical heave translation DOF (internal DOF index = DOF_Hv), m/s
          4    0.000000000E+000                                               F               2         First time derivative of ED Platform roll tilt rotation DOF (internal DOF index = DOF_R), rad/s
          5    0.000000000E+000                                               F               2         First time derivative of ED Platform pitch tilt rotation DOF (internal DOF index = DOF_P), rad/s
          6    0.000000000E+000                                               F               2         First time derivative of ED Platform yaw rotation DOF (internal DOF index = DOF_Y), rad/s
          7    0.000000000E+000                                               F               2         First time derivative of ED First time derivative of Platform horizontal surge translation DOF (internal DOF index = DOF_Sg), m/s/s
          8    0.000000000E+000                                               F               2         First time derivative of ED First time derivative of Platform horizontal sway translation DOF (internal DOF index = DOF_Sw), m/s/s
          9    0.000000000E+000                                               F               2         First time derivative of ED First time derivative of Platform vertical heave translation DOF (internal DOF index = DOF_Hv), m/s/s
         10    0.000000000E+000                                               F               2         First time derivative of ED First time derivative of Platform roll tilt rotation DOF (internal DOF index = DOF_R), rad/s/s
         11    0.000000000E+000                                               F               2         First time derivative of ED First time derivative of Platform pitch tilt rotation DOF (internal DOF index = DOF_P), rad/s/s
         12    0.000000000E+000                                               F               2         First time derivative of ED First time derivative of Platform yaw rotation DOF (internal DOF index = DOF_Y), rad/s/s
         13    0.000000000E+000                                               T               2         First time derivative of BD_1 finite element node 2 (number of elements = 1; element order = 8) translational displacement in X, m/s
         14    0.000000000E+000                                               T               2         First time derivative of BD_1 finite element node 2 (number of elements = 1; element order = 8) translational displacement in Y, m/s
         15    0.000000000E+000                                               T               2         First time derivative of BD_1 finite element node 2 (number of elements = 1; element order = 8) translational displacement in Z, m/s
         16    0.000000000E+000                                               T               2         First time derivative of BD_1 finite element node 2 (number of elements = 1; element order = 8) rotational displacement in X, rad/s
         17    0.000000000E+000                                               T               2         First time derivative of BD_1 finite element node 2 (number of elements = 1; element order = 8) rotational displacement in Y, rad/s
         18    0.000000000E+000                                               T               2         First time derivative of BD_1 finite element node 2 (number of elements = 1; element order = 8) rotational displacement in Z, rad/s
         19    0.000000000E+000                                               T               2         First time derivative of BD_1 finite element node 3 (number of elements = 1; element order = 8) translational displacement in X, m/s
         20    0.000000000E+000                                               T               2         First time derivative of BD_1 finite element node 3 (number of elements = 1; element order = 8) translational displacement in Y, m/s
         21    0.000000000E+000                                               T               2         First time derivative of BD_1 finite element node 3 (number of elements = 1; element order = 8) translational displacement in Z, m/s
         22    0.000000000E+000                                               T               2         First time derivative of BD_1 finite element node 3 (number of elements = 1; element order = 8) rotational displacement in X, rad/s