
Predictions were generated on 20-Jan-2026 at 14:54:34 using OpenFAST, compiled on Jan 20 2026 at 14:21:20 as a 64-bit application using double precision at commit v4.1.2-444-gea60d47c
 linked with  NWTC Subroutine Library; ElastoDyn

Description from the FAST input file: NREL Wind Turbine Modeling Workshop Simulation

Time	OoPDefl1	IPDefl1	BldPitch1	Azimuth	RotSpeed	GenSpeed	TTDspFA	TTDspSS	RootMyc1	RotThrust	RotTorq	RotPwr	TwrBsFxt	TwrBsFyt	TwrBsFzt	TwrBsMxt	TwrBsMyt	TwrBsMzt
(s)	(m)	(m)	(deg)	(deg)	(rpm)	(rpm)	(m)	(m)	(kN-m)	(kN)	(kN-m)	(kW)	(kN)	(kN)	(kN)	(kN-m)	(kN-m)	(kN-m)
    0.0000	 4.045E-16	 4.129E-31	 0.000E+00	 0.000E+00	 0.000E+00	 0.000E+00	 3.000E+00	-0.000E+00	 1.426E+03	 1.353E+03	-7.066E-14	-0.000E+00	 5.616E+03	 3.329E-01	-6.976E+03	-5.928E+00	 5.011E+05	-5.763E+01
    0.0500	 2.309E-02	 2.766E-03	 0.000E+00	 3.600E+02	-1.090E-02	 0.000E+00	 2.983E+00	 1.028E-05	 1.927E+03	 1.357E+03	-3.403E+01	 3.885E-02	 5.702E+03	 7.901E-01	-6.965E+03	-1.143E+01	 5.011E+05	-5.668E+01
    0.1000	 1.088E-01	 9.348E-03	 0.000E+00	 3.600E+02	-1.389E-02	 0.000E+00	 2.931E+00	 4.343E-05	 3.179E+03	 1.372E+03	-9.553E+01	 1.389E-01	 5.854E+03	 3.761E-01	-6.944E+03	 1.095E+01	 4.991E+05	-5.944E+01
    0.1500	 2.974E-01	 1.403E-02	 0.000E+00	 3.600E+02	-1.134E-02	 0.000E+00	 2.847E+00	 1.033E-04	 4.701E+03	 1.401E+03	-1.518E+02	 1.802E-01	 5.861E+03	-2.268E+00	-6.933E+03	 9.021E+01	 4.893E+05	-7.384E+01
    0.2000	 6.325E-01	 8.005E-03	 0.000E+00	 3.600E+02	-1.140E-02	 0.000E+00	 2.733E+00	 1.946E-04	 5.992E+03	 1.436E+03	-2.012E+02	 2.403E-01	 5.573E+03	-5.931E+00	-6.937E+03	 1.929E+02	 4.679E+05	-1.035E+02
    0.2500	 1.136E+00	-1.643E-02	 0.000E+00	 3.600E+02	-1.761E-02	 0.000E+00	 2.590E+00	 3.274E-04	 6.763E+03	 1.448E+03	-2.693E+02	 4.965E-01	 5.025E+03	-7.984E+00	-6.944E+03	 2.524E+02	 4.360E+05	-1.452E+02
    0.3000	 1.792E+00	-6.066E-02	 0.000E+00	 3.600E+02	-2.441E-02	 0.000E+00	 2.421E+00	 5.216E-04	 7.019E+03	 1.405E+03	-3.707E+02	 9.476E-01	 4.416E+03	-7.781E+00	-6.938E+03	 2.520E+02	 3.994E+05	-1.904E+02
    0.3500	 2.544E+00	-1.182E-01	 0.000E+00	 3.600E+02	-2.350E-02	 0.000E+00	 2.226E+00	 8.020E-04	 6.980E+03	 1.291E+03	-4.829E+02	 1.188E+00	 3.953E+03	-7.839E+00	-6.905E+03	 2.507E+02	 3.640E+05	-2.285E+02
    0.4000	 3.304E+00	-1.788E-01	 0.000E+00	 3.600E+02	-1.288E-02	 0.000E+00	 2.007E+00	 1.185E-03	 6.910E+03	 1.121E+03	-5.615E+02	 7.571E-01	 3.697E+03	-1.085E+01	-6.851E+03	 3.085E+02	 3.316E+05	-2.476E+02
    0.4500	 3.977E+00	-2.344E-01	 0.000E+00	 3.600E+02	 1.495E-03	 0.000E+00	 1.768E+00	 1.667E-03	 6.972E+03	 9.417E+02	-5.779E+02	-9.046E-02	 3.516E+03	-1.581E+01	-6.797E+03	 3.909E+02	 2.988E+05	-2.336E+02
    0.5000	 4.484E+00	-2.821E-01	 0.000E+00	 3.600E+02	 1.277E-02	 0.000E+00	 1.510E+00	 2.222E-03	 7.198E+03	 8.006E+02	-5.363E+02	-7.173E-01	 3.189E+03	-1.794E+01	-6.759E+03	 3.730E+02	 2.599E+05	-1.743E+02
    0.5500	 4.777E+00	-3.221E-01	 0.000E+00	 3.600E+02	 2.022E-02	 0.000E+00	 1.238E+00	 2.813E-03	 7.533E+03	 7.221E+02	-4.557E+02	-9.651E-01	 2.583E+03	-1.319E+01	-6.733E+03	 1.539E+02	 2.116E+05	-6.677E+01
    0.6000	 4.844E+00	-3.533E-01	 0.000E+00	 3.600E+02	 2.843E-02	 0.000E+00	 9.529E-01	 3.405E-03	 7.890E+03	 6.902E+02	-3.411E+02	-1.015E+00	 1.753E+03	-2.543E+00	-6.707E+03	-2.345E+02	 1.557E+05	 7.820E+01
    0.6500	 4.706E+00	-3.728E-01	 0.000E+00	 3.600E+02	 4.046E-02	 0.000E+00	 6.600E-01	 3.965E-03	 8.159E+03	 6.581E+02	-1.781E+02	-7.547E-01	 9.055E+02	 8.573E+00	-6.675E+03	-6.438E+02	 9.838E+04	 2.384E+02
    0.7000	 4.401E+00	-3.783E-01	 0.000E+00	 6.340E-04	 5.342E-02	 0.000E+00	 3.620E-01	 4.452E-03	 8.173E+03	 5.763E+02	 4.437E+01	 2.482E-01	 2.448E+02	 1.534E+01	-6.637E+03	-9.409E+02	 4.571E+04	 3.879E+02
    0.7500	 3.971E+00	-3.708E-01	 0.000E+00	 1.804E-02	 6.135E-02	 0.000E+00	 6.282E-02	 4.809E-03	 7.706E+03	 4.206E+02	 3.130E+02	 2.011E+00	-1.769E+02	 1.795E+01	-6.606E+03	-1.121E+03	-4.394E+02	 5.033E+02
    0.8000	 3.442E+00	-3.542E-01	 0.000E+00	 3.667E-02	 6.171E-02	 0.000E+00	-2.342E-01	 4.966E-03	 6.545E+03	 2.027E+02	 5.954E+02	 3.848E+00	-4.866E+02	 2.087E+01	-6.592E+03	-1.288E+03	-4.315E+04	 5.679E+02
    0.8500	 2.819E+00	-3.307E-01	 0.000E+00	 5.462E-02	 5.767E-02	 0.000E+00	-5.257E-01	 4.864E-03	 4.616E+03	-4.089E+01	 8.646E+02	 5.222E+00	-8.821E+02	 2.783E+01	-6.592E+03	-1.530E+03	-8.753E+04	 5.742E+02
    0.9000	 2.083E+00	-2.974E-01	 0.000E+00	 7.132E-02	 5.399E-02	 0.000E+00	-8.092E-01	 4.463E-03	 2.088E+03	-2.724E+02	 1.115E+03	 6.305E+00	-1.473E+03	 3.789E+01	-6.595E+03	-1.816E+03	-1.363E+05	 5.242E+02
    0.9500	 1.208E+00	-2.470E-01	 0.000E+00	 8.714E-02	 5.148E-02	 0.000E+00	-1.083E+00	 3.753E-03	-6.466E+02	-4.705E+02	 1.353E+03	 7.295E+00	-2.197E+03	 4.632E+01	-6.600E+03	-2.019E+03	-1.876E+05	 4.267E+02
    1.0000	 1.794E-01	-1.727E-01	 0.000E+00	 1.020E-01	 4.642E-02	 0.000E+00	-1.344E+00	 2.742E-03	-3.123E+03	-6.341E+02	 1.574E+03	 7.651E+00	-2.869E+03	 4.912E+01	-6.618E+03	-2.030E+03	-2.361E+05	 2.945E+02
    1.0500	-9.895E-01	-7.324E-02	 0.000E+00	 1.143E-01	 3.502E-02	 0.000E+00	-1.592E+00	 1.447E-03	-5.029E+03	-7.720E+02	 1.754E+03	 6.434E+00	-3.330E+03	 4.638E+01	-6.662E+03	-1.849E+03	-2.771E+05	 1.407E+02
    1.1000	-2.246E+00	 4.520E-02	 0.000E+00	 1.223E-01	 1.744E-02	 0.000E+00	-1.824E+00	-1.099E-04	-6.356E+03	-8.910E+02	 1.864E+03	 3.403E+00	-3.570E+03	 4.162E+01	-6.738E+03	-1.567E+03	-3.102E+05	-2.380E+01
    1.1500	-3.505E+00	 1.710E-01	 0.000E+00	 1.245E-01	-3.001E-03	 0.000E+00	-2.038E+00	-1.896E-03	-7.383E+03	-9.929E+02	 1.884E+03	-5.920E-01	-3.728E+03	 3.804E+01	-6.837E+03	-1.270E+03	-3.389E+05	-1.913E+02
    1.2000	-4.674E+00	 2.914E-01	 0.000E+00	 1.205E-01	-2.351E-02	 0.000E+00	-2.231E+00	-3.860E-03	-8.479E+03	-1.080E+03	 1.810E+03	-4.455E+00	-3.981E+03	 3.566E+01	-6.930E+03	-9.631E+02	-3.678E+05	-3.550E+02
    1.2500	-5.673E+00	 3.961E-01	 0.000E+00	 1.104E-01	-4.388E-02	 0.000E+00	-2.400E+00	-5.931E-03	-9.874E+03	-1.162E+03	 1.644E+03	-7.553E+00	-4.396E+03	 3.151E+01	-6.992E+03	-5.743E+02	-3.985E+05	-5.053E+02
    1.3000	-6.450E+00	 4.800E-01	 0.000E+00	 9.414E-02	-6.491E-02	 0.000E+00	-2.544E+00	-8.025E-03	-1.153E+04	-1.254E+03	 1.383E+03	-9.402E+00	-4.881E+03	 2.242E+01	-7.025E+03	-2.676E+01	-4.282E+05	-6.293E+02
    1.3500	-6.992E+00	 5.425E-01	 0.000E+00	 7.151E-02	-8.573E-02	 0.000E+00	-2.664E+00	-1.006E-02	-1.320E+04	-1.365E+03	 1.027E+03	-9.220E+00	-5.252E+03	 7.586E+00	-7.049E+03	 6.914E+02	-4.519E+05	-7.129E+02
    1.4000	-7.311E+00	 5.865E-01	 0.000E+00	 4.302E-02	-1.034E-01	 0.000E+00	-2.758E+00	-1.194E-02	-1.456E+04	-1.490E+03	 5.841E+02	-6.326E+00	-5.381E+03	-1.084E+01	-7.081E+03	 1.510E+03	-4.660E+05	-7.435E+02
    1.4500	-7.436E+00	 6.155E-01	 0.000E+00	 1.006E-02	-1.152E-01	 0.000E+00	-2.825E+00	-1.362E-02	-1.536E+04	-1.600E+03	 7.730E+01	-9.324E-01	-5.290E+03	-2.924E+01	-7.121E+03	 2.319E+03	-4.710E+05	-7.120E+02
    1.5000	-7.397E+00	 6.314E-01	 0.000E+00	 3.600E+02	-1.205E-01	 0.000E+00	-2.867E+00	-1.501E-02	-1.551E+04	-1.656E+03	-4.637E+02	 5.851E+00	-5.137E+03	-4.477E+01	-7.155E+03	 3.025E+03	-4.713E+05	-6.128E+02
    1.5500	-7.214E+00	 6.340E-01	 0.000E+00	 3.599E+02	-1.209E-01	 0.000E+00	-2.881E+00	-1.608E-02	-1.505E+04	-1.634E+03	-1.014E+03	 1.283E+01	-5.093E+03	-5.680E+01	-7.160E+03	 3.601E+03	-4.715E+05	-4.472E+02
    1.6000	-6.888E+00	 6.214E-01	 0.000E+00	 3.599E+02	-1.178E-01	 0.000E+00	-2.868E+00	-1.675E-02	-1.408E+04	-1.536E+03	-1.555E+03	 1.919E+01	-5.209E+03	-6.690E+01	-7.125E+03	 4.078E+03	-4.731E+05	-2.275E+02
    1.6500	-6.408E+00	 5.927E-01	 0.000E+00	 3.599E+02	-1.109E-01	 0.000E+00	-2.827E+00	-1.699E-02	-1.271E+04	-1.396E+03	-2.072E+03	 2.407E+01	-5.382E+03	-7.734E+01	-7.066E+03	 4.508E+03	-4.730E+05	 2.235E+01
    1.7000	-5.758E+00	 5.482E-01	 0.000E+00	 3.598E+02	-9.870E-02	 0.000E+00	-2.758E+00	-1.675E-02	-1.109E+04	-1.261E+03	-2.542E+03	 2.628E+01	-5.432E+03	-8.911E+01	-7.009E+03	 4.910E+03	-4.664E+05	 2.720E+02
    1.7500	-4.932E+00	 4.896E-01	 0.000E+00	 3.598E+02	-8.040E-02	 0.000E+00	-2.661E+00	-1.602E-02	-9.362E+03	-1.165E+03	-2.940E+03	 2.475E+01	-5.243E+03	-1.007E+02	-6.966E+03	 5.233E+03	-4.499E+05	 4.922E+02
    1.8000	-3.944E+00	 4.184E-01	 0.000E+00	 3.598E+02	-5.702E-02	 0.000E+00	-2.537E+00	-1.479E-02	-7.710E+03	-1.112E+03	-3.238E+03	 1.933E+01	-4.843E+03	-1.087E+02	-6.934E+03	 5.379E+03	-4.245E+05	 6.613E+02
    1.8500	-2.837E+00	 3.362E-01	 0.000E+00	 3.598E+02	-3.032E-02	 0.000E+00	-2.386E+00	-1.307E-02	-6.267E+03	-1.077E+03	-3.420E+03	 1.086E+01	-4.381E+03	-1.099E+02	-6.897E+03	 5.260E+03	-3.943E+05	 7.692E+02
    1.9000	-1.682E+00	 2.462E-01	 0.000E+00	 3.598E+02	-1.231E-03	 0.000E+00	-2.210E+00	-1.089E-02	-5.040E+03	-1.024E+03	-3.474E+03	 4.478E-01	-4.010E+03	-1.039E+02	-6.843E+03	 4.863E+03	-3.637E+05	 8.166E+02
    1.9500	-5.582E-01	 1.539E-01	 0.000E+00	 3.598E+02	 3.028E-02	 0.000E+00	-2.011E+00	-8.269E-03	-3.880E+03	-9.242E+02	-3.388E+03	-1.074E+01	-3.767E+03	-9.326E+01	-6.779E+03	 4.257E+03	-3.340E+05	 8.111E+02
    2.0000	 4.560E-01	 6.703E-02	 0.000E+00	 3.598E+02	 6.378E-02	 0.000E+00	-1.790E+00	-5.239E-03	-2.552E+03	-7.748E+02	-3.153E+03	-2.106E+01	-3.554E+03	-8.120E+01	-6.727E+03	 3.532E+03	-3.026E+05	 7.626E+02
    2.0500	 1.307E+00	-7.789E-03	 0.000E+00	 3.598E+02	 9.705E-02	 0.000E+00	-1.551E+00	-1.850E-03	-8.924E+02	-5.919E+02	-2.765E+03	-2.811E+01	-3.218E+03	-6.891E+01	-6.699E+03	 2.723E+03	-2.657E+05	 6.811E+02
    2.1000	 1.975E+00	-6.837E-02	 0.000E+00	 3.598E+02	 1.267E-01	 0.000E+00	-1.295E+00	 1.826E-03	 1.060E+03	-3.988E+02	-2.236E+03	-2.966E+01	-2.677E+03	-5.423E+01	-6.696E+03	 1.783E+03	-2.213E+05	 5.766E+02
    2.1500	 2.469E+00	-1.181E-01	 0.000E+00	 3.599E+02	 1.499E-01	 0.000E+00	-1.024E+00	 5.691E-03	 3.043E+03	-2.132E+02	-1.590E+03	-2.495E+01	-1.986E+03	-3.376E+01	-6.702E+03	 6.369E+02	-1.710E+05	 4.573E+02
    2.2000	 2.818E+00	-1.637E-01	 0.000E+00	 3.599E+02	 1.658E-01	 0.000E+00	-7.413E-01	 9.634E-03	 4.678E+03	-4.342E+01	-8.601E+02	-1.493E+01	-1.292E+03	-6.253E+00	-6.703E+03	-7.286E+02	-1.192E+05	 3.281E+02
    2.2500	 3.053E+00	-2.110E-01	 0.000E+00	 3.600E+02	 1.749E-01	 0.000E+00	-4.481E-01	 1.354E-02	 5.660E+03	 1.066E+02	-7.784E+01	-1.426E+00	-7.206E+02	 2.545E+01	-6.691E+03	-2.215E+03	-6.957E+04	 1.914E+02
    2.3000	 3.190E+00	-2.614E-01	 0.000E+00	 4.042E-02	 1.779E-01	 0.000E+00	-1.477E-01	 1.729E-02	 5.904E+03	 2.325E+02	 7.279E+02	 1.356E+01	-2.830E+02	 5.595E+01	-6.675E+03	-3.656E+03	-2.284E+04	 5.106E+01
    2.3500	 3.229E+00	-3.109E-01	 0.000E+00	 9.342E-02	 1.742E-01	 0.000E+00	 1.562E-01	 2.076E-02	 5.575E+03	 3.298E+02	 1.528E+03	 2.788E+01	 1.299E+02	 8.098E+01	-6.665E+03	-4.916E+03	 2.361E+04	-8.545E+01
    2.4000	 3.153E+00	-3.523E-01	 0.000E+00	 1.442E-01	 1.632E-01	 0.000E+00	 4.594E-01	 2.383E-02	 4.987E+03	 4.012E+02	 2.290E+03	 3.913E+01	 6.549E+02	 1.002E+02	-6.665E+03	-5.962E+03	 7.308E+04	-2.065E+02
    2.4500	 2.946E+00	-3.789E-01	 0.000E+00	 1.906E-01	 1.447E-01	 0.000E+00	 7.579E-01	 2.638E-02	 4.447E+03	 4.619E+02	 2.980E+03	 4.517E+01	 1.344E+03	 1.167E+02	-6.669E+03	-6.857E+03	 1.265E+05	-2.993E+02
    2.5000	 2.602E+00	-3.867E-01	 0.000E+00	 2.304E-01	 1.197E-01	 0.000E+00	 1.048E+00	 2.828E-02	 4.121E+03	 5.375E+02	 3.567E+03	 4.472E+01	 2.115E+03	 1.336E+02	-6.674E+03	-7.668E+03	 1.813E+05	-3.538E+02
    2.5500	 2.139E+00	-3.760E-01	 0.000E+00	 2.619E-01	 8.926E-02	 0.000E+00	 1.326E+00	 2.945E-02	 4.016E+03	 6.506E+02	 4.024E+03	 3.761E+01	 2.815E+03	 1.510E+02	-6.682E+03	-8.377E+03	 2.326E+05	-3.667E+02
    2.6000	 1.600E+00	-3.501E-01	 0.000E+00	 2.835E-01	 5.398E-02	 0.000E+00	 1.590E+00	 2.982E-02	 4.034E+03	 8.053E+02	 4.328E+03	 2.446E+01	 3.325E+03	 1.651E+02	-6.700E+03	-8.871E+03	 2.771E+05	-3.440E+02
    2.6500	 1.048E+00	-3.134E-01	 0.000E+00	 2.938E-01	 1.435E-02	 0.000E+00	 1.837E+00	 2.934E-02	 4.060E+03	 9.795E+02	 4.459E+03	 6.698E+00	 3.653E+03	 1.711E+02	-6.733E+03	-9.006E+03	 3.145E+05	-3.001E+02
    2.7000	 5.519E-01	-2.697E-01	 0.000E+00	 2.918E-01	-2.835E-02	 0.000E+00	 2.064E+00	 2.803E-02	 4.021E+03	 1.135E+03	 4.400E+03	-1.306E+01	 3.918E+03	 1.661E+02	-6.777E+03	-8.703E+03	 3.477E+05	-2.532E+02
    2.7500	 1.705E-01	-2.220E-01	 0.000E+00	 2.768E-01	-7.159E-02	 0.000E+00	 2.268E+00	 2.590E-02	 3.891E+03	 1.237E+03	 4.144E+03	-3.107E+01	 4.252E+03	 1.513E+02	-6.820E+03	-7.995E+03	 3.804E+05	-2.198E+02
    2.8000	-5.770E-02	-1.727E-01	 0.000E+00	 2.491E-01	-1.123E-01	 0.000E+00	 2.448E+00	 2.302E-02	 3.669E+03	 1.276E+03	 3.699E+03	-4.350E+01	 4.701E+03	 1.307E+02	-6.851E+03	-6.995E+03	 4.133E+05	-2.112E+02
    2.8500	-1.222E-01	-1.239E-01	 0.000E+00	 2.099E-01	-1.480E-01	 0.000E+00	 2.601E+00	 1.946E-02	 3.378E+03	 1.270E+03	 3.082E+03	-4.776E+01	 5.183E+03	 1.079E+02	-6.872E+03	-5.821E+03	 4.440E+05	-2.313E+02
    2.9000	-3.769E-02	-7.779E-02	 0.000E+00	 1.609E-01	-1.771E-01	 0.000E+00	 2.725E+00	 1.536E-02	 3.086E+03	 1.257E+03	 2.322E+03	-4.307E+01	 5.554E+03	 8.410E+01	-6.894E+03	-4.525E+03	 4.684E+05	-2.743E+02
    2.9500	 1.654E-01	-3.591E-02	 0.000E+00	 1.044E-01	-1.987E-01	 0.000E+00	 2.818E+00	 1.087E-02	 2.930E+03	 1.272E+03	 1.451E+03	-3.020E+01	 5.717E+03	 5.774E+01	-6.927E+03	-3.088E+03	 4.835E+05	-3.266E+02
    3.0000	 4.534E-01	 1.330E-03	 0.000E+00	 4.255E-02	-2.118E-01	 0.000E+00	 2.881E+00	 6.166E-03	 3.094E+03	 1.327E+03	 5.065E+02	-1.123E+01	 5.688E+03	 2.658E+01	-6.972E+03	-1.480E+03	 4.896E+05	-3.706E+02
    3.0500	 8.015E-01	 3.408E-02	 0.000E+00	 3.600E+02	-2.155E-01	 0.000E+00	 2.911E+00	 1.431E-03	 3.727E+03	 1.411E+03	-4.701E+02	 1.061E+01	 5.584E+03	-9.424E+00	-7.018E+03	 2.678E+02	 4.899E+05	-3.902E+02
    3.1000	 1.200E+00	 6.139E-02	 0.000E+00	 3.599E+02	-2.097E-01	 0.000E+00	 2.908E+00	-3.153E-03	 4.840E+03	 1.497E+03	-1.436E+03	 3.154E+01	 5.524E+03	-4.692E+01	-7.049E+03	 2.033E+03	 4.877E+05	-3.745E+02
    3.1500	 1.654E+00	 7.973E-02	 0.000E+00	 3.599E+02	-1.953E-01	 0.000E+00	 2.873E+00	-7.425E-03	 6.257E+03	 1.558E+03	-2.350E+03	 4.805E+01	 5.538E+03	-8.068E+01	-7.058E+03	 3.646E+03	 4.838E+05	-3.199E+02
    3.2000	 2.172E+00	 8.332E-02	 0.000E+00	 3.598E+02	-1.731E-01	 0.000E+00	 2.808E+00	-1.124E-02	 7.667E+03	 1.583E+03	-3.175E+03	 5.756E+01	 5.548E+03	-1.067E+02	-7.049E+03	 4.974E+03	 4.763E+05	-2.303E+02
    3.2500	 2.753E+00	 6.671E-02	 0.000E+00	 3.598E+02	-1.438E-01	 0.000E+00	 2.714E+00	-1.449E-02	 8.755E+03	 1.569E+03	-3.878E+03	 5.840E+01	 5.431E+03	-1.246E+02	-7.032E+03	 5.984E+03	 4.619E+05	-1.160E+02
    3.3000	 3.378E+00	 2.811E-02	 0.000E+00	 3.597E+02	-1.074E-01	 0.000E+00	 2.593E+00	-1.707E-02	 9.353E+03	 1.520E+03	-4.428E+03	 4.981E+01	 5.123E+03	-1.372E+02	-7.009E+03	 6.740E+03	 4.391E+05	 1.069E+01
    3.3500	 4.002E+00	-2.858E-02	 0.000E+00	 3.597E+02	-6.451E-02	 0.000E+00	 2.445E+00	-1.893E-02	 9.505E+03	 1.441E+03	-4.793E+03	 3.238E+01	 4.666E+03	-1.478E+02	-6.978E+03	 7.314E+03	 4.092E+05	 1.397E+02
    3.4000	 4.568E+00	-9.471E-02	 0.000E+00	 3.597E+02	-1.668E-02	 0.000E+00	 2.273E+00	-2.003E-02	 9.417E+03	 1.337E+03	-4.947E+03	 8.643E+00	 4.182E+03	-1.568E+02	-6.933E+03	 7.710E+03	 3.758E+05	 2.660E+02
    3.4500	 5.013E+00	-1.602E-01	 0.000E+00	 3.597E+02	 3.337E-02	 0.000E+00	 2.078E+00	-2.039E-02	 9.316E+03	 1.217E+03	-4.877E+03	-1.704E+01	 3.777E+03	-1.610E+02	-6.873E+03	 7.834E+03	 3.419E+05	 3.883E+02
    3.5000	 5.286E+00	-2.172E-01	 0.000E+00	 3.597E+02	 8.266E-02	 0.000E+00	 1.861E+00	-2.005E-02	 9.325E+03	 1.096E+03	-4.581E+03	-3.965E+01	 3.463E+03	-1.556E+02	-6.808E+03	 7.566E+03	 3.080E+05	 5.057E+02
    3.5500	 5.358E+00	-2.622E-01	 0.000E+00	 3.597E+02	 1.287E-01	 0.000E+00	 1.626E+00	-1.908E-02	 9.401E+03	 9.895E+02	-4.069E+03	-5.482E+01	 3.152E+03	-1.385E+02	-6.749E+03	 6.859E+03	 2.722E+05	 6.138E+02
    3.6000	 5.224E+00	-2.951E-01	 0.000E+00	 3.598E+02	 1.695E-01	 0.000E+00	 1.375E+00	-1.757E-02	 9.385E+03	 9.035E+02	-3.363E+03	-5.968E+01	 2.730E+03	-1.120E+02	-6.703E+03	 5.792E+03	 2.315E+05	 7.026E+02
    3.6500	 4.900E+00	-3.174E-01	 0.000E+00	 3.598E+02	 2.033E-01	 0.000E+00	 1.112E+00	-1.562E-02	 9.090E+03	 8.269E+02	-2.491E+03	-5.303E+01	 2.147E+03	-8.179E+01	-6.666E+03	 4.535E+03	 1.850E+05	 7.578E+02
    3.7000	 4.415E+00	-3.301E-01	 0.000E+00	 3.599E+02	 2.282E-01	 0.000E+00	 8.398E-01	-1.336E-02	 8.388E+03	 7.333E+02	-1.491E+03	-3.564E+01	 1.463E+03	-5.274E+01	-6.632E+03	 3.246E+03	 1.346E+05	 7.641E+02
    3.7500	 3.800E+00	-3.329E-01	 0.000E+00	 3.600E+02	 2.426E-01	 0.000E+00	 5.610E-01	-1.091E-02	 7.243E+03	 5.947E+02	-4.084E+02	-1.038E+01	 7.990E+02	-2.622E+01	-6.600E+03	 1.986E+03	 8.413E+04	 7.098E+02
    3.8000	 3.081E+00	-3.246E-01	 0.000E+00	 3.617E-02	 2.460E-01	 0.000E+00	 2.784E-01	-8.419E-03	 5.692E+03	 3.986E+02	 7.079E+02	 1.823E+01	 2.556E+02	 5.213E-02	-6.574E+03	 7.230E+02	 3.657E+04	 5.898E+02
    3.8500	 2.271E+00	-3.045E-01	 0.000E+00	 1.091E-01	 2.387E-01	 0.000E+00	-5.390E-03	-6.032E-03	 3.809E+03	 1.581E+02	 1.808E+03	 4.520E+01	-1.644E+02	 2.893E+01	-6.562E+03	-5.929E+02	-7.670E+03	 4.066E+02
    3.9000	 1.380E+00	-2.726E-01	 0.000E+00	 1.784E-01	 2.218E-01	 0.000E+00	-2.879E-01	-3.881E-03	 1.692E+03	-9.310E+01	 2.847E+03	 6.612E+01	-5.492E+02	 6.049E+01	-6.569E+03	-1.938E+03	-5.074E+04	 1.713E+02
    3.9500	 4.123E-01	-2.296E-01	 0.000E+00	 2.413E-01	 1.958E-01	 0.000E+00	-5.668E-01	-2.081E-03	-5.333E+02	-3.171E+02	 3.782E+03	 7.755E+01	-1.005E+03	 9.108E+01	-6.593E+03	-3.191E+03	-9.531E+04	-9.601E+01
    4.0000	-6.193E-01	-1.763E-01	 0.000E+00	 2.951E-01	 1.611E-01	 0.000E+00	-8.397E-01	-7.211E-04	-2.707E+03	-4.910E+02	 4.573E+03	 7.716E+01	-1.572E+03	 1.154E+02	-6.627E+03	-4.189E+03	-1.422E+05	-3.694E+02
    4.0500	-1.689E+00	-1.136E-01	 0.000E+00	 3.372E-01	 1.184E-01	 0.000E+00	-1.105E+00	 1.342E-04	-4.667E+03	-6.156E+02	 5.183E+03	 6.427E+01	-2.189E+03	 1.300E+02	-6.667E+03	-4.821E+03	-1.896E+05	-6.220E+02
    4.1000	-2.755E+00	-4.301E-02	 0.000E+00	 3.654E-01	 6.905E-02	 0.000E+00	-1.359E+00	 4.413E-04	-6.308E+03	-7.114E+02	 5.579E+03	 4.034E+01	-2.745E+03	 1.351E+02	-6.714E+03	-5.084E+03	-2.340E+05	-8.306E+02
    4.1500	-3.762E+00	 3.264E-02	 0.000E+00	 3.782E-01	 1.514E-02	 0.000E+00	-1.600E+00	 1.778E-04	-7.633E+03	-8.038E+02	 5.736E+03	 9.095E+00	-3.162E+03	 1.341E+02	-6.773E+03	-5.058E+03	-2.730E+05	-9.791E+02
    4.2000	-4.655E+00	 1.087E-01	 0.000E+00	 3.743E-01	-4.087E-02	 0.000E+00	-1.826E+00	-6.551E-04	-8.754E+03	-9.091E+02	 5.642E+03	-2.414E+01	-3.453E+03	 1.299E+02	-6.842E+03	-4.823E+03	-3.068E+05	-1.059E+03
    4.2500	-5.386E+00	 1.797E-01	 0.000E+00	 3.537E-01	-9.625E-02	 0.000E+00	-2.034E+00	-2.029E-03	-9.819E+03	-1.028E+03	 5.294E+03	-5.335E+01	-3.708E+03	 1.229E+02	-6.911E+03	-4.390E+03	-3.376E+05	-1.069E+03
    4.3000	-5.926E+00	 2.414E-01	 0.000E+00	 3.169E-01	-1.482E-01	 0.000E+00	-2.221E+00	-3.889E-03	-1.091E+04	-1.152E+03	 4.703E+03	-7.297E+01	-4.021E+03	 1.104E+02	-6.964E+03	-3.694E+03	-3.675E+05	-1.015E+03
    4.3500	-6.268E+00	 2.929E-01	 0.000E+00	 2.654E-01	-1.939E-01	 0.000E+00	-2.386E+00	-6.151E-03	-1.198E+04	-1.267E+03	 3.893E+03	-7.904E+01	-4.411E+03	 8.894E+01	-6.993E+03	-2.660E+03	-3.971E+05	-9.052E+02
    4.4000	-6.420E+00	 3.365E-01	 0.000E+00	 2.014E-01	-2.311E-01	 0.000E+00	-2.528E+00	-8.713E-03	-1.285E+04	-1.362E+03	 2.900E+03	-7.018E+01	-4.812E+03	 5.783E+01	-7.005E+03	-1.285E+03	-4.243E+05	-7.519E+02
    4.4500	-6.401E+00	 3.765E-01	 0.000E+00	 1.278E-01	-2.581E-01	 0.000E+00	-2.646E+00	-1.146E-02	-1.332E+04	-1.431E+03	 1.767E+03	-4.776E+01	-5.117E+03	 2.013E+01	-7.014E+03	 3.219E+02	-4.462E+05	-5.662E+02
    4.5000	-6.233E+00	 4.161E-01	 0.000E+00	 4.773E-02	-2.738E-01	 0.000E+00	-2.739E+00	-1.425E-02	-1.325E+04	-1.466E+03	 5.446E+02	-1.561E+01	-5.263E+03	-1.869E+01	-7.031E+03	 1.986E+03	-4.607E+05	-3.567E+02
    4.5500	-5.934E+00	 4.554E-01	 0.000E+00	 3.600E+02	-2.778E-01	 0.000E+00	-2.806E+00	-1.693E-02	-1.264E+04	-1.461E+03	-7.152E+02	 2.080E+01	-5.274E+03	-5.404E+01	-7.056E+03	 3.552E+03	-4.684E+05	-1.292E+02
    4.6000	-5.514E+00	 4.908E-01	 0.000E+00	 3.599E+02	-2.702E-01	 0.000E+00	-2.845E+00	-1.935E-02	-1.164E+04	-1.416E+03	-1.959E+03	 5.544E+01	-5.241E+03	-8.467E+01	-7.077E+03	 4.956E+03	-4.718E+05	 1.093E+02
    4.6500	-4.980E+00	 5.169E-01	 0.000E+00	 3.598E+02	-2.517E-01	 0.000E+00	-2.855E+00	-2.134E-02	-1.045E+04	-1.338E+03	-3.137E+03	 8.268E+01	-5.248E+03	-1.124E+02	-7.080E+03	 6.216E+03	-4.730E+05	 3.478E+02
    4.7000	-4.340E+00	 5.289E-01	 0.000E+00	 3.597E+02	-2.229E-01	 0.000E+00	-2.836E+00	-2.273E-02	-9.242E+03	-1.248E+03	-4.200E+03	 9.805E+01	-5.308E+03	-1.396E+02	-7.061E+03	 7.363E+03	-4.723E+05	 5.695E+02
    4.7500	-3.610E+00	 5.247E-01	 0.000E+00	 3.597E+02	-1.847E-01	 0.000E+00	-2.787E+00	-2.337E-02	-8.094E+03	-1.168E+03	-5.104E+03	 9.873E+01	-5.354E+03	-1.659E+02	-7.030E+03	 8.367E+03	-4.678E+05	 7.554E+02
    4.8000	-2.819E+00	 5.048E-01	 0.000E+00	 3.596E+02	-1.380E-01	 0.000E+00	-2.708E+00	-2.315E-02	-7.000E+03	-1.115E+03	-5.810E+03	 8.398E+01	-5.289E+03	-1.880E+02	-6.999E+03	 9.109E+03	-4.568E+05	 8.892E+02
    4.8500	-2.007E+00	 4.713E-01	 0.000E+00	 3.596E+02	-8.435E-02	 0.000E+00	-2.601E+00	-2.199E-02	-5.916E+03	-1.086E+03	-6.282E+03	 5.550E+01	-5.063E+03	-2.009E+02	-6.977E+03	 9.438E+03	-4.382E+05	 9.619E+02
    4.9000	-1.222E+00	 4.265E-01	 0.000E+00	 3.596E+02	-2.579E-02	 0.000E+00	-2.466E+00	-1.986E-02	-4.809E+03	-1.062E+03	-6.496E+03	 1.754E+01	-4.710E+03	-2.012E+02	-6.957E+03	 9.256E+03	-4.128E+05	 9.747E+02
    4.9500	-5.096E-01	 3.717E-01	 0.000E+00	 3.596E+02	 3.495E-02	 0.000E+00	-2.305E+00	-1.676E-02	-3.682E+03	-1.015E+03	-6.436E+03	-2.355E+01	-4.321E+03	-1.896E+02	-6.932E+03	 8.572E+03	-3.834E+05	 9.375E+02
    5.0000	 9.470E-02	 3.081E-01	 0.000E+00	 3.596E+02	 9.480E-02	 0.000E+00	-2.119E+00	-1.274E-02	-2.558E+03	-9.223E+02	-6.101E+03	-6.057E+01	-3.972E+03	-1.694E+02	-6.897E+03	 7.486E+03	-3.522E+05	 8.657E+02
    5.0500	 5.717E-01	 2.370E-01	 0.000E+00	 3.596E+02	 1.508E-01	 0.000E+00	-1.910E+00	-7.880E-03	-1.460E+03	-7.835E+02	-5.505E+03	-8.694E+01	-3.668E+03	-1.445E+02	-6.853E+03	 6.114E+03	-3.197E+05	 7.749E+02
    5.1000	 9.187E-01	 1.606E-01	 0.000E+00	 3.597E+02	 2.004E-01	 0.000E+00	-1.680E+00	-2.307E-03	-4.201E+02	-6.170E+02	-4.672E+03	-9.803E+01	-3.343E+03	-1.163E+02	-6.811E+03	 4.516E+03	-2.842E+05	 6.770E+02
    5.1500	 1.147E+00	 8.173E-02	 0.000E+00	 3.597E+02	 2.412E-01	 0.000E+00	-1.432E+00	 3.811E-03	 5.113E+02	-4.517E+02	-3.639E+03	-9.192E+01	-2.912E+03	-8.344E+01	-6.776E+03	 2.684E+03	-2.437E+05	 5.790E+02
    5.2000	 1.275E+00	 2.773E-03	 0.000E+00	 3.598E+02	 2.714E-01	 0.000E+00	-1.168E+00	 1.027E-02	 1.249E+03	-3.119E+02	-2.450E+03	-6.964E+01	-2.345E+03	-4.390E+01	-6.746E+03	 5.940E+02	-1.975E+05	 4.825E+02
    5.2500	 1.319E+00	-7.479E-02	 0.000E+00	 3.599E+02	 2.894E-01	 0.000E+00	-8.909E-01	 1.686E-02	 1.696E+03	-2.062E+02	-1.160E+03	-3.516E+01	-1.690E+03	 2.526E+00	-6.714E+03	-1.721E+03	-1.473E+05	 3.854E+02
    5.3000	 1.293E+00	-1.495E-01	 0.000E+00	 3.600E+02	 2.948E-01	 0.000E+00	-6.029E-01	 2.333E-02	 1.801E+03	-1.261E+02	 1.752E+02	 5.408E+00	-1.043E+03	 5.255E+01	-6.677E+03	-4.130E+03	-9.615E+04	 2.830E+02
    5.3500	 1.202E+00	-2.187E-01	 0.000E+00	 8.661E-02	 2.880E-01	 0.000E+00	-3.076E-01	 2.947E-02	 1.610E+03	-5.421E+01	 1.499E+03	 4.520E+01	-4.739E+02	 1.007E+02	-6.636E+03	-6.443E+03	-4.637E+04	 1.710E+02
    5.4000	 1.048E+00	-2.777E-01	 0.000E+00	 1.705E-01	 2.697E-01	 0.000E+00	-8.785E-03	 3.504E-02	 1.274E+03	 2.638E+01	 2.758E+03	 7.790E+01	 1.617E+01	 1.420E+02	-6.600E+03	-8.492E+03	 1.610E+03	 4.801E+01
    5.4500	 8.337E-01	-3.208E-01	 0.000E+00	 2.474E-01	 2.409E-01	 0.000E+00	 2.896E-01	 3.984E-02	 1.001E+03	 1.254E+02	 3.903E+03	 9.844E+01	 4.943E+02	 1.749E+02	-6.581E+03	-1.019E+04	 4.919E+04	-8.304E+01
    5.5000	 5.747E-01	-3.434E-01	 0.000E+00	 3.140E-01	 2.020E-01	 0.000E+00	 5.838E-01	 4.370E-02	 9.539E+02	 2.452E+02	 4.887E+03	 1.034E+02	 1.035E+03	 2.010E+02	-6.580E+03	-1.157E+04	 9.802E+04	-2.153E+02
    5.5500	 2.985E-01	-3.447E-01	 0.000E+00	 3.677E-01	 1.541E-01	 0.000E+00	 8.703E-01	 4.645E-02	 1.178E+03	 3.838E+02	 5.668E+03	 9.147E+01	 1.659E+03	 2.229E+02	-6.594E+03	-1.265E+04	 1.482E+05	-3.398E+02
    5.6000	 4.404E-02	-3.281E-01	 0.000E+00	 4.058E-01	 9.887E-02	 0.000E+00	 1.146E+00	 4.801E-02	 1.583E+03	 5.370E+02	 6.209E+03	 6.428E+01	 2.312E+03	 2.411E+02	-6.618E+03	-1.343E+04	 1.981E+05	-4.486E+02
    5.6500	-1.453E-01	-3.002E-01	 0.000E+00	 4.265E-01	 3.869E-02	 0.000E+00	 1.409E+00	 4.831E-02	 2.008E+03	 6.972E+02	 6.484E+03	 2.627E+01	 2.906E+03	 2.525E+02	-6.651E+03	-1.383E+04	 2.447E+05	-5.375E+02
    5.7000	-2.326E-01	-2.676E-01	 0.000E+00	 4.288E-01	-2.351E-02	 0.000E+00	 1.656E+00	 4.738E-02	 2.321E+03	 8.519E+02	 6.478E+03	-1.595E+01	 3.381E+03	 2.531E+02	-6.693E+03	-1.372E+04	 2.862E+05	-6.066E+02
    5.7500	-1.958E-01	-2.352E-01	 0.000E+00	 4.125E-01	-8.473E-02	 0.000E+00	 1.885E+00	 4.525E-02	 2.495E+03	 9.860E+02	 6.191E+03	-5.493E+01	 3.746E+03	 2.400E+02	-6.745E+03	-1.305E+04	 3.225E+05	-6.587E+02
    5.8000	-3.201E-02	-2.043E-01	 0.000E+00	 3.783E-01	-1.421E-01	 0.000E+00	 2.093E+00	 4.202E-02	 2.620E+03	 1.088E+03	 5.637E+03	-8.387E+01	 4.067E+03	 2.146E+02	-6.801E+03	-1.185E+04	 3.552E+05	-6.966E+02
    5.8500	 2.443E-01	-1.746E-01	 0.000E+00	 3.279E-01	-1.929E-01	 0.000E+00	 2.277E+00	 3.781E-02	 2.847E+03	 1.156E+03	 4.840E+03	-9.778E+01	 4.409E+03	 1.814E+02	-6.854E+03	-1.027E+04	 3.858E+05	-7.211E+02
    5.9000	 6.079E-01	-1.455E-01	 0.000E+00	 2.635E-01	-2.348E-01	 0.000E+00	 2.437E+00	 3.278E-02	 3.306E+03	 1.204E+03	 3.837E+03	-9.435E+01	 4.779E+03	 1.454E+02	-6.898E+03	-8.477E+03	 4.141E+05	-7.304E+02
    5.9500	 1.032E+00	-1.177E-01	 0.000E+00	 1.881E-01	-2.658E-01	 0.000E+00	 2.569E+00	 2.708E-02	 4.051E+03	 1.255E+03	 2.675E+03	-7.446E+01	 5.121E+03	 1.090E+02	-6.937E+03	-6.561E+03	 4.386E+05	-7.186E+02
    6.0000	 1.495E+00	-9.303E-02	 0.000E+00	 1.052E-01	-2.845E-01	 0.000E+00	 2.673E+00	 2.092E-02	 5.048E+03	 1.328E+03	 1.409E+03	-4.196E+01	 5.358E+03	 7.109E+01	-6.974E+03	-4.532E+03	 4.568E+05	-6.767E+02
    6.0500	 1.986E+00	-7.398E-02	 0.000E+00	 1.866E-02	-2.906E-01	 0.000E+00	 2.747E+00	 1.450E-02	 6.205E+03	 1.428E+03	 9.344E+01	-2.844E+00	 5.448E+03	 2.962E+01	-7.013E+03	-2.368E+03	 4.676E+05	-5.947E+02
    6.1000	 2.499E+00	-6.236E-02	 0.000E+00	 3.599E+02	-2.846E-01	 0.000E+00	 2.793E+00	 8.013E-03	 7.408E+03	 1.540E+03	-1.214E+03	 3.618E+01	 5.423E+03	-1.569E+01	-7.050E+03	-9.841E+01	 4.719E+05	-4.667E+02
    6.1500	 3.031E+00	-5.884E-02	 0.000E+00	 3.598E+02	-2.671E-01	 0.000E+00	 2.808E+00	 1.658E-03	 8.546E+03	 1.636E+03	-2.460E+03	 6.881E+01	 5.357E+03	-6.171E+01	-7.075E+03	 2.158E+03	 4.716E+05	-2.939E+02
    6.2000	 3.574E+00	-6.312E-02	 0.000E+00	 3.598E+02	-2.387E-01	 0.000E+00	 2.795E+00	-4.391E-03	 9.511E+03	 1.690E+03	-3.594E+03	 8.986E+01	 5.313E+03	-1.033E+02	-7.079E+03	 4.228E+03	 4.686E+05	-8.644E+01
    6.2500	 4.109E+00	-7.441E-02	 0.000E+00	 3.597E+02	-2.002E-01	 0.000E+00	 2.753E+00	-9.978E-03	 1.022E+04	 1.688E+03	-4.570E+03	 9.579E+01	 5.295E+03	-1.361E+02	-7.062E+03	 5.970E+03	 4.630E+05	 1.373E+02
    6.3000	 4.605E+00	-9.150E-02	 0.000E+00	 3.597E+02	-1.526E-01	 0.000E+00	 2.684E+00	-1.497E-02	 1.061E+04	 1.635E+03	-5.343E+03	 8.539E+01	 5.245E+03	-1.593E+02	-7.030E+03	 7.334E+03	 4.534E+05	 3.544E+02
    6.3500	 5.021E+00	-1.125E-01	 0.000E+00	 3.596E+02	-9.794E-02	 0.000E+00	 2.589E+00	-1.924E-02	 1.070E+04	 1.550E+03	-5.879E+03	 6.030E+01	 5.088E+03	-1.752E+02	-6.990E+03	 8.360E+03	 4.378E+05	 5.428E+02
    6.4000	 5.313E+00	-1.344E-01	 0.000E+00	 3.596E+02	-3.858E-02	 0.000E+00	 2.467E+00	-2.272E-02	 1.057E+04	 1.453E+03	-6.152E+03	 2.485E+01	 4.795E+03	-1.864E+02	-6.949E+03	 9.108E+03	 4.155E+05	 6.874E+02
    6.4500	 5.447E+00	-1.532E-01	 0.000E+00	 3.596E+02	 2.269E-02	 0.000E+00	 2.322E+00	-2.535E-02	 1.035E+04	 1.358E+03	-6.148E+03	-1.461E+01	 4.400E+03	-1.937E+02	-6.906E+03	 9.589E+03	 3.875E+05	 7.823E+02
    6.5000	 5.403E+00	-1.655E-01	 0.000E+00	 3.596E+02	 8.300E-02	 0.000E+00	 2.152E+00	-2.711E-02	 1.013E+04	 1.267E+03	-5.868E+03	-5.100E+01	 3.979E+03	-1.947E+02	-6.861E+03	 9.738E+03	 3.562E+05	 8.302E+02
    6.5500	 5.179E+00	-1.696E-01	 0.000E+00	 3.596E+02	 1.396E-01	 0.000E+00	 1.962E+00	-2.802E-02	 9.916E+03	 1.177E+03	-5.324E+03	-7.781E+01	 3.595E+03	-1.861E+02	-6.812E+03	 9.468E+03	 3.234E+05	 8.384E+02
    6.6000	 4.795E+00	-1.668E-01	 0.000E+00	 3.597E+02	 1.897E-01	 0.000E+00	 1.752E+00	-2.814E-02	 9.612E+03	 1.082E+03	-4.540E+03	-9.021E+01	 3.250E+03	-1.663E+02	-6.764E+03	 8.744E+03	 2.895E+05	 8.141E+02
    6.6500	 4.279E+00	-1.612E-01	 0.000E+00	 3.598E+02	 2.310E-01	 0.000E+00	 1.524E+00	-2.752E-02	 9.043E+03	 9.738E+02	-3.554E+03	-8.598E+01	 2.894E+03	-1.369E+02	-6.722E+03	 7.633E+03	 2.534E+05	 7.603E+02
    6.7000	 3.666E+00	-1.576E-01	 0.000E+00	 3.598E+02	 2.614E-01	 0.000E+00	 1.283E+00	-2.628E-02	 8.048E+03	 8.467E+02	-2.411E+03	-6.600E+01	 2.465E+03	-1.027E+02	-6.688E+03	 6.282E+03	 2.136E+05	 6.753E+02
    6.7500	 2.983E+00	-1.587E-01	 0.000E+00	 3.599E+02	 2.796E-01	 0.000E+00	 1.030E+00	-2.453E-02	 6.571E+03	 6.942E+02	-1.165E+03	-3.412E+01	 1.943E+03	-6.818E+01	-6.658E+03	 4.844E+03	 1.700E+05	 5.547E+02
    6.8000	 2.245E+00	-1.643E-01	 0.000E+00	 3.600E+02	 2.851E-01	 0.000E+00	 7.674E-01	-2.243E-02	 4.699E+03	 5.124E+02	 1.256E+02	 3.750E+00	 1.367E+03	-3.573E+01	-6.631E+03	 3.411E+03	 1.239E+05	 3.958E+02
    6.8500	 1.458E+00	-1.708E-01	 0.000E+00	 8.090E-02	 2.787E-01	 0.000E+00	 4.977E-01	-2.011E-02	 2.633E+03	 3.052E+02	 1.406E+03	 4.104E+01	 8.063E+02	-4.757E+00	-6.609E+03	 1.999E+03	 7.734E+04	 2.014E+02
    6.9000	 6.249E-01	-1.733E-01	 0.000E+00	 1.621E-01	 2.608E-01	 0.000E+00	 2.228E-01	-1.775E-02	 6.023E+02	 8.617E+01	 2.625E+03	 7.169E+01	 3.073E+02	 2.654E+01	-6.594E+03	 5.896E+02	 3.192E+04	-1.947E+01
    6.9500	-2.478E-01	-1.680E-01	 0.000E+00	 2.363E-01	 2.323E-01	 0.000E+00	-5.509E-02	-1.551E-02	-1.223E+03	-1.228E+02	 3.730E+03	 9.074E+01	-1.390E+02	 5.859E+01	-6.593E+03	-7.984E+02	-1.235E+04	-2.518E+02