
Predictions were generated on 28-Sep-2017 at 11:51:44 using BeamDyn




Time        	RootFxr   	RootFyr   	RootFzr   	RootMxr   	RootMyr   	RootMzr   	N1Fxl     	N1Fyl     	N1Fzl     	N1Mxl     	N1Myl     	N1Mzl     	TipTDxr   	TipTDyr   	TipTDzr   	TipRDxr   	TipRDyr   	TipRDzr   
 (s)            	(N)       	(N)       	(N)       	(N-m)     	(N-m)     	(N-m)     	(N)       	(N)       	(N)       	(N-m)     	(N-m)     	(N-m)     	(m)       	(m)       	(m)       	(-)       	(-)       	(-)       
       0.000000	-6.299E-27	-1.051E+04	 1.074E+03	 2.570E+03	 1.523E+02	-2.305E+01	 6.032E-27	 1.627E+04	 0.000E+00	 2.131E-01	 1.692E-12	 9.927E+00	 0.000E+00	 0.000E+00	 0.000E+00	 0.000E+00	 0.000E+00	 0.000E+00
       0.002000	-1.124E+01	-1.800E+04	 2.981E+04	 2.419E+04	-1.019E+02	 9.238E+01	 2.593E+01	 2.179E+04	-2.724E+04	-2.457E+04	 5.346E+01	-8.800E+01	-1.613E-07	-1.782E-05	 1.199E-04	-4.668E-05	 1.335E-06	-1.459E-07
       0.004000	-4.739E+01	-2.931E+04	 7.265E+04	 6.608E+04	-2.425E+02	 2.717E+02	 6.489E+01	 3.034E+04	-6.940E+04	-6.752E+04	 2.091E+02	-2.477E+02	-6.606E-07	-6.177E-05	 4.762E-04	-1.591E-04	-1.917E-06	-5.051E-07
       0.006000	-8.728E+01	-4.201E+04	 1.223E+05	 1.196E+05	-4.595E+02	 4.695E+02	 1.093E+02	 4.022E+04	-1.193E+05	-1.205E+05	 4.423E+02	-4.347E+02	-1.675E-06	-1.069E-04	 1.057E-03	-2.740E-04	-5.233E-06	-9.425E-07
       0.008000	-1.322E+02	-5.395E+04	 1.757E+05	 1.759E+05	-7.948E+02	 6.567E+02	 1.629E+02	 4.982E+04	-1.732E+05	-1.761E+05	 7.650E+02	-6.247E+02	-3.395E-06	-1.305E-04	 1.846E-03	-3.814E-04	-8.435E-06	-1.237E-06
       0.010000	-1.840E+02	-6.342E+04	 2.308E+05	 2.289E+05	-1.250E+03	 8.225E+02	 2.257E+02	 5.786E+04	-2.285E+05	-2.287E+05	 1.209E+03	-8.048E+02	-6.025E-06	-1.153E-04	 2.822E-03	-4.924E-04	-1.207E-05	-1.092E-06
       0.012000	-2.426E+02	-6.948E+04	 2.858E+05	 2.756E+05	-1.832E+03	 9.685E+02	 2.958E+02	 6.361E+04	-2.832E+05	-2.753E+05	 1.790E+03	-9.702E+02	-9.761E-06	-5.210E-05	 3.956E-03	-6.172E-04	-1.648E-05	-1.972E-07
       0.014000	-3.089E+02	-7.211E+04	 3.389E+05	 3.157E+05	-2.540E+03	 1.100E+03	 3.726E+02	 6.703E+04	-3.358E+05	-3.155E+05	 2.502E+03	-1.120E+03	-1.478E-05	 5.945E-05	 5.220E-03	-7.586E-04	-2.180E-05	 1.687E-06
       0.016000	-3.850E+02	-7.207E+04	 3.887E+05	 3.509E+05	-3.353E+03	 1.221E+03	 4.567E+02	 6.864E+04	-3.852E+05	-3.508E+05	 3.322E+03	-1.252E+03	-2.121E-05	 2.116E-04	 6.584E-03	-9.143E-04	-2.802E-05	 4.658E-06
       0.018000	-4.719E+02	-7.066E+04	 4.346E+05	 3.846E+05	-4.238E+03	 1.329E+03	 5.471E+02	 6.935E+04	-4.309E+05	-3.845E+05	 4.214E+03	-1.363E+03	-2.913E-05	 3.901E-04	 8.017E-03	-1.080E-03	-3.509E-05	 8.638E-06
       0.020000	-5.675E+02	-6.929E+04	 4.760E+05	 4.203E+05	-5.148E+03	 1.417E+03	 6.404E+02	 7.014E+04	-4.723E+05	-4.203E+05	 5.131E+03	-1.448E+03	-3.854E-05	 5.775E-04	 9.484E-03	-1.250E-03	-4.287E-05	 1.336E-05
       0.022000	-6.656E+02	-6.923E+04	 5.123E+05	 4.611E+05	-6.034E+03	 1.481E+03	 7.309E+02	 7.188E+04	-5.087E+05	-4.612E+05	 6.023E+03	-1.505E+03	-4.938E-05	 7.557E-04	 1.095E-02	-1.421E-03	-5.119E-05	 1.842E-05
       0.024000	-7.574E+02	-7.130E+04	 5.431E+05	 5.091E+05	-6.844E+03	 1.517E+03	 8.106E+02	 7.516E+04	-5.396E+05	-5.092E+05	 6.836E+03	-1.533E+03	-6.150E-05	 9.093E-04	 1.236E-02	-1.589E-03	-5.987E-05	 2.330E-05
       0.026000	-8.323E+02	-7.579E+04	 5.677E+05	 5.644E+05	-7.536E+03	 1.527E+03	 8.711E+02	 8.011E+04	-5.644E+05	-5.644E+05	 7.530E+03	-1.536E+03	-7.469E-05	 1.027E-03	 1.367E-02	-1.753E-03	-6.874E-05	 2.747E-05
       0.028000	-8.802E+02	-8.240E+04	 5.859E+05	 6.256E+05	-8.084E+03	 1.520E+03	 9.044E+02	 8.651E+04	-5.827E+05	-6.255E+05	 8.076E+03	-1.524E+03	-8.868E-05	 1.103E-03	 1.481E-02	-1.910E-03	-7.764E-05	 3.043E-05
       0.030000	-8.937E+02	-9.040E+04	 5.976E+05	 6.900E+05	-8.478E+03	 1.504E+03	 9.052E+02	 9.378E+04	-5.945E+05	-6.899E+05	 8.467E+03	-1.505E+03	-1.032E-04	 1.137E-03	 1.574E-02	-2.061E-03	-8.643E-05	 3.179E-05
       0.032000	-8.694E+02	-9.880E+04	 6.029E+05	 7.544E+05	-8.733E+03	 1.491E+03	 8.714E+02	 1.012E+05	-5.998E+05	-7.542E+05	 8.719E+03	-1.490E+03	-1.178E-04	 1.133E-03	 1.639E-02	-2.207E-03	-9.498E-05	 3.126E-05
       0.034000	-8.093E+02	-1.066E+05	 6.021E+05	 8.153E+05	-8.879E+03	 1.489E+03	 8.048E+02	 1.080E+05	-5.989E+05	-8.150E+05	 8.863E+03	-1.485E+03	-1.323E-04	 1.097E-03	 1.673E-02	-2.350E-03	-1.032E-04	 2.877E-05
       0.036000	-7.200E+02	-1.129E+05	 5.953E+05	 8.700E+05	-8.965E+03	 1.503E+03	 7.114E+02	 1.135E+05	-5.921E+05	-8.696E+05	 8.948E+03	-1.497E+03	-1.462E-04	 1.036E-03	 1.674E-02	-2.491E-03	-1.110E-04	 2.440E-05
       0.038000	-6.117E+02	-1.172E+05	 5.829E+05	 9.165E+05	-9.044E+03	 1.533E+03	 5.995E+02	 1.173E+05	-5.797E+05	-9.161E+05	 9.029E+03	-1.525E+03	-1.591E-04	 9.588E-04	 1.641E-02	-2.632E-03	-1.182E-04	 1.843E-05
       0.040000	-4.967E+02	-1.193E+05	 5.652E+05	 9.544E+05	-9.172E+03	 1.578E+03	 4.794E+02	 1.194E+05	-5.620E+05	-9.540E+05	 9.161E+03	-1.569E+03	-1.706E-04	 8.723E-04	 1.577E-02	-2.774E-03	-1.247E-04	 1.132E-05
       0.042000	-3.868E+02	-1.194E+05	 5.426E+05	 9.843E+05	-9.397E+03	 1.633E+03	 3.607E+02	 1.198E+05	-5.394E+05	-9.839E+05	 9.391E+03	-1.623E+03	-1.803E-04	 7.824E-04	 1.486E-02	-2.918E-03	-1.303E-04	 3.641E-06
       0.044000	-2.916E+02	-1.180E+05	 5.155E+05	 1.008E+06	-9.756E+03	 1.692E+03	 2.518E+02	 1.190E+05	-5.123E+05	-1.007E+06	 9.757E+03	-1.683E+03	-1.877E-04	 6.941E-04	 1.372E-02	-3.065E-03	-1.349E-04	-3.910E-06
       0.046000	-2.173E+02	-1.158E+05	 4.846E+05	 1.026E+06	-1.027E+04	 1.751E+03	 1.584E+02	 1.174E+05	-4.813E+05	-1.026E+06	 1.028E+04	-1.744E+03	-1.923E-04	 6.126E-04	 1.242E-02	-3.214E-03	-1.383E-04	-1.061E-05
       0.048000	-1.658E+02	-1.134E+05	 4.504E+05	 1.043E+06	-1.096E+04	 1.804E+03	 8.333E+01	 1.155E+05	-4.471E+05	-1.043E+06	 1.097E+04	-1.799E+03	-1.937E-04	 5.435E-04	 1.103E-02	-3.365E-03	-1.401E-04	-1.574E-05
       0.050000	-1.355E+02	-1.113E+05	 4.138E+05	 1.059E+06	-1.181E+04	 1.847E+03	 2.681E+01	 1.137E+05	-4.104E+05	-1.059E+06	 1.183E+04	-1.845E+03	-1.914E-04	 4.937E-04	 9.602E-03	-3.520E-03	-1.403E-04	-1.867E-05
       0.052000	-1.227E+02	-1.099E+05	 3.757E+05	 1.076E+06	-1.284E+04	 1.879E+03	-1.260E+01	 1.122E+05	-3.724E+05	-1.076E+06	 1.286E+04	-1.878E+03	-1.851E-04	 4.719E-04	 8.198E-03	-3.679E-03	-1.385E-04	-1.888E-05
       0.054000	-1.226E+02	-1.093E+05	 3.373E+05	 1.094E+06	-1.402E+04	 1.896E+03	-3.693E+01	 1.114E+05	-3.340E+05	-1.094E+06	 1.404E+04	-1.896E+03	-1.744E-04	 4.888E-04	 6.867E-03	-3.843E-03	-1.347E-04	-1.598E-05
       0.056000	-1.313E+02	-1.095E+05	 2.996E+05	 1.114E+06	-1.537E+04	 1.899E+03	-4.758E+01	 1.110E+05	-2.964E+05	-1.114E+06	 1.539E+04	-1.898E+03	-1.592E-04	 5.561E-04	 5.650E-03	-4.014E-03	-1.288E-04	-9.812E-06
       0.058000	-1.474E+02	-1.101E+05	 2.641E+05	 1.135E+06	-1.689E+04	 1.887E+03	-4.446E+01	 1.109E+05	-2.609E+05	-1.135E+06	 1.692E+04	-1.886E+03	-1.395E-04	 6.863E-04	 4.581E-03	-4.195E-03	-1.206E-04	-3.570E-07
       0.060000	-1.719E+02	-1.108E+05	 2.320E+05	 1.157E+06	-1.861E+04	 1.864E+03	-2.550E+01	 1.110E+05	-2.289E+05	-1.157E+06	 1.863E+04	-1.862E+03	-1.154E-04	 8.914E-04	 3.683E-03	-4.387E-03	-1.102E-04	 1.221E-05
       0.062000	-2.092E+02	-1.115E+05	 2.046E+05	 1.179E+06	-2.053E+04	 1.832E+03	 1.327E+01	 1.110E+05	-2.017E+05	-1.179E+06	 2.056E+04	-1.828E+03	-8.729E-05	 1.182E-03	 2.975E-03	-4.592E-03	-9.771E-05	 2.755E-05
       0.064000	-2.656E+02	-1.118E+05	 1.833E+05	 1.201E+06	-2.269E+04	 1.795E+03	 7.705E+01	 1.109E+05	-1.805E+05	-1.201E+06	 2.272E+04	-1.789E+03	-5.558E-05	 1.566E-03	 2.466E-03	-4.812E-03	-8.321E-05	 4.523E-05
       0.066000	-3.481E+02	-1.118E+05	 1.692E+05	 1.222E+06	-2.511E+04	 1.757E+03	 1.714E+02	 1.105E+05	-1.664E+05	-1.222E+06	 2.513E+04	-1.749E+03	-2.102E-05	 2.048E-03	 2.161E-03	-5.047E-03	-6.688E-05	 6.469E-05
       0.068000	-4.633E+02	-1.113E+05	 1.629E+05	 1.244E+06	-2.779E+04	 1.721E+03	 3.009E+02	 1.100E+05	-1.602E+05	-1.244E+06	 2.781E+04	-1.713E+03	 1.556E-05	 2.630E-03	 2.061E-03	-5.299E-03	-4.895E-05	 8.535E-05
       0.070000	-6.157E+02	-1.107E+05	 1.652E+05	 1.267E+06	-3.073E+04	 1.690E+03	 4.685E+02	 1.095E+05	-1.624E+05	-1.267E+06	 3.075E+04	-1.682E+03	 5.316E-05	 3.308E-03	 2.159E-03	-5.568E-03	-2.966E-05	 1.066E-04
       0.072000	-8.065E+02	-1.101E+05	 1.758E+05	 1.291E+06	-3.392E+04	 1.667E+03	 6.744E+02	 1.091E+05	-1.731E+05	-1.291E+06	 3.394E+04	-1.659E+03	 9.062E-05	 4.076E-03	 2.447E-03	-5.851E-03	-9.307E-06	 1.280E-04
       0.074000	-1.033E+03	-1.099E+05	 1.946E+05	 1.317E+06	-3.733E+04	 1.651E+03	 9.158E+02	 1.091E+05	-1.919E+05	-1.318E+06	 3.735E+04	-1.644E+03	 1.267E-04	 4.924E-03	 2.912E-03	-6.150E-03	 1.183E-05	 1.489E-04
       0.076000	-1.291E+03	-1.101E+05	 2.206E+05	 1.347E+06	-4.092E+04	 1.642E+03	 1.187E+03	 1.096E+05	-2.178E+05	-1.348E+06	 4.093E+04	-1.637E+03	 1.600E-04	 5.840E-03	 3.537E-03	-6.461E-03	 3.341E-05	 1.690E-04
       0.078000	-1.571E+03	-1.110E+05	 2.527E+05	 1.381E+06	-4.462E+04	 1.639E+03	 1.481E+03	 1.107E+05	-2.498E+05	-1.381E+06	 4.463E+04	-1.635E+03	 1.892E-04	 6.809E-03	 4.302E-03	-6.783E-03	 5.510E-05	 1.880E-04
       0.080000	-1.864E+03	-1.126E+05	 2.893E+05	 1.417E+06	-4.839E+04	 1.637E+03	 1.789E+03	 1.124E+05	-2.863E+05	-1.418E+06	 4.840E+04	-1.636E+03	 2.126E-04	 7.814E-03	 5.183E-03	-7.114E-03	 7.654E-05	 2.056E-04
       0.082000	-2.159E+03	-1.149E+05	 3.287E+05	 1.457E+06	-5.216E+04	 1.635E+03	 2.101E+03	 1.147E+05	-3.257E+05	-1.458E+06	 5.216E+04	-1.637E+03	 2.286E-04	 8.838E-03	 6.154E-03	-7.453E-03	 9.734E-05	 2.216E-04
       0.084000	-2.447E+03	-1.176E+05	 3.693E+05	 1.500E+06	-5.588E+04	 1.629E+03	 2.409E+03	 1.174E+05	-3.661E+05	-1.500E+06	 5.588E+04	-1.633E+03	 2.358E-04	 9.860E-03	 7.186E-03	-7.797E-03	 1.171E-04	 2.362E-04
       0.086000	-2.721E+03	-1.207E+05	 4.092E+05	 1.545E+06	-5.951E+04	 1.616E+03	 2.706E+03	 1.204E+05	-4.060E+05	-1.545E+06	 5.951E+04	-1.622E+03	 2.323E-04	 1.086E-02	 8.249E-03	-8.144E-03	 1.354E-04	 2.492E-04
       0.088000	-2.977E+03	-1.239E+05	 4.471E+05	 1.590E+06	-6.301E+04	 1.594E+03	 2.986E+03	 1.235E+05	-4.438E+05	-1.590E+06	 6.300E+04	-1.601E+03	 2.165E-04	 1.182E-02	 9.312E-03	-8.492E-03	 1.518E-04	 2.607E-04
       0.090000	-3.210E+03	-1.270E+05	 4.815E+05	 1.636E+06	-6.634E+04	 1.562E+03	 3.244E+03	 1.266E+05	-4.781E+05	-1.636E+06	 6.632E+04	-1.570E+03	 1.868E-04	 1.272E-02	 1.034E-02	-8.840E-03	 1.659E-04	 2.708E-04
       0.092000	-3.420E+03	-1.298E+05	 5.113E+05	 1.682E+06	-6.947E+04	 1.520E+03	 3.479E+03	 1.295E+05	-5.080E+05	-1.681E+06	 6.946E+04	-1.528E+03	 1.416E-04	 1.353E-02	 1.131E-02	-9.184E-03	 1.774E-04	 2.794E-04
       0.094000	-3.607E+03	-1.324E+05	 5.359E+05	 1.726E+06	-7.241E+04	 1.469E+03	 3.688E+03	 1.322E+05	-5.325E+05	-1.726E+06	 7.238E+04	-1.476E+03	 7.955E-05	 1.424E-02	 1.218E-02	-9.523E-03	 1.857E-04	 2.868E-04
       0.096000	-3.770E+03	-1.347E+05	 5.546E+05	 1.770E+06	-7.511E+04	 1.410E+03	 3.871E+03	 1.347E+05	-5.512E+05	-1.770E+06	 7.509E+04	-1.416E+03	-8.400E-07	 1.482E-02	 1.292E-02	-9.853E-03	 1.907E-04	 2.928E-04
       0.098000	-3.910E+03	-1.366E+05	 5.672E+05	 1.812E+06	-7.757E+04	 1.347E+03	 4.026E+03	 1.368E+05	-5.638E+05	-1.812E+06	 7.755E+04	-1.351E+03	-1.007E-04	 1.525E-02	 1.352E-02	-1.017E-02	 1.919E-04	 2.975E-04
       0.100000	-4.027E+03	-1.383E+05	 5.737E+05	 1.853E+06	-7.978E+04	 1.283E+03	 4.151E+03	 1.387E+05	-5.703E+05	-1.853E+06	 7.975E+04	-1.284E+03	-2.211E-04	 1.552E-02	 1.394E-02	-1.048E-02	 1.893E-04	 3.008E-04
       0.102000	-4.117E+03	-1.398E+05	 5.741E+05	 1.893E+06	-8.172E+04	 1.220E+03	 4.245E+03	 1.404E+05	-5.708E+05	-1.893E+06	 8.169E+04	-1.220E+03	-3.628E-04	 1.560E-02	 1.417E-02	-1.078E-02	 1.825E-04	 3.027E-04
       0.104000	-4.179E+03	-1.412E+05	 5.689E+05	 1.932E+06	-8.338E+04	 1.164E+03	 4.306E+03	 1.419E+05	-5.656E+05	-1.931E+06	 8.335E+04	-1.161E+03	-5.265E-04	 1.548E-02	 1.421E-02	-1.106E-02	 1.715E-04	 3.030E-04
       0.106000	-4.211E+03	-1.425E+05	 5.584E+05	 1.969E+06	-8.476E+04	 1.117E+03	 4.331E+03	 1.432E+05	-5.551E+05	-1.969E+06	 8.473E+04	-1.112E+03	-7.125E-04	 1.516E-02	 1.405E-02	-1.132E-02	 1.563E-04	 3.018E-04
       0.108000	-4.211E+03	-1.438E+05	 5.432E+05	 2.006E+06	-8.585E+04	 1.081E+03	 4.321E+03	 1.444E+05	-5.400E+05	-2.006E+06	 8.582E+04	-1.075E+03	-9.212E-04	 1.461E-02	 1.369E-02	-1.157E-02	 1.367E-04	 2.989E-04
       0.110000	-4.177E+03	-1.449E+05	 5.239E+05	 2.042E+06	-8.667E+04	 1.057E+03	 4.276E+03	 1.454E+05	-5.207E+05	-2.042E+06	 8.664E+04	-1.051E+03	-1.152E-03	 1.384E-02	 1.316E-02	-1.179E-02	 1.129E-04	 2.942E-04
       0.112000	-4.112E+03	-1.459E+05	 5.012E+05	 2.077E+06	-8.722E+04	 1.046E+03	 4.196E+03	 1.463E+05	-4.980E+05	-2.077E+06	 8.720E+04	-1.040E+03	-1.406E-03	 1.284E-02	 1.246E-02	-1.200E-02	 8.491E-05	 2.877E-04
       0.114000	-4.017E+03	-1.468E+05	 4.758E+05	 2.111E+06	-8.754E+04	 1.048E+03	 4.086E+03	 1.470E+05	-4.726E+05	-2.111E+06	 8.752E+04	-1.042E+03	-1.682E-03	 1.162E-02	 1.163E-02	-1.219E-02	 5.289E-05	 2.794E-04
       0.116000	-3.898E+03	-1.475E+05	 4.484E+05	 2.144E+06	-8.766E+04	 1.060E+03	 3.949E+03	 1.475E+05	-4.452E+05	-2.144E+06	 8.764E+04	-1.055E+03	-1.979E-03	 1.017E-02	 1.070E-02	-1.237E-02	 1.699E-05	 2.692E-04
       0.118000	-3.759E+03	-1.480E+05	 4.199E+05	 2.176E+06	-8.762E+04	 1.081E+03	 3.793E+03	 1.478E+05	-4.167E+05	-2.176E+06	 8.760E+04	-1.078E+03	-2.297E-03	 8.512E-03	 9.700E-03	-1.253E-02	-2.258E-05	 2.571E-04
       0.120000	-3.607E+03	-1.483E+05	 3.910E+05	 2.208E+06	-8.746E+04	 1.107E+03	 3.623E+03	 1.480E+05	-3.878E+05	-2.208E+06	 8.745E+04	-1.106E+03	-2.636E-03	 6.641E-03	 8.675E-03	-1.267E-02	-6.561E-05	 2.432E-04
       0.122000	-3.451E+03	-1.485E+05	 3.626E+05	 2.240E+06	-8.723E+04	 1.137E+03	 3.448E+03	 1.481E+05	-3.595E+05	-2.240E+06	 8.722E+04	-1.137E+03	-2.993E-03	 4.573E-03	 7.661E-03	-1.281E-02	-1.118E-04	 2.275E-04
       0.124000	-3.296E+03	-1.487E+05	 3.355E+05	 2.271E+06	-8.696E+04	 1.166E+03	 3.274E+03	 1.481E+05	-3.324E+05	-2.271E+06	 8.696E+04	-1.168E+03	-3.369E-03	 2.317E-03	 6.695E-03	-1.293E-02	-1.610E-04	 2.099E-04
       0.126000	-3.150E+03	-1.490E+05	 3.105E+05	 2.304E+06	-8.671E+04	 1.192E+03	 3.107E+03	 1.483E+05	-3.075E+05	-2.304E+06	 8.671E+04	-1.195E+03	-3.763E-03	-1.117E-04	 5.810E-03	-1.303E-02	-2.128E-04	 1.906E-04
       0.128000	-3.016E+03	-1.493E+05	 2.885E+05	 2.337E+06	-8.650E+04	 1.213E+03	 2.953E+03	 1.485E+05	-2.854E+05	-2.338E+06	 8.651E+04	-1.218E+03	-4.172E-03	-2.700E-03	 5.036E-03	-1.313E-02	-2.669E-04	 1.695E-04
       0.130000	-2.899E+03	-1.499E+05	 2.700E+05	 2.373E+06	-8.637E+04	 1.228E+03	 2.816E+03	 1.490E+05	-2.670E+05	-2.373E+06	 8.638E+04	-1.233E+03	-4.597E-03	-5.435E-03	 4.396E-03	-1.323E-02	-3.231E-04	 1.466E-04
       0.132000	-2.803E+03	-1.508E+05	 2.557E+05	 2.409E+06	-8.634E+04	 1.234E+03	 2.700E+03	 1.498E+05	-2.528E+05	-2.409E+06	 8.635E+04	-1.240E+03	-5.035E-03	-8.299E-03	 3.908E-03	-1.332E-02	-3.810E-04	 1.220E-04
       0.134000	-2.727E+03	-1.519E+05	 2.462E+05	 2.448E+06	-8.642E+04	 1.233E+03	 2.608E+03	 1.509E+05	-2.432E+05	-2.448E+06	 8.644E+04	-1.239E+03	-5.486E-03	-1.128E-02	 3.584E-03	-1.340E-02	-4.404E-04	 9.570E-05
       0.136000	-2.674E+03	-1.534E+05	 2.417E+05	 2.489E+06	-8.664E+04	 1.225E+03	 2.541E+03	 1.523E+05	-2.388E+05	-2.489E+06	 8.666E+04	-1.229E+03	-5.949E-03	-1.436E-02	 3.430E-03	-1.348E-02	-5.010E-04	 6.769E-05
       0.138000	-2.644E+03	-1.553E+05	 2.425E+05	 2.532E+06	-8.699E+04	 1.209E+03	 2.500E+03	 1.541E+05	-2.396E+05	-2.532E+06	 8.701E+04	-1.213E+03	-6.423E-03	-1.753E-02	 3.444E-03	-1.356E-02	-5.625E-04	 3.804E-05
       0.140000	-2.637E+03	-1.574E+05	 2.486E+05	 2.577E+06	-8.749E+04	 1.187E+03	 2.486E+03	 1.562E+05	-2.457E+05	-2.577E+06	 8.751E+04	-1.190E+03	-6.907E-03	-2.078E-02	 3.621E-03	-1.364E-02	-6.247E-04	 6.834E-06
       0.142000	-2.653E+03	-1.599E+05	 2.598E+05	 2.623E+06	-8.813E+04	 1.161E+03	 2.499E+03	 1.587E+05	-2.569E+05	-2.624E+06	 8.815E+04	-1.162E+03	-7.399E-03	-2.409E-02	 3.949E-03	-1.372E-02	-6.875E-04	-2.580E-05
       0.144000	-2.690E+03	-1.626E+05	 2.757E+05	 2.671E+06	-8.890E+04	 1.132E+03	 2.537E+03	 1.614E+05	-2.728E+05	-2.672E+06	 8.892E+04	-1.131E+03	-7.900E-03	-2.745E-02	 4.413E-03	-1.381E-02	-7.508E-04	-5.972E-05
       0.146000	-2.750E+03	-1.655E+05	 2.958E+05	 2.721E+06	-8.979E+04	 1.100E+03	 2.601E+03	 1.643E+05	-2.929E+05	-2.721E+06	 8.981E+04	-1.098E+03	-8.408E-03	-3.086E-02	 4.994E-03	-1.389E-02	-8.143E-04	-9.474E-05
       0.148000	-2.830E+03	-1.685E+05	 3.193E+05	 2.771E+06	-9.079E+04	 1.066E+03	 2.689E+03	 1.675E+05	-3.164E+05	-2.771E+06	 9.082E+04	-1.063E+03	-8.924E-03	-3.430E-02	 5.671E-03	-1.398E-02	-8.780E-04	-1.306E-04
       0.150000	-2.929E+03	-1.717E+05	 3.454E+05	 2.822E+06	-9.188E+04	 1.032E+03	 2.797E+03	 1.708E+05	-3.424E+05	-2.822E+06	 9.191E+04	-1.028E+03	-9.446E-03	-3.777E-02	 6.420E-03	-1.408E-02	-9.419E-04	-1.671E-04
       0.152000	-3.043E+03	-1.750E+05	 3.730E+05	 2.872E+06	-9.303E+04	 9.971E+02	 2.924E+03	 1.743E+05	-3.700E+05	-2.873E+06	 9.306E+04	-9.926E+02	-9.974E-03	-4.128E-02	 7.216E-03	-1.417E-02	-1.006E-03	-2.040E-04
       0.154000	-3.170E+03	-1.783E+05	 4.012E+05	 2.923E+06	-9.421E+04	 9.619E+02	 3.065E+03	 1.778E+05	-3.981E+05	-2.923E+06	 9.424E+04	-9.569E+02	-1.051E-02	-4.480E-02	 8.033E-03	-1.428E-02	-1.070E-03	-2.410E-04
       0.156000	-3.305E+03	-1.817E+05	 4.289E+05	 2.972E+06	-9.539E+04	 9.261E+02	 3.214E+03	 1.813E+05	-4.258E+05	-2.972E+06	 9.541E+04	-9.208E+02	-1.105E-02	-4.835E-02	 8.846E-03	-1.438E-02	-1.134E-03	-2.778E-04
       0.158000	-3.444E+03	-1.849E+05	 4.551E+05	 3.020E+06	-9.652E+04	 8.894E+02	 3.368E+03	 1.848E+05	-4.519E+05	-3.020E+06	 9.654E+04	-8.839E+02	-1.159E-02	-5.192E-02	 9.630E-03	-1.449E-02	-1.199E-03	-3.143E-04
       0.160000	-3.580E+03	-1.881E+05	 4.789E+05	 3.067E+06	-9.758E+04	 8.514E+02	 3.520E+03	 1.881E+05	-4.757E+05	-3.067E+06	 9.759E+04	-8.458E+02	-1.214E-02	-5.551E-02	 1.036E-02	-1.460E-02	-1.264E-03	-3.502E-04
       0.162000	-3.708E+03	-1.911E+05	 4.994E+05	 3.111E+06	-9.851E+04	 8.115E+02	 3.664E+03	 1.913E+05	-4.962E+05	-3.111E+06	 9.852E+04	-8.061E+02	-1.270E-02	-5.912E-02	 1.101E-02	-1.471E-02	-1.329E-03	-3.854E-04
       0.164000	-3.822E+03	-1.939E+05	 5.161E+05	 3.152E+06	-9.928E+04	 7.696E+02	 3.794E+03	 1.942E+05	-5.129E+05	-3.152E+06	 9.929E+04	-7.645E+02	-1.326E-02	-6.275E-02	 1.157E-02	-1.482E-02	-1.395E-03	-4.198E-04
       0.166000	-3.919E+03	-1.963E+05	 5.285E+05	 3.190E+06	-9.985E+04	 7.253E+02	 3.906E+03	 1.968E+05	-5.252E+05	-3.190E+06	 9.986E+04	-7.205E+02	-1.383E-02	-6.640E-02	 1.202E-02	-1.494E-02	-1.461E-03	-4.535E-04
       0.168000	-3.993E+03	-1.984E+05	 5.362E+05	 3.224E+06	-1.002E+05	 6.787E+02	 3.995E+03	 1.991E+05	-5.329E+05	-3.224E+06	 1.002E+05	-6.743E+02	-1.440E-02	-7.008E-02	 1.234E-02	-1.505E-02	-1.528E-03	-4.865E-04
       0.170000	-4.041E+03	-2.001E+05	 5.391E+05	 3.254E+06	-1.003E+05	 6.297E+02	 4.056E+03	 2.009E+05	-5.358E+05	-3.254E+06	 1.003E+05	-6.257E+02	-1.497E-02	-7.378E-02	 1.253E-02	-1.517E-02	-1.596E-03	-5.191E-04
       0.172000	-4.061E+03	-2.014E+05	 5.373E+05	 3.280E+06	-1.001E+05	 5.785E+02	 4.087E+03	 2.022E+05	-5.341E+05	-3.280E+06	 1.001E+05	-5.751E+02	-1.555E-02	-7.750E-02	 1.257E-02	-1.528E-02	-1.664E-03	-5.512E-04
       0.174000	-4.050E+03	-2.022E+05	 5.311E+05	 3.301E+06	-9.965E+04	 5.254E+02	 4.086E+03	 2.030E+05	-5.278E+05	-3.301E+06	 9.965E+04	-5.226E+02	-1.614E-02	-8.125E-02	 1.248E-02	-1.540E-02	-1.733E-03	-5.834E-04
       0.176000	-4.007E+03	-2.024E+05	 5.206E+05	 3.318E+06	-9.889E+04	 4.707E+02	 4.051E+03	 2.034E+05	-5.174E+05	-3.318E+06	 9.889E+04	-4.686E+02	-1.673E-02	-8.502E-02	 1.224E-02	-1.551E-02	-1.804E-03	-6.158E-04
       0.178000	-3.932E+03	-2.022E+05	 5.065E+05	 3.330E+06	-9.783E+04	 4.147E+02	 3.981E+03	 2.032E+05	-5.033E+05	-3.330E+06	 9.783E+04	-4.133E+02	-1.732E-02	-8.881E-02	 1.188E-02	-1.563E-02	-1.875E-03	-6.488E-04
       0.180000	-3.826E+03	-2.015E+05	 4.894E+05	 3.338E+06	-9.647E+04	 3.575E+02	 3.878E+03	 2.025E+05	-4.862E+05	-3.338E+06	 9.647E+04	-3.570E+02	-1.792E-02	-9.261E-02	 1.141E-02	-1.574E-02	-1.947E-03	-6.827E-04
       0.182000	-3.689E+03	-2.004E+05	 4.698E+05	 3.341E+06	-9.483E+04	 2.993E+02	 3.742E+03	 2.013E+05	-4.666E+05	-3.341E+06	 9.483E+04	-2.997E+02	-1.852E-02	-9.643E-02	 1.083E-02	-1.586E-02	-2.020E-03	-7.179E-04
       0.184000	-3.523E+03	-1.988E+05	 4.485E+05	 3.340E+06	-9.291E+04	 2.400E+02	 3.574E+03	 1.997E+05	-4.454E+05	-3.340E+06	 9.291E+04	-2.414E+02	-1.913E-02	-1.003E-01	 1.018E-02	-1.597E-02	-2.094E-03	-7.548E-04
       0.186000	-3.331E+03	-1.969E+05	 4.262E+05	 3.336E+06	-9.073E+04	 1.795E+02	 3.377E+03	 1.976E+05	-4.231E+05	-3.336E+06	 9.073E+04	-1.818E+02	-1.974E-02	-1.041E-01	 9.467E-03	-1.609E-02	-2.169E-03	-7.935E-04
       0.188000	-3.113E+03	-1.946E+05	 4.037E+05	 3.328E+06	-8.833E+04	 1.176E+02	 3.153E+03	 1.953E+05	-4.006E+05	-3.328E+06	 8.833E+04	-1.208E+02	-2.035E-02	-1.079E-01	 8.726E-03	-1.621E-02	-2.245E-03	-8.343E-04
       0.190000	-2.874E+03	-1.921E+05	 3.815E+05	 3.317E+06	-8.572E+04	 5.387E+01	 2.906E+03	 1.926E+05	-3.785E+05	-3.317E+06	 8.572E+04	-5.800E+01	-2.096E-02	-1.117E-01	 7.978E-03	-1.633E-02	-2.322E-03	-8.774E-04
       0.192000	-2.617E+03	-1.893E+05	 3.606E+05	 3.304E+06	-8.294E+04	-1.187E+01	 2.641E+03	 1.897E+05	-3.575E+05	-3.304E+06	 8.294E+04	 6.994E+00	-2.158E-02	-1.155E-01	 7.249E-03	-1.645E-02	-2.399E-03	-9.231E-04
       0.194000	-2.346E+03	-1.864E+05	 3.413E+05	 3.289E+06	-8.002E+04	-7.989E+01	 2.360E+03	 1.866E+05	-3.383E+05	-3.289E+06	 8.002E+04	 7.444E+01	-2.219E-02	-1.193E-01	 6.564E-03	-1.658E-02	-2.478E-03	-9.712E-04
       0.196000	-2.065E+03	-1.833E+05	 3.244E+05	 3.272E+06	-7.700E+04	-1.503E+02	 2.069E+03	 1.833E+05	-3.214E+05	-3.272E+06	 7.700E+04	 1.445E+02	-2.281E-02	-1.230E-01	 5.945E-03	-1.671E-02	-2.556E-03	-1.022E-03
       0.198000	-1.778E+03	-1.802E+05	 3.104E+05	 3.255E+06	-7.392E+04	-2.230E+02	 1.773E+03	 1.801E+05	-3.074E+05	-3.255E+06	 7.392E+04	 2.171E+02	-2.343E-02	-1.268E-01	 5.412E-03	-1.684E-02	-2.636E-03	-1.075E-03
       0.200000	-1.490E+03	-1.770E+05	 2.995E+05	 3.237E+06	-7.081E+04	-2.978E+02	 1.476E+03	 1.768E+05	-2.965E+05	-3.237E+06	 7.082E+04	 2.920E+02	-2.404E-02	-1.304E-01	 4.981E-03	-1.699E-02	-2.716E-03	-1.131E-03
       0.202000	-1.206E+03	-1.739E+05	 2.922E+05	 3.219E+06	-6.772E+04	-3.742E+02	 1.183E+03	 1.736E+05	-2.892E+05	-3.219E+06	 6.773E+04	 3.688E+02	-2.465E-02	-1.340E-01	 4.664E-03	-1.713E-02	-2.796E-03	-1.189E-03
       0.204000	-9.293E+02	-1.710E+05	 2.886E+05	 3.201E+06	-6.469E+04	-4.513E+02	 8.991E+02	 1.705E+05	-2.856E+05	-3.201E+06	 6.470E+04	 4.466E+02	-2.527E-02	-1.376E-01	 4.469E-03	-1.729E-02	-2.876E-03	-1.250E-03
       0.206000	-6.648E+02	-1.682E+05	 2.888E+05	 3.185E+06	-6.175E+04	-5.284E+02	 6.285E+02	 1.676E+05	-2.858E+05	-3.185E+06	 6.176E+04	 5.245E+02	-2.588E-02	-1.411E-01	 4.399E-03	-1.745E-02	-2.956E-03	-1.312E-03
       0.208000	-4.158E+02	-1.656E+05	 2.928E+05	 3.170E+06	-5.892E+04	-6.042E+02	 3.748E+02	 1.649E+05	-2.898E+05	-3.170E+06	 5.893E+04	 6.014E+02	-2.648E-02	-1.446E-01	 4.453E-03	-1.762E-02	-3.037E-03	-1.376E-03
       0.210000	-1.852E+02	-1.632E+05	 3.003E+05	 3.157E+06	-5.625E+04	-6.776E+02	 1.412E+02	 1.624E+05	-2.974E+05	-3.157E+06	 5.626E+04	 6.759E+02	-2.709E-02	-1.480E-01	 4.625E-03	-1.780E-02	-3.118E-03	-1.443E-03
       0.212000	 2.434E+01	-1.611E+05	 3.113E+05	 3.145E+06	-5.375E+04	-7.473E+02	-6.967E+01	 1.603E+05	-3.083E+05	-3.146E+06	 5.376E+04	 7.468E+02	-2.768E-02	-1.513E-01	 4.907E-03	-1.798E-02	-3.198E-03	-1.510E-03
       0.214000	 2.111E+02	-1.593E+05	 3.251E+05	 3.137E+06	-5.144E+04	-8.122E+02	-2.559E+02	 1.585E+05	-3.222E+05	-3.137E+06	 5.145E+04	 8.129E+02	-2.828E-02	-1.546E-01	 5.285E-03	-1.817E-02	-3.279E-03	-1.579E-03
       0.216000	 3.739E+02	-1.578E+05	 3.415E+05	 3.130E+06	-4.934E+04	-8.713E+02	-4.162E+02	 1.569E+05	-3.385E+05	-3.130E+06	 4.935E+04	 8.731E+02	-2.887E-02	-1.578E-01	 5.743E-03	-1.837E-02	-3.360E-03	-1.650E-03
       0.218000	 5.122E+02	-1.565E+05	 3.598E+05	 3.126E+06	-4.746E+04	-9.236E+02	-5.500E+02	 1.557E+05	-3.568E+05	-3.126E+06	 4.747E+04	 9.263E+02	-2.946E-02	-1.609E-01	 6.264E-03	-1.857E-02	-3.440E-03	-1.721E-03
       0.220000	 6.257E+02	-1.556E+05	 3.793E+05	 3.124E+06	-4.581E+04	-9.685E+02	-6.572E+02	 1.549E+05	-3.763E+05	-3.124E+06	 4.581E+04	 9.721E+02	-3.004E-02	-1.641E-01	 6.828E-03	-1.878E-02	-3.521E-03	-1.794E-03
       0.222000	 7.150E+02	-1.550E+05	 3.995E+05	 3.125E+06	-4.438E+04	-1.006E+03	-7.385E+02	 1.543E+05	-3.965E+05	-3.125E+06	 4.438E+04	 1.010E+03	-3.061E-02	-1.671E-01	 7.414E-03	-1.899E-02	-3.602E-03	-1.868E-03
       0.224000	 7.809E+02	-1.546E+05	 4.196E+05	 3.129E+06	-4.317E+04	-1.036E+03	-7.950E+02	 1.540E+05	-4.165E+05	-3.129E+06	 4.317E+04	 1.040E+03	-3.118E-02	-1.702E-01	 8.002E-03	-1.921E-02	-3.682E-03	-1.943E-03
       0.226000	 8.248E+02	-1.544E+05	 4.390E+05	 3.134E+06	-4.218E+04	-1.058E+03	-8.281E+02	 1.539E+05	-4.359E+05	-3.134E+06	 4.218E+04	 1.063E+03	-3.174E-02	-1.731E-01	 8.572E-03	-1.942E-02	-3.763E-03	-2.019E-03
       0.228000	 8.482E+02	-1.545E+05	 4.569E+05	 3.142E+06	-4.141E+04	-1.074E+03	-8.398E+02	 1.541E+05	-4.538E+05	-3.142E+06	 4.140E+04	 1.079E+03	-3.230E-02	-1.761E-01	 9.105E-03	-1.964E-02	-3.844E-03	-2.097E-03
       0.230000	 8.531E+02	-1.547E+05	 4.729E+05	 3.152E+06	-4.082E+04	-1.085E+03	-8.323E+02	 1.544E+05	-4.697E+05	-3.152E+06	 4.081E+04	 1.089E+03	-3.285E-02	-1.790E-01	 9.583E-03	-1.986E-02	-3.925E-03	-2.176E-03
       0.232000	 8.416E+02	-1.551E+05	 4.863E+05	 3.164E+06	-4.042E+04	-1.091E+03	-8.083E+02	 1.549E+05	-4.831E+05	-3.164E+06	 4.041E+04	 1.094E+03	-3.339E-02	-1.820E-01	 9.991E-03	-2.008E-02	-4.007E-03	-2.257E-03
       0.234000	 8.162E+02	-1.557E+05	 4.968E+05	 3.177E+06	-4.018E+04	-1.094E+03	-7.703E+02	 1.555E+05	-4.936E+05	-3.177E+06	 4.017E+04	 1.097E+03	-3.393E-02	-1.849E-01	 1.032E-02	-2.030E-02	-4.089E-03	-2.339E-03
       0.236000	 7.794E+02	-1.563E+05	 5.040E+05	 3.192E+06	-4.009E+04	-1.096E+03	-7.212E+02	 1.562E+05	-5.008E+05	-3.192E+06	 4.008E+04	 1.098E+03	-3.446E-02	-1.877E-01	 1.055E-02	-2.052E-02	-4.171E-03	-2.424E-03
       0.238000	 7.336E+02	-1.569E+05	 5.079E+05	 3.208E+06	-4.013E+04	-1.098E+03	-6.638E+02	 1.570E+05	-5.046E+05	-3.208E+06	 4.012E+04	 1.099E+03	-3.498E-02	-1.906E-01	 1.068E-02	-2.073E-02	-4.253E-03	-2.512E-03
       0.240000	 6.814E+02	-1.576E+05	 5.082E+05	 3.225E+06	-4.028E+04	-1.101E+03	-6.011E+02	 1.578E+05	-5.050E+05	-3.225E+06	 4.026E+04	 1.101E+03	-3.549E-02	-1.935E-01	 1.071E-02	-2.095E-02	-4.336E-03	-2.602E-03
       0.242000	 6.253E+02	-1.583E+05	 5.051E+05	 3.242E+06	-4.052E+04	-1.108E+03	-5.355E+02	 1.586E+05	-5.019E+05	-3.242E+06	 4.050E+04	 1.107E+03	-3.600E-02	-1.963E-01	 1.063E-02	-2.116E-02	-4.420E-03	-2.695E-03
       0.244000	 5.674E+02	-1.590E+05	 4.988E+05	 3.261E+06	-4.083E+04	-1.118E+03	-4.695E+02	 1.593E+05	-4.956E+05	-3.261E+06	 4.081E+04	 1.117E+03	-3.650E-02	-1.992E-01	 1.046E-02	-2.136E-02	-4.504E-03	-2.791E-03
       0.246000	 5.099E+02	-1.597E+05	 4.896E+05	 3.280E+06	-4.120E+04	-1.135E+03	-4.053E+02	 1.600E+05	-4.864E+05	-3.280E+06	 4.118E+04	 1.133E+03	-3.699E-02	-2.020E-01	 1.019E-02	-2.157E-02	-4.588E-03	-2.891E-03
       0.248000	 4.544E+02	-1.604E+05	 4.778E+05	 3.300E+06	-4.162E+04	-1.158E+03	-3.447E+02	 1.607E+05	-4.746E+05	-3.300E+06	 4.159E+04	 1.156E+03	-3.746E-02	-2.048E-01	 9.834E-03	-2.177E-02	-4.673E-03	-2.994E-03
       0.250000	 4.023E+02	-1.610E+05	 4.639E+05	 3.320E+06	-4.206E+04	-1.189E+03	-2.891E+02	 1.614E+05	-4.607E+05	-3.320E+06	 4.204E+04	 1.186E+03	-3.793E-02	-2.076E-01	 9.406E-03	-2.197E-02	-4.758E-03	-3.101E-03
       0.252000	 3.547E+02	-1.615E+05	 4.484E+05	 3.340E+06	-4.252E+04	-1.228E+03	-2.397E+02	 1.619E+05	-4.453E+05	-3.340E+06	 4.250E+04	 1.225E+03	-3.839E-02	-2.103E-01	 8.919E-03	-2.217E-02	-4.843E-03	-3.212E-03
       0.254000	 3.121E+02	-1.621E+05	 4.319E+05	 3.362E+06	-4.300E+04	-1.276E+03	-1.970E+02	 1.625E+05	-4.288E+05	-3.361E+06	 4.298E+04	 1.272E+03	-3.884E-02	-2.130E-01	 8.388E-03	-2.237E-02	-4.929E-03	-3.327E-03
       0.256000	 2.750E+02	-1.626E+05	 4.150E+05	 3.383E+06	-4.348E+04	-1.332E+03	-1.613E+02	 1.630E+05	-4.119E+05	-3.383E+06	 4.346E+04	 1.329E+03	-3.927E-02	-2.156E-01	 7.831E-03	-2.257E-02	-5.014E-03	-3.446E-03
       0.258000	 2.434E+02	-1.631E+05	 3.982E+05	 3.405E+06	-4.396E+04	-1.397E+03	-1.326E+02	 1.635E+05	-3.952E+05	-3.405E+06	 4.395E+04	 1.394E+03	-3.969E-02	-2.182E-01	 7.267E-03	-2.278E-02	-5.099E-03	-3.569E-03
       0.260000	 2.170E+02	-1.637E+05	 3.822E+05	 3.428E+06	-4.445E+04	-1.471E+03	-1.104E+02	 1.640E+05	-3.791E+05	-3.428E+06	 4.443E+04	 1.468E+03	-4.010E-02	-2.206E-01	 6.712E-03	-2.298E-02	-5.184E-03	-3.695E-03
       0.262000	 1.953E+02	-1.642E+05	 3.673E+05	 3.452E+06	-4.494E+04	-1.554E+03	-9.407E+01	 1.645E+05	-3.643E+05	-3.452E+06	 4.492E+04	 1.551E+03	-4.049E-02	-2.230E-01	 6.184E-03	-2.319E-02	-5.269E-03	-3.825E-03
       0.264000	 1.775E+02	-1.649E+05	 3.541E+05	 3.477E+06	-4.543E+04	-1.644E+03	-8.276E+01	 1.650E+05	-3.511E+05	-3.477E+06	 4.541E+04	 1.642E+03	-4.086E-02	-2.252E-01	 5.700E-03	-2.341E-02	-5.352E-03	-3.958E-03
       0.266000	 1.629E+02	-1.656E+05	 3.430E+05	 3.502E+06	-4.592E+04	-1.742E+03	-7.538E+01	 1.657E+05	-3.400E+05	-3.502E+06	 4.591E+04	 1.741E+03	-4.122E-02	-2.273E-01	 5.274E-03	-2.364E-02	-5.435E-03	-4.094E-03
       0.268000	 1.504E+02	-1.663E+05	 3.343E+05	 3.529E+06	-4.643E+04	-1.847E+03	-7.073E+01	 1.664E+05	-3.313E+05	-3.529E+06	 4.642E+04	 1.846E+03	-4.156E-02	-2.293E-01	 4.918E-03	-2.387E-02	-5.517E-03	-4.233E-03
       0.270000	 1.390E+02	-1.672E+05	 3.282E+05	 3.557E+06	-4.695E+04	-1.958E+03	-6.756E+01	 1.673E+05	-3.253E+05	-3.557E+06	 4.694E+04	 1.958E+03	-4.188E-02	-2.311E-01	 4.642E-03	-2.411E-02	-5.597E-03	-4.374E-03
       0.272000	 1.277E+02	-1.683E+05	 3.250E+05	 3.586E+06	-4.749E+04	-2.075E+03	-6.459E+01	 1.683E+05	-3.220E+05	-3.586E+06	 4.749E+04	 2.075E+03	-4.218E-02	-2.328E-01	 4.454E-03	-2.437E-02	-5.676E-03	-4.517E-03