
Predictions were generated on 29-Sep-2025 at 15:43:49 using HydroDyn Driver, compiled on Sep 29 2025 at 14:49:13 as a 64-bit application using double precision at commit v4.1.2-165-g1d0ee6c2-dirty
 linked with  NWTC Subroutine Library

Description from the driver input file: NREL 5.0 MW offshore baseline floating platform HydroDyn input properties for the TLP

Time	Wave1Elev	HydroFxi	HydroFyi	HydroFzi	HydroMxi	HydroMyi	HydroMzi	B1Surge	B1Sway	B1Heave	B1Roll	B1Pitch	B1Yaw	B1TVxi	B1TVyi	B1TVzi	B1RVxi	B1RVyi	B1RVzi	B1TAxi	B1TAyi	B1TAzi	B1RAxi	B1RAyi	B1RAzi	B1WvsFxi	B1WvsFyi	B1WvsFzi	B1WvsMxi	B1WvsMyi	B1WvsMzi	B1HDSFxi	B1HDSFyi	B1HDSFzi	B1HDSMxi	B1HDSMyi	B1HDSMzi	B1RdtFxi	B1RdtFyi	B1RdtFzi	B1RdtMxi	B1RdtMyi	B1RdtMzi
(s)	(m)	(N)	(N)	(N)	(N-m)	(N-m)	(N-m)	(m)	(m)	(m)	(rad)	(rad)	(rad)	(m/s)	(m/s)	(m/s)	(rad/s)	(rad/s)	(rad/s)	(m/s^2)	(m/s^2)	(m/s^2)	(rad/s^2)	(rad/s^2)	(rad/s^2)	(N)	(N)	(N)	(N-m)	(N-m)	(N-m)	(N)	(N)	(N)	(N-m)	(N-m)	(N-m)	(N)	(N)	(N)	(N-m)	(N-m)	(N-m)
    0.0000	  -5.621923E-02	  -1.178007E+07	  -3.600912E+06	   1.223920E+08	  -6.829758E+07	   2.170187E+08	   2.039721E-02	   0.000000E+00	   0.000000E+00	   0.000000E+00	   0.000000E+00	   0.000000E+00	   0.000000E+00	   0.000000E+00	   0.000000E+00	   0.000000E+00	   0.000000E+00	   0.000000E+00	   0.000000E+00	   2.862682E+00	   5.415253E-01	   6.724742E-03	  -1.289309E-02	   6.806622E-02	  -1.729341E-11	  -1.378208E+06	  -1.636637E+06	  -2.503758E+04	  -3.349928E+07	   3.255117E+07	   2.039721E-02	   0.000000E+00	   0.000000E+00	   1.224271E+08	   0.000000E+00	   0.000000E+00	   0.000000E+00	  -1.040144E+07	  -1.963746E+06	  -1.011699E+04	  -3.477834E+07	   1.844625E+08	   3.162615E-16
    0.0125	  -5.575502E-02	  -1.181873E+07	  -3.606744E+06	   1.223890E+08	  -6.844195E+07	   2.179268E+08	   1.332959E-01	   2.229349E-04	   4.193516E-05	   5.307285E-07	  -9.983314E-07	   5.300380E-06	  -1.783539E-14	   3.557152E-02	   6.667117E-03	   8.529790E-05	  -1.587091E-04	   8.456804E-04	  -6.144161E-12	   2.872404E+00	   5.421930E-01	   7.430342E-03	  -1.288622E-02	   6.823986E-02	   2.445385E-05	  -1.368244E+06	  -1.634759E+06	  -2.693873E+04	  -3.344135E+07	   3.242498E+07	   2.058167E-02	   0.000000E+00	   0.000000E+00	   1.224271E+08	  -2.875031E+03	   1.526423E+04	   0.000000E+00	  -1.044968E+07	  -1.971281E+06	  -1.117852E+04	  -3.497457E+07	   1.854763E+08	  -4.472114E-10
    0.0250	  -5.460426E-02	  -1.180746E+07	  -3.597845E+06	   1.223863E+08	  -6.840342E+07	   2.182432E+08	   5.318993E-01	   8.918161E-04	   1.675858E-04	   2.202655E-06	  -3.986729E-06	   2.119569E-05	   3.025418E-09	   7.142672E-02	   1.343384E-02	   1.843934E-04	  -3.192607E-04	   1.696760E-03	   5.860181E-07	   2.862263E+00	   5.370992E-01	   7.977965E-03	  -1.271529E-02	   6.784415E-02	   8.503733E-05	  -1.358178E+06	  -1.632871E+06	  -2.883767E+04	  -3.338224E+07	   3.229816E+07	   2.074331E-02	   0.000000E+00	   0.000000E+00	   1.224271E+08	  -1.148113E+04	   6.104012E+04	   0.000000E+00	  -1.044799E+07	  -1.964040E+06	  -1.200240E+04	  -3.498239E+07	   1.858670E+08	  -1.555161E-09
    0.0375	  -5.284213E-02	  -1.174948E+07	  -3.577460E+06	   1.223837E+08	  -6.822699E+07	   2.180364E+08	   1.322787E+00	   2.007687E-03	   3.773002E-04	   5.144088E-06	  -8.965037E-06	   4.768591E-05	   1.927746E-08	   1.070622E-01	   2.010998E-02	   2.872736E-04	  -4.768627E-04	   2.539954E-03	   2.215835E-06	   2.832634E+00	   5.273793E-01	   8.423427E-03	  -1.241154E-02	   6.688195E-02	   1.494519E-04	  -1.348019E+06	  -1.630974E+06	  -3.073410E+04	  -3.332200E+07	   3.217070E+07	   2.088255E-02	   0.000000E+00	   0.000000E+00	   1.224271E+08	  -2.581784E+04	   1.373276E+05	   0.000000E+00	  -1.039950E+07	  -1.945281E+06	  -1.267258E+04	  -3.484700E+07	   1.857023E+08	  -2.733175E-09
    0.0500	  -5.054379E-02	  -1.164987E+07	  -3.549673E+06	   1.223813E+08	  -6.796574E+07	   2.173699E+08	   2.620793E+00	   3.566170E-03	   6.695876E-04	   9.403061E-06	  -1.588632E-05	   8.462562E-05	   6.009287E-08	   1.422206E-01	   2.665277E-02	   3.945045E-04	  -6.302689E-04	   3.367912E-03	   4.506544E-06	   2.785468E+00	   5.145850E-01	   8.729301E-03	  -1.201878E-02	   6.540882E-02	   1.729159E-04	  -1.337779E+06	  -1.629068E+06	  -3.262773E+04	  -3.326059E+07	   3.204269E+07	   2.099980E-02	   0.000000E+00	   0.000000E+00	   1.224271E+08	  -4.575002E+04	   2.437079E+05	   0.000000E+00	  -1.030926E+07	  -1.919085E+06	  -1.313278E+04	  -3.462171E+07	   1.850463E+08	  -3.162295E-09
    0.0625	  -4.778443E-02	  -1.151518E+07	  -3.519162E+06	   1.223792E+08	  -6.768027E+07	   2.163262E+08	   4.542778E+00	   5.560058E-03	   1.042637E-03	   1.502045E-05	  -2.469370E-05	   1.317884E-04	   1.291823E-07	   1.767064E-01	   3.302710E-02	   5.047543E-04	  -7.785009E-04	   4.174948E-03	   6.601264E-06	   2.723327E+00	   5.005033E-01	   8.893345E-03	  -1.158756E-02	   6.349783E-02	   1.233599E-04	  -1.327466E+06	  -1.627155E+06	  -3.451827E+04	  -3.319802E+07	   3.191413E+07	   2.109551E-02	   0.000000E+00	   0.000000E+00	   1.224271E+08	  -7.111387E+04	   3.795290E+05	   0.000000E+00	  -1.018384E+07	  -1.890133E+06	  -1.337961E+04	  -3.436740E+07	   1.839821E+08	  -2.256043E-09
    0.0750	  -4.463920E-02	  -1.135313E+07	  -3.490731E+06	   1.223772E+08	  -6.743294E+07	   2.150020E+08	   7.204315E+00	   7.979861E-03	   1.494269E-03	   2.202618E-05	  -3.532038E-05	   1.888809E-04	   2.181555E-07	   2.103432E-01	   3.922935E-02	   6.161827E-04	  -9.214301E-04	   4.955935E-03	   7.452843E-06	   2.649213E+00	   4.869678E-01	   8.920136E-03	  -1.116974E-02	   6.123455E-02	  -2.164259E-05	  -1.317092E+06	  -1.625235E+06	  -3.640547E+04	  -3.313428E+07	   3.178506E+07	   2.117008E-02	   0.000000E+00	   0.000000E+00	   1.224270E+08	  -1.017170E+05	   5.439461E+05	   0.000000E+00	  -1.003094E+07	  -1.863233E+06	  -1.341997E+04	  -3.414666E+07	   1.826074E+08	   3.957155E-10
    0.0875	  -4.118327E-02	  -1.117214E+07	  -3.468811E+06	   1.223755E+08	  -6.728107E+07	   2.135027E+08	   1.071718E+01	   1.081410E-02	   2.022428E-03	   3.042350E-05	  -4.770252E-05	   2.555517E-04	   3.036572E-07	   2.430007E-01	   4.527126E-02	   7.271604E-04	  -1.059392E-03	   5.707029E-03	   5.778309E-06	   2.566424E+00	   4.756718E-01	   8.803791E-03	  -1.081321E-02	   5.871317E-02	  -2.638001E-04	  -1.306667E+06	  -1.623308E+06	  -3.828901E+04	  -3.306936E+07	   3.165552E+07	   2.122396E-02	   0.000000E+00	   0.000000E+00	   1.224270E+08	  -1.373757E+05	   7.359471E+05	   0.000000E+00	  -9.858977E+06	  -1.842815E+06	  -1.324500E+04	  -3.401706E+07	   1.810285E+08	   4.824232E-09
    0.1000	  -3.749183E-02	  -1.098012E+07	  -3.457002E+06	   1.223740E+08	  -6.727130E+07	   2.119259E+08	   1.518987E+01	   1.404993E-02	   2.625308E-03	   4.019516E-05	  -6.178358E-05	   3.314097E-04	   3.469900E-07	   2.745878E-01	   5.118884E-02	   8.357436E-04	  -1.193385E-03	   6.425519E-03	   4.605190E-07	   2.478082E+00	   4.679915E-01	   8.542499E-03	  -1.055691E-02	   5.602306E-02	  -5.835649E-04	  -1.296201E+06	  -1.621377E+06	  -4.016862E+04	  -3.300327E+07	   3.152554E+07	   2.125753E-02	   0.000000E+00	   0.000000E+00	   1.224270E+08	  -1.779269E+05	   9.544057E+05	   0.000000E+00	  -9.675885E+06	  -1.832480E+06	  -1.285198E+04	  -3.402542E+07	   1.793444E+08	   1.067203E-08
    0.1125	  -3.364003E-02	  -1.078534E+07	  -3.457726E+06	   1.223727E+08	  -6.743497E+07	   2.103745E+08	   2.072781E+01	   1.767362E-02	   3.301665E-03	   5.129984E-05	  -7.752255E-05	   4.160360E-04	   2.975109E-07	   3.050502E-01	   5.703026E-02	   9.401904E-04	  -1.324765E-03	   7.109745E-03	  -9.237672E-06	   2.387447E+00	   4.648542E-01	   8.149581E-03	  -1.042707E-02	   5.325744E-02	  -9.436998E-04	  -1.285704E+06	  -1.619441E+06	  -4.204402E+04	  -3.293597E+07	   3.139516E+07	   2.127126E-02	   0.000000E+00	   0.000000E+00	   1.224270E+08	  -2.232526E+05	   1.198116E+06	   0.000000E+00	  -9.489948E+06	  -1.834654E+06	  -1.226094E+04	  -3.420326E+07	   1.776592E+08	   1.725815E-08
    0.1250	  -2.970305E-02	  -1.059549E+07	  -3.472046E+06	   1.223715E+08	  -6.778581E+07	   2.089431E+08	   2.743544E+01	   2.167101E-02	   4.050908E-03	   6.367661E-05	  -9.489686E-05	   5.089988E-04	   9.859204E-08	   3.343790E-01	   6.285450E-02	   1.038989E-03	  -1.455180E-03	   7.759336E-03	  -2.349563E-05	   2.297541E+00	   4.666655E-01	   7.639606E-03	  -1.043518E-02	   5.050280E-02	  -1.302427E-03	  -1.275188E+06	  -1.617502E+06	  -4.391491E+04	  -3.286750E+07	   3.126442E+07	   2.126554E-02	   0.000000E+00	   0.000000E+00	   1.224269E+08	  -2.732876E+05	   1.465833E+06	   0.000000E+00	  -9.308835E+06	  -1.850395E+06	  -1.149381E+04	  -3.456436E+07	   1.760689E+08	   2.381858E-08
    0.1375	  -2.575606E-02	  -1.041761E+07	  -3.499522E+06	   1.223706E+08	  -6.831834E+07	   2.077186E+08	   3.541748E+01	   2.602806E-02	   4.873207E-03	   7.724579E-05	  -1.139052E-04	   6.098680E-04	  -3.056255E-07	   3.625956E-01	   6.872221E-02	   1.130758E-03	  -1.586323E-03	   8.374804E-03	  -4.201095E-05	   2.211149E+00	   4.732524E-01	   7.018905E-03	  -1.057628E-02	   4.783888E-02	  -1.620492E-03	  -1.264660E+06	  -1.615559E+06	  -4.578102E+04	  -3.279786E+07	   3.113333E+07	   2.124080E-02	   0.000000E+00	   0.000000E+00	   1.224269E+08	  -3.280278E+05	   1.756320E+06	   0.000000E+00	  -9.139595E+06	  -1.879263E+06	  -1.056012E+04	  -3.510322E+07	   1.746617E+08	   2.963547E-08
    0.1500	  -2.187422E-02	  -1.025743E+07	  -3.538361E+06	   1.223698E+08	  -6.900950E+07	   2.067712E+08	   4.478010E+01	   3.073119E-02	   5.769461E-03	   9.191078E-05	  -1.345665E-04	   7.182260E-04	  -9.643167E-07	   3.897588E-01	   7.468947E-02	   1.214114E-03	  -1.719753E-03	   8.957712E-03	  -6.404270E-05	   2.130539E+00	   4.839254E-01	   6.298388E-03	  -1.083080E-02	   4.533067E-02	  -1.868005E-03	  -1.254133E+06	  -1.613615E+06	  -4.764206E+04	  -3.272698E+07	   3.100196E+07	   2.119748E-02	   0.000000E+00	   0.000000E+00	   1.224269E+08	  -3.875275E+05	   2.068374E+06	   0.000000E+00	  -8.987960E+06	  -1.919463E+06	  -9.476263E+03	  -3.579676E+07	   1.735091E+08	   3.416226E-08
    0.1625	  -1.813271E-02	  -1.011909E+07	  -3.585586E+06	   1.223691E+08	  -6.982114E+07	   2.061510E+08	   5.563083E+01	   3.576773E-02	   6.741207E-03	   1.075590E-04	  -1.569175E-04	   8.336790E-04	  -1.915422E-06	   4.159477E-01	   8.080193E-02	   1.287866E-03	  -1.856726E-03	   9.510227E-03	  -8.857110E-05	   2.057364E+00	   4.975376E-01	   5.473569E-03	  -1.116619E-02	   4.302568E-02	  -2.029865E-03	  -1.243617E+06	  -1.611669E+06	  -4.949776E+04	  -3.265493E+07	   3.087033E+07	   2.113598E-02	   0.000000E+00	   0.000000E+00	   1.224268E+08	  -4.518921E+05	   2.400860E+06	   0.000000E+00	  -8.858063E+06	  -1.968016E+06	  -8.235502E+03	  -3.660668E+07	   1.726621E+08	   3.712276E-08
    0.1750	  -1.460670E-02	  -1.000343E+07	  -3.637388E+06	   1.223686E+08	  -7.070442E+07	   2.058643E+08	   6.807700E+01	   4.112611E-02	   7.790455E-03	   1.240616E-04	  -1.810078E-04	   9.558639E-04	  -3.183429E-06	   4.412621E-01	   8.708895E-02	   1.350619E-03	  -1.998034E-03	   1.003509E-02	  -1.145078E-04	   1.992032E+00	   5.126190E-01	   4.557732E-03	  -1.154072E-02	   4.093637E-02	  -2.104466E-03	  -1.233121E+06	  -1.609724E+06	  -5.134781E+04	  -3.258166E+07	   3.073846E+07	   2.105674E-02	   0.000000E+00	   0.000000E+00	   1.224268E+08	  -5.212641E+05	   2.752733E+06	   0.000000E+00	  -8.750738E+06	  -2.021108E+06	  -6.857819E+03	  -3.748398E+07	   1.721283E+08	   3.848766E-08
    0.1875	  -1.137135E-02	  -9.911372E+06	  -3.689202E+06	   1.223682E+08	  -7.160050E+07	   2.059208E+08	   8.222266E+01	   4.679599E-02	   8.919464E-03	   1.412748E-04	  -2.068935E-04	   1.084451E-03	  -4.779350E-06	   4.657946E-01	   9.356105E-02	   1.401446E-03	  -2.143932E-03	   1.053485E-02	  -1.408232E-04	   1.934933E+00	   5.274197E-01	   3.556773E-03	  -1.190479E-02	   3.907415E-02	  -2.105326E-03	  -1.222656E+06	  -1.607779E+06	  -5.319195E+04	  -3.250718E+07	   3.060640E+07	   2.096016E-02	   0.000000E+00	   0.000000E+00	   1.224267E+08	  -5.958045E+05	   3.123044E+06	   0.000000E+00	  -8.666898E+06	  -2.074173E+06	  -5.352083E+03	  -3.836964E+07	   1.719182E+08	   3.850420E-08
    0.2000	  -8.501839E-03	  -9.841157E+06	  -3.736422E+06	   1.223679E+08	  -7.245018E+07	   2.062949E+08	   9.816367E+01	   5.276826E-02	   1.013048E-02	   1.590433E-04	  -2.346299E-04	   1.219145E-03	  -6.702810E-06	   4.896556E-01	   1.002058E-01	   1.439246E-03	  -2.294020E-03	   1.101255E-02	  -1.667570E-04	   1.885444E+00	   5.401665E-01	   2.480026E-03	  -1.220811E-02	   3.742193E-02	  -2.059792E-03	  -1.212233E+06	  -1.605834E+06	  -5.502989E+04	  -3.243149E+07	   3.047418E+07	   2.084670E-02	   0.000000E+00	   0.000000E+00	   1.224267E+08	  -6.756722E+05	   3.510943E+06	   0.000000E+00	  -8.604769E+06	  -2.122602E+06	  -3.732334E+03	  -3.920429E+07	   1.720070E+08	   3.767247E-08
    0.2125	  -6.073336E-03	  -9.790313E+06	  -3.774631E+06	   1.223678E+08	  -7.319662E+07	   2.069531E+08	   1.159829E+02	   5.903509E-02	   1.142546E-02	   1.771977E-04	  -2.642634E-04	   1.359686E-03	  -8.946404E-06	   5.129259E-01	   1.069896E-01	   1.463128E-03	  -2.447303E-03	   1.147040E-02	  -1.919749E-04	   1.842642E+00	   5.491632E-01	   1.326733E-03	  -1.240258E-02	   3.595377E-02	  -2.001414E-03	  -1.201861E+06	  -1.603892E+06	  -5.686132E+04	  -3.235456E+07	   3.034184E+07	   2.071675E-02	   0.000000E+00	   0.000000E+00	   1.224266E+08	  -7.610003E+05	   3.915680E+06	   0.000000E+00	  -8.561871E+06	  -2.161980E+06	  -1.997431E+03	  -3.993095E+07	   1.723619E+08	   3.660606E-08
    0.2250	  -4.161010E-03	  -9.754112E+06	  -3.799903E+06	   1.223678E+08	  -7.378909E+07	   2.078326E+08	   1.357435E+02	   6.558957E-02	   1.280581E-02	   1.955588E-04	  -2.958246E-04	   1.505839E-03	  -1.150108E-05	   5.356889E-01	   1.138581E-01	   1.472103E-03	  -2.602194E-03	   1.191071E-02	  -2.165566E-04	   1.804739E+00	   5.529050E-01	   1.064118E-04	  -1.244557E-02	   3.461926E-02	  -1.961256E-03	  -1.191551E+06	  -1.601953E+06	  -5.868600E+04	  -3.227642E+07	   3.020941E+07	   2.057075E-02	   0.000000E+00	   0.000000E+00	   1.224266E+08	  -8.518766E+05	   4.336580E+06	   0.000000E+00	  -8.533462E+06	  -2.188377E+06	  -1.616915E+02	  -4.049880E+07	   1.729207E+08	   3.587303E-08
    0.2375	  -2.840030E-03	  -9.726870E+06	  -3.809333E+06	   1.223678E+08	  -7.419017E+07	   2.088585E+08	   1.574843E+02	   7.242570E-02	   1.427216E-02	   2.139345E-04	  -3.293207E-04	   1.657393E-03	  -1.436097E-05	   5.579876E-01	   1.207398E-01	   1.465457E-03	  -2.756627E-03	   1.233462E-02	  -2.409132E-04	   1.769584E+00	   5.502766E-01	  -1.170628E-03	  -1.230544E-02	   3.335772E-02	  -1.961774E-03	  -1.181313E+06	  -1.600018E+06	  -6.050362E+04	  -3.219705E+07	   3.007693E+07	   2.040911E-02	   0.000000E+00	   0.000000E+00	   1.224266E+08	  -9.483212E+05	   4.773034E+06	   0.000000E+00	  -8.513848E+06	  -2.198893E+06	   1.759376E+03	  -4.087044E+07	   1.736090E+08	   3.588409E-08
    0.2500	  -2.185567E-03	  -9.702320E+06	  -3.801020E+06	   1.223679E+08	  -7.437520E+07	   2.099488E+08	   1.812179E+02	   7.953782E-02	   1.582415E-02	   2.321264E-04	  -3.647314E-04	   1.814148E-03	  -1.752677E-05	   5.798490E-01	   1.275522E-01	   1.442559E-03	  -2.908218E-03	   1.274281E-02	  -2.656484E-04	   1.734785E+00	   5.405504E-01	  -2.486863E-03	  -1.196159E-02	   3.210147E-02	  -2.011893E-03	  -1.171157E+06	  -1.598087E+06	  -6.231390E+04	  -3.211643E+07	   2.994442E+07	   2.023226E-02	   0.000000E+00	   0.000000E+00	   1.224265E+08	  -1.050275E+06	   5.224468E+06	   0.000000E+00	  -8.496754E+06	  -2.191628E+06	   3.739410E+03	  -4.102130E+07	   1.743454E+08	   3.680241E-08
    0.2625	  -1.946636E-03	  -9.652437E+06	  -3.770514E+06	   1.223680E+08	  -7.426930E+07	   2.106484E+08	   2.069277E+02	   8.692045E-02	   1.746036E-02	   2.499283E-04	  -4.020048E-04	   1.975905E-03	  -2.100698E-05	   6.012619E-01	   1.342048E-01	   1.403077E-03	  -3.054368E-03	   1.313489E-02	  -2.913673E-04	   1.691722E+00	   5.224117E-01	  -3.781495E-03	  -1.138127E-02	   3.063051E-02	  -2.100948E-03	  -1.161028E+06	  -1.596162E+06	  -6.411837E+04	  -3.203464E+07	   2.981172E+07	   2.003384E-02	   0.000000E+00	   0.000000E+00	   1.224265E+08	  -1.157588E+06	   5.690308E+06	   0.000000E+00	  -8.454217E+06	  -2.162136E+06	   5.686946E+03	  -4.087664E+07	   1.746757E+08	   3.843297E-08
    0.2750	  -1.835413E-03	  -9.592274E+06	  -3.722018E+06	   1.223680E+08	  -7.394390E+07	   2.112439E+08	   2.345390E+02	   9.456692E-02	   1.917808E-02	   2.671394E-04	  -4.410534E-04	   2.142437E-03	  -2.481621E-05	   6.220418E-01	   1.405813E-01	   1.348192E-03	  -3.191862E-03	   1.350615E-02	  -3.183900E-04	   1.644137E+00	   4.970879E-01	  -5.019756E-03	  -1.059475E-02	   2.902689E-02	  -2.203025E-03	  -1.150870E+06	  -1.594244E+06	  -6.591860E+04	  -3.195167E+07	   2.967865E+07	   1.980830E-02	   0.000000E+00	   0.000000E+00	   1.224264E+08	  -1.270008E+06	   6.169900E+06	   0.000000E+00	  -8.401373E+06	  -2.114630E+06	   7.549679E+03	  -4.050823E+07	   1.748874E+08	   4.030185E-08
    0.2875	  -1.871811E-03	  -9.516093E+06	  -3.657140E+06	   1.223680E+08	  -7.341940E+07	   2.116594E+08	   2.639951E+02	   1.024695E-01	   2.097340E-02	   2.835655E-04	  -4.817553E-04	   2.313486E-03	  -2.897082E-05	   6.422243E-01	   1.466125E-01	   1.277560E-03	  -3.318627E-03	   1.385712E-02	  -3.466344E-04	   1.589859E+00	   4.652035E-01	  -6.228945E-03	  -9.619765E-03	   2.722939E-02	  -2.284667E-03	  -1.140691E+06	  -1.592332E+06	  -6.771432E+04	  -3.186754E+07	   2.954523E+07	   1.955732E-02	   0.000000E+00	   0.000000E+00	   1.224264E+08	  -1.387184E+06	   6.662502E+06	   0.000000E+00	  -8.332476E+06	  -2.050724E+06	   9.368679E+03	  -3.993685E+07	   1.749053E+08	   4.179719E-08
    0.3000	  -2.075746E-03	  -9.419122E+06	  -3.578428E+06	   1.223679E+08	  -7.272823E+07	   2.118320E+08	   2.951972E+02	   1.106199E-01	   2.284147E-02	   2.990182E-04	  -5.239615E-04	   2.488774E-03	  -3.348358E-05	   6.616812E-01	   1.522148E-01	   1.192654E-03	  -3.432299E-03	   1.418422E-02	  -3.756014E-04	   1.527084E+00	   4.277442E-01	  -7.330300E-03	  -8.484280E-03	   2.518702E-02	  -2.315187E-03	  -1.130502E+06	  -1.590424E+06	  -6.950526E+04	  -3.178223E+07	   2.941148E+07	   1.928258E-02	   0.000000E+00	   0.000000E+00	   1.224263E+08	  -1.508683E+06	   7.167312E+06	   0.000000E+00	  -8.242762E+06	  -1.972975E+06	   1.102546E+04	  -3.919546E+07	   1.746676E+08	   4.235777E-08
    0.3125	  -2.467132E-03	  -9.297601E+06	  -3.489125E+06	   1.223675E+08	  -7.191162E+07	   2.117108E+08	   3.280473E+02	   1.190083E-01	   2.477654E-02	   3.133267E-04	  -5.674966E-04	   2.667985E-03	  -3.835890E-05	   6.803021E-01	   1.573250E-01	   1.094724E-03	  -3.531061E-03	   1.448427E-02	  -4.044711E-04	   1.454417E+00	   3.859668E-01	  -8.291457E-03	  -7.223982E-03	   2.286068E-02	  -2.271952E-03	  -1.120312E+06	  -1.588519E+06	  -7.129119E+04	  -3.169574E+07	   2.927746E+07	   1.898577E-02	   0.000000E+00	   0.000000E+00	   1.224263E+08	  -1.634003E+06	   7.683423E+06	   0.000000E+00	  -8.128480E+06	  -1.884635E+06	   1.247132E+04	  -3.832588E+07	   1.741242E+08	   4.156973E-08
    0.3250	  -3.065879E-03	  -9.149679E+06	  -3.392887E+06	   1.223669E+08	  -7.101595E+07	   2.112696E+08	   3.624495E+02	   1.276236E-01	   2.677215E-02	   3.263408E-04	  -6.121655E-04	   2.850756E-03	  -4.358945E-05	   6.979576E-01	   1.618958E-01	   9.858591E-04	  -3.613551E-03	   1.475355E-02	  -4.322231E-04	   1.371193E+00	   3.412910E-01	  -9.086879E-03	  -5.879220E-03	   2.023187E-02	  -2.147780E-03	  -1.110130E+06	  -1.586616E+06	  -7.307182E+04	  -3.160806E+07	   2.914316E+07	   1.866855E-02	   0.000000E+00	   0.000000E+00	   1.224263E+08	  -1.762579E+06	   8.209788E+06	   0.000000E+00	  -7.987792E+06	  -1.789370E+06	   1.366786E+04	  -3.737512E+07	   1.732502E+08	   3.930169E-08
    0.3375	  -3.891906E-03	  -8.975340E+06	  -3.293426E+06	   1.223660E+08	  -7.008794E+07	   2.105057E+08	   3.983201E+02	   1.364528E-01	   2.882135E-02	   3.379372E-04	  -6.577592E-04	   3.036681E-03	  -4.915514E-05	   7.145179E-01	   1.658979E-01	   8.682726E-04	  -3.678929E-03	   1.498833E-02	  -4.578798E-04	   1.277455E+00	   2.951651E-01	  -9.696197E-03	  -4.491237E-03	   1.730220E-02	  -1.953000E-03	  -1.099967E+06	  -1.584714E+06	  -7.484688E+04	  -3.151918E+07	   2.900863E+07	   1.833260E-02	   0.000000E+00	   0.000000E+00	   1.224262E+08	  -1.893809E+06	   8.745238E+06	   0.000000E+00	  -7.820692E+06	  -1.690901E+06	   1.458443E+04	  -3.639057E+07	   1.720442E+08	   3.574252E-08
    0.3500	  -4.965123E-03	  -8.776158E+06	  -3.194137E+06	   1.223648E+08	  -6.916977E+07	   2.094365E+08	   4.355980E+02	   1.454814E-01	   3.091697E-02	   3.480215E-04	  -7.040614E-04	   3.225304E-03	  -5.502491E-05	   7.298539E-01	   1.693197E-01	   7.443571E-04	  -3.726845E-03	   1.518494E-02	  -4.807142E-04	   1.173865E+00	   2.489245E-01	  -1.010618E-02	  -3.098180E-03	   1.409093E-02	  -1.708459E-03	  -1.089830E+06	  -1.582810E+06	  -7.661612E+04	  -3.142907E+07	   2.887390E+07	   1.797961E-02	   0.000000E+00	   0.000000E+00	   1.224262E+08	  -2.027071E+06	   9.288459E+06	   0.000000E+00	  -7.628769E+06	  -1.592629E+06	   1.520112E+04	  -3.541513E+07	   1.705251E+08	   3.127349E-08
    0.3625	  -6.305446E-03	  -8.554614E+06	  -3.098000E+06	   1.223633E+08	  -6.829821E+07	   2.080900E+08	   4.742455E+02	   1.546934E-01	   3.305177E-02	   3.565306E-04	  -7.508542E-04	   3.416129E-03	  -6.116027E-05	   7.438492E-01	   1.721653E-01	   6.166457E-04	  -3.757413E-03	   1.534004E-02	  -5.002882E-04	   1.061457E+00	   2.037477E-01	  -1.030254E-02	  -1.733775E-03	   1.062811E-02	  -1.440216E-03	  -1.079730E+06	  -1.580906E+06	  -7.837930E+04	  -3.133776E+07	   2.873897E+07	   1.761126E-02	   0.000000E+00	   0.000000E+00	   1.224262E+08	  -2.161736E+06	   9.838025E+06	   0.000000E+00	  -7.414516E+06	  -1.497540E+06	   1.549644E+04	  -3.448621E+07	   1.687225E+08	   2.637110E-08
    0.3750	  -7.932790E-03	  -8.314646E+06	  -3.007269E+06	   1.223615E+08	  -6.750032E+07	   2.065131E+08	   5.142574E+02	   1.640714E-01	   3.521865E-02	   3.634339E-04	  -7.979236E-04	   3.608616E-03	  -6.751931E-05	   7.564005E-01	   1.744536E-01	   4.878125E-04	  -3.771148E-03	   1.545070E-02	  -5.164968E-04	   9.418186E-01	   1.605414E-01	  -1.028416E-02	  -4.241249E-04	   6.959459E-03	  -1.175928E-03	  -1.069677E+06	  -1.578999E+06	  -8.013613E+04	  -3.124520E+07	   2.860392E+07	   1.722920E-02	   0.000000E+00	   0.000000E+00	   1.224262E+08	  -2.297188E+06	   1.039238E+07	   0.000000E+00	  -7.181880E+06	  -1.407894E+06	   1.546872E+04	  -3.363154E+07	   1.666848E+08	   2.154114E-08
    0.3875	  -9.867064E-03	  -8.061803E+06	  -2.923365E+06	   1.223594E+08	  -6.679230E+07	   2.047729E+08	   5.556467E+02	   1.735968E-01	   3.741081E-02	   3.687342E-04	  -8.450641E-04	   3.802196E-03	  -7.406096E-05	   7.674301E-01	   1.762119E-01	   3.605790E-04	  -3.768823E-03	   1.551472E-02	  -5.295672E-04	   8.171628E-01	   1.198961E-01	  -1.006733E-02	   8.135850E-04	   3.148464E-03	  -9.424436E-04	  -1.059679E+06	  -1.577087E+06	  -8.188637E+04	  -3.115142E+07	   2.846873E+07	   1.683514E-02	   0.000000E+00	   0.000000E+00	   1.224262E+08	  -2.432836E+06	   1.094988E+07	   0.000000E+00	  -6.936418E+06	  -1.325114E+06	   1.514245E+04	  -3.286791E+07	   1.644811E+08	   1.727455E-08
    0.4000	  -1.212819E-02	  -7.802179E+06	  -2.846948E+06	   1.223570E+08	  -6.618048E+07	   2.029436E+08	   5.984433E+02	   1.832503E-01	   3.962185E-02	   3.724661E-04	  -8.920806E-04	   3.996276E-03	  -8.074906E-05	   7.768893E-01	   1.774743E-01	   2.372543E-04	  -3.751401E-03	   1.553072E-02	  -5.400487E-04	   6.899183E-01	   8.210853E-02	  -9.656536E-03	   1.970503E-03	  -7.351625E-04	  -7.575375E-04	  -1.049746E+06	  -1.575170E+06	  -8.362971E+04	  -3.105639E+07	   2.833343E+07	   1.643074E-02	   0.000000E+00	   0.000000E+00	   1.224262E+08	  -2.568117E+06	   1.150883E+07	   0.000000E+00	  -6.684231E+06	  -1.249863E+06	   1.452438E+04	  -3.220224E+07	   1.621871E+08	   1.389639E-08
    0.4125	  -1.473607E-02	  -7.542611E+06	  -2.777849E+06	   1.223544E+08	  -6.566056E+07	   2.011085E+08	   6.426852E+02	   1.930120E-01	   4.184577E-02	   3.746934E-04	  -9.387908E-04	   4.190253E-03	  -8.755523E-05	   7.847587E-01	   1.782772E-01	   1.201874E-04	  -3.719910E-03	   1.549820E-02	  -5.486138E-04	   5.627969E-01	   4.715914E-02	  -9.073471E-03	   3.046734E-03	  -4.613696E-03	  -6.282539E-04	  -1.039888E+06	  -1.573247E+06	  -8.536594E+04	  -3.096009E+07	   2.819809E+07	   1.601768E-02	   0.000000E+00	   0.000000E+00	   1.224261E+08	  -2.702507E+06	   1.206748E+07	   0.000000E+00	  -6.432152E+06	  -1.181974E+06	   1.364716E+04	  -3.163076E+07	   1.598881E+08	   1.153544E-08
    0.4250	  -1.771063E-02	  -7.290020E+06	  -2.715250E+06	   1.223516E+08	  -6.521994E+07	   1.993522E+08	   6.884030E+02	   2.028623E-01	   4.407706E-02	   3.755074E-04	  -9.850251E-04	   4.383522E-03	  -9.445979E-05	   7.910556E-01	   1.786556E-01	   1.143254E-05	  -3.675341E-03	   1.541766E-02	  -5.559432E-04	   4.385446E-01	   1.477521E-02	  -8.352047E-03	   4.049576E-03	  -8.408398E-03	  -5.517656E-04	  -1.030114E+06	  -1.571316E+06	  -8.709479E+04	  -3.086254E+07	   2.806270E+07	   1.559765E-02	   0.000000E+00	   0.000000E+00	   1.224261E+08	  -2.835519E+06	   1.262409E+07	   0.000000E+00	  -6.187098E+06	  -1.120627E+06	   1.256180E+04	  -3.114131E+07	   1.576701E+08	   1.013996E-08
    0.4375	  -2.107177E-02	  -7.050948E+06	  -2.657888E+06	   1.223486E+08	  -6.484058E+07	   1.977542E+08	   7.356082E+02	   2.127817E-01	   4.631060E-02	   3.750209E-04	  -1.030625E-03	   4.575492E-03	  -1.014511E-04	   7.958295E-01	   1.786398E-01	  -8.764343E-05	  -3.618563E-03	   1.529057E-02	  -5.626304E-04	   3.197597E-01	  -1.549131E-02	  -7.509980E-03	   4.991370E-03	  -1.204473E-02	  -5.113239E-04	  -1.020434E+06	  -1.569376E+06	  -8.881599E+04	  -3.076372E+07	   2.792730E+07	   1.517231E-02	   0.000000E+00	   0.000000E+00	   1.224261E+08	  -2.966694E+06	   1.317697E+07	   0.000000E+00	  -5.955600E+06	  -1.064561E+06	   1.129496E+04	  -3.071631E+07	   1.556145E+08	   9.403650E-09
    0.4500	  -2.483942E-02	  -6.831626E+06	  -2.604232E+06	   1.223455E+08	  -6.450106E+07	   1.963901E+08	   7.842910E+02	   2.227517E-01	   4.854161E-02	   3.733645E-04	  -1.075444E-03	   4.765594E-03	  -1.085234E-04	   7.991617E-01	   1.782547E-01	  -1.755491E-04	  -3.550282E-03	   1.511930E-02	  -5.689489E-04	   2.089186E-01	  -4.419585E-02	  -6.577759E-03	   5.887526E-03	  -1.545161E-02	  -4.875518E-04	  -1.010856E+06	  -1.567426E+06	  -9.052927E+04	  -3.066360E+07	   2.779191E+07	   1.474335E-02	   0.000000E+00	   0.000000E+00	   1.224262E+08	  -3.095614E+06	   1.372447E+07	   0.000000E+00	  -5.743875E+06	  -1.012242E+06	   9.892487E+03	  -3.033475E+07	   1.537984E+08	   8.972115E-09
    0.4625	  -2.903349E-02	  -6.637222E+06	  -2.552740E+06	   1.223423E+08	  -6.417986E+07	   1.953221E+08	   8.344142E+02	   2.327549E-01	   5.076560E-02	   3.706839E-04	  -1.119339E-03	   4.953297E-03	  -1.156727E-04	   8.011632E-01	   1.775175E-01	  -2.513662E-04	  -3.471001E-03	   1.490705E-02	  -5.749721E-04	   1.080824E-01	  -7.189577E-02	  -5.577202E-03	   6.753499E-03	  -1.856977E-02	  -4.588397E-04	  -1.001392E+06	  -1.565464E+06	  -9.223441E+04	  -3.056219E+07	   2.765657E+07	   1.431244E-02	   0.000000E+00	   0.000000E+00	   1.224262E+08	  -3.221863E+06	   1.426506E+07	   0.000000E+00	  -5.557066E+06	  -9.621303E+05	   8.387224E+03	  -2.997547E+07	   1.522851E+08	   8.450150E-09
    0.4750	  -3.367389E-02	  -6.472049E+06	  -2.502084E+06	   1.223391E+08	  -6.385813E+07	   1.946016E+08	   8.859156E+02	   2.427755E-01	   5.297822E-02	   3.671345E-04	  -1.162176E-03	   5.138111E-03	  -1.228945E-04	   8.019673E-01	   1.764392E-01	  -3.144372E-04	  -3.381047E-03	   1.465771E-02	  -5.804942E-04	   1.897953E-02	  -9.906652E-02	  -4.545061E-03	   7.602406E-03	  -2.134942E-02	  -4.021927E-04	  -9.920488E+05	  -1.563490E+06	  -9.393107E+04	  -3.045947E+07	   2.752130E+07	   1.388126E-02	   0.000000E+00	   0.000000E+00	   1.224262E+08	  -3.345058E+06	   1.479733E+07	   0.000000E+00	  -5.399468E+06	  -9.128944E+05	   6.834452E+03	  -2.962000E+07	   1.511274E+08	   7.417215E-09
    0.4875	  -3.878053E-02	  -6.338676E+06	  -2.451319E+06	   1.223358E+08	  -6.352134E+07	   1.942580E+08	   9.387180E+02	   2.527996E-01	   5.517524E-02	   3.628774E-04	  -1.203823E-03	   5.319600E-03	  -1.301798E-04	   8.017282E-01	   1.750254E-01	  -3.645583E-04	  -3.280598E-03	   1.437570E-02	  -5.850152E-04	  -5.734481E-02	  -1.260206E-01	  -3.500435E-03	   8.442566E-03	  -2.376028E-02	  -2.999436E-04	  -9.828371E+05	  -1.561502E+06	  -9.561905E+04	  -3.035547E+07	   2.738613E+07	   1.345150E-02	   0.000000E+00	   0.000000E+00	   1.224262E+08	  -3.464819E+06	   1.532003E+07	   0.000000E+00	  -5.273618E+06	  -8.635893E+05	   5.262906E+03	  -2.925411E+07	   1.503558E+08	   5.550203E-09
    0.5000	  -4.437332E-02	  -6.237662E+06	  -2.400072E+06	   1.223326E+08	  -6.316452E+07	   1.942938E+08	   9.927453E+02	   2.628150E-01	   5.735251E-02	   3.580744E-04	  -1.244149E-03	   5.497386E-03	  -1.375120E-04	   8.006060E-01	   1.732788E-01	  -4.017717E-04	  -3.169764E-03	   1.406567E-02	  -5.878857E-04	  -1.205910E-01	  -1.529037E-01	  -2.459691E-03	   9.278165E-03	  -2.579288E-02	  -1.568422E-04	  -9.737666E+05	  -1.559500E+06	  -9.729807E+04	  -3.025013E+07	   2.725109E+07	   1.302482E-02	   0.000000E+00	   0.000000E+00	   1.224262E+08	  -3.580768E+06	   1.583206E+07	   0.000000E+00	  -5.180047E+06	  -8.138395E+05	   3.697207E+03	  -2.887325E+07	   1.499735E+08	   2.935962E-09