
Predictions were generated on 19-Jun-2024 at 13:54:32 using HydroDyn Driver, compiled on Jun 19 2024 at 12:41:58 as a 64-bit application using double precision at commit v3.5.3-1370-g042b249a-dirty
 linked with  NWTC Subroutine Library

Description from the driver input file: NREL 5.0 MW offshore baseline floating platform HydroDyn input properties for the TLP

Time	Wave1Elev	HydroFxi	HydroFyi	HydroFzi	HydroMxi	HydroMyi	HydroMzi	B1Surge	B1Sway	B1Heave	B1Roll	B1Pitch	B1Yaw	B1TVxi	B1TVyi	B1TVzi	B1RVxi	B1RVyi	B1RVzi	B1TAxi	B1TAyi	B1TAzi	B1RAxi	B1RAyi	B1RAzi	B1WvsFxi	B1WvsFyi	B1WvsFzi	B1WvsMxi	B1WvsMyi	B1WvsMzi	B1HDSFxi	B1HDSFyi	B1HDSFzi	B1HDSMxi	B1HDSMyi	B1HDSMzi	B1RdtFxi	B1RdtFyi	B1RdtFzi	B1RdtMxi	B1RdtMyi	B1RdtMzi
(s)	(m)	(N)	(N)	(N)	(N-m)	(N-m)	(N-m)	(m)	(m)	(m)	(rad)	(rad)	(rad)	(m/s)	(m/s)	(m/s)	(rad/s)	(rad/s)	(rad/s)	(m/s^2)	(m/s^2)	(m/s^2)	(rad/s^2)	(rad/s^2)	(rad/s^2)	(N)	(N)	(N)	(N-m)	(N-m)	(N-m)	(N)	(N)	(N)	(N-m)	(N-m)	(N-m)	(N)	(N)	(N)	(N-m)	(N-m)	(N-m)
    0.0000	  -5.621928E-02	  -1.178007E+07	  -3.600910E+06	   1.223920E+08	  -6.829756E+07	   2.170186E+08	   2.039721E-02	   0.000000E+00	   0.000000E+00	   0.000000E+00	   0.000000E+00	   0.000000E+00	   0.000000E+00	   0.000000E+00	   0.000000E+00	   0.000000E+00	   0.000000E+00	   0.000000E+00	   0.000000E+00	   2.862682E+00	   5.415253E-01	   6.724742E-03	  -1.289309E-02	   6.806622E-02	  -1.729341E-11	  -1.378208E+06	  -1.636637E+06	  -2.503757E+04	  -3.349928E+07	   3.255117E+07	   2.039721E-02	   0.000000E+00	   0.000000E+00	   1.224271E+08	   0.000000E+00	   0.000000E+00	   0.000000E+00	  -1.040144E+07	  -1.963747E+06	  -1.011699E+04	  -3.477837E+07	   1.844623E+08	   3.162615E-16
    0.0125	  -5.351759E-02	  -1.181833E+07	  -3.606698E+06	   1.223890E+08	  -6.843070E+07	   2.179227E+08	   1.328432E-01	   2.229349E-04	   4.193516E-05	   5.307285E-07	  -9.983314E-07	   5.300380E-06	  -1.783539E-14	   3.557152E-02	   6.667117E-03	   8.529790E-05	  -1.587091E-04	   8.456804E-04	   8.350745E-10	   2.872404E+00	   5.421930E-01	   7.430342E-03	  -1.288622E-02	   6.823986E-02	   2.465637E-05	  -1.367855E+06	  -1.634709E+06	  -2.690139E+04	  -3.343014E+07	   3.242084E+07	   2.038897E-02	   0.000000E+00	   0.000000E+00	   1.224271E+08	  -2.875031E+03	   1.526423E+04	   0.000000E+00	  -1.044969E+07	  -1.971281E+06	  -1.117852E+04	  -3.497458E+07	   1.854764E+08	  -4.509151E-10
    0.0250	  -5.081591E-02	  -1.180675E+07	  -3.597764E+06	   1.223863E+08	  -6.838209E+07	   2.182356E+08	   5.303185E-01	   8.918161E-04	   1.675858E-04	   2.202655E-06	  -3.986729E-06	   2.119569E-05	   3.025418E-09	   7.142672E-02	   1.343384E-02	   1.843934E-04	  -3.192608E-04	   1.696760E-03	   5.927852E-07	   2.862263E+00	   5.370992E-01	   7.977965E-03	  -1.271529E-02	   6.784415E-02	   8.584855E-05	  -1.357502E+06	  -1.632782E+06	  -2.876520E+04	  -3.336100E+07	   3.229050E+07	   2.038072E-02	   0.000000E+00	   0.000000E+00	   1.224271E+08	  -1.148113E+04	   6.104013E+04	   0.000000E+00	  -1.044799E+07	  -1.964040E+06	  -1.200240E+04	  -3.498237E+07	   1.858671E+08	  -1.569996E-09
    0.0375	  -4.811423E-02	  -1.174857E+07	  -3.577355E+06	   1.223838E+08	  -6.819676E+07	   2.180257E+08	   1.319181E+00	   2.007687E-03	   3.773002E-04	   5.144088E-06	  -8.965037E-06	   4.768591E-05	   1.927746E-08	   1.070622E-01	   2.010998E-02	   2.872736E-04	  -4.768627E-04	   2.539954E-03	   2.238575E-06	   2.832634E+00	   5.273793E-01	   8.423427E-03	  -1.241154E-02	   6.688195E-02	   1.512549E-04	  -1.347150E+06	  -1.630854E+06	  -3.062902E+04	  -3.329186E+07	   3.216016E+07	   2.037247E-02	   0.000000E+00	   0.000000E+00	   1.224271E+08	  -2.581784E+04	   1.373276E+05	   0.000000E+00	  -1.039950E+07	  -1.945280E+06	  -1.267258E+04	  -3.484699E+07	   1.857023E+08	  -2.766148E-09
    0.0500	  -4.541254E-02	  -1.164883E+07	  -3.549547E+06	   1.223815E+08	  -6.792762E+07	   2.173569E+08	   2.614170E+00	   3.566170E-03	   6.695876E-04	   9.403061E-06	  -1.588632E-05	   8.462562E-05	   6.009287E-08	   1.422206E-01	   2.665277E-02	   3.945045E-04	  -6.302691E-04	   3.367912E-03	   4.559881E-06	   2.785468E+00	   5.145850E-01	   8.729300E-03	  -1.201880E-02	   6.540881E-02	   1.760557E-04	  -1.336797E+06	  -1.628927E+06	  -3.249283E+04	  -3.322271E+07	   3.202982E+07	   2.036422E-02	   0.000000E+00	   0.000000E+00	   1.224271E+08	  -4.575002E+04	   2.437079E+05	   0.000000E+00	  -1.030926E+07	  -1.919080E+06	  -1.313278E+04	  -3.462156E+07	   1.850462E+08	  -3.219716E-09
    0.0625	  -4.271085E-02	  -1.151412E+07	  -3.519026E+06	   1.223793E+08	  -6.763550E+07	   2.163116E+08	   4.532102E+00	   5.560058E-03	   1.042637E-03	   1.502045E-05	  -2.469370E-05	   1.317884E-04	   1.291823E-07	   1.767064E-01	   3.302710E-02	   5.047543E-04	  -7.785015E-04	   4.174948E-03	   6.703860E-06	   2.723327E+00	   5.005033E-01	   8.893345E-03	  -1.158760E-02	   6.349781E-02	   1.281372E-04	  -1.326445E+06	  -1.626999E+06	  -3.435665E+04	  -3.315357E+07	   3.189949E+07	   2.035598E-02	   0.000000E+00	   0.000000E+00	   1.224271E+08	  -7.111388E+04	   3.795290E+05	   0.000000E+00	  -1.018384E+07	  -1.890125E+06	  -1.337961E+04	  -3.436716E+07	   1.839822E+08	  -2.343411E-09
    0.0750	  -4.000916E-02	  -1.135209E+07	  -3.490590E+06	   1.223774E+08	  -6.738265E+07	   2.149861E+08	   7.188526E+00	   7.979861E-03	   1.494269E-03	   2.202618E-05	  -3.532038E-05	   1.888808E-04	   2.181555E-07	   2.103432E-01	   3.922935E-02	   6.161827E-04	  -9.214311E-04	   4.955934E-03	   7.626884E-06	   2.649213E+00	   4.869678E-01	   8.920136E-03	  -1.116979E-02	   6.123454E-02	  -1.496629E-05	  -1.316092E+06	  -1.625072E+06	  -3.622046E+04	  -3.308443E+07	   3.176915E+07	   2.034773E-02	   0.000000E+00	   0.000000E+00	   1.224270E+08	  -1.017170E+05	   5.439459E+05	   0.000000E+00	  -1.003094E+07	  -1.863222E+06	  -1.341997E+04	  -3.414632E+07	   1.826075E+08	   2.736184E-10
    0.0875	  -3.730748E-02	  -1.117116E+07	  -3.468675E+06	   1.223757E+08	  -6.722658E+07	   2.134860E+08	   1.069517E+01	   1.081410E-02	   2.022428E-03	   3.042350E-05	  -4.770252E-05	   2.555517E-04	   3.036572E-07	   2.430007E-01	   4.527126E-02	   7.271604E-04	  -1.059393E-03	   5.707028E-03	   6.049038E-06	   2.566424E+00	   4.756718E-01	   8.803791E-03	  -1.081325E-02	   5.871316E-02	  -2.549908E-04	  -1.305740E+06	  -1.623144E+06	  -3.808428E+04	  -3.301528E+07	   3.163881E+07	   2.033948E-02	   0.000000E+00	   0.000000E+00	   1.224270E+08	  -1.373757E+05	   7.359470E+05	   0.000000E+00	  -9.858980E+06	  -1.842804E+06	  -1.324500E+04	  -3.401673E+07	   1.810285E+08	   4.663125E-09
    0.1000	  -3.460579E-02	  -1.097926E+07	  -3.456880E+06	   1.223742E+08	  -6.721394E+07	   2.119088E+08	   1.516045E+01	   1.404993E-02	   2.625308E-03	   4.019516E-05	  -6.178358E-05	   3.314097E-04	   3.469900E-07	   2.745878E-01	   5.118885E-02	   8.357436E-04	  -1.193387E-03	   6.425519E-03	   8.560183E-07	   2.478082E+00	   4.679915E-01	   8.542499E-03	  -1.055693E-02	   5.602305E-02	  -5.723982E-04	  -1.295387E+06	  -1.621217E+06	  -3.994809E+04	  -3.294614E+07	   3.150847E+07	   2.033123E-02	   0.000000E+00	   0.000000E+00	   1.224270E+08	  -1.779269E+05	   9.544056E+05	   0.000000E+00	  -9.675885E+06	  -1.832476E+06	  -1.285198E+04	  -3.402528E+07	   1.793444E+08	   1.046781E-08
    0.1125	  -3.190411E-02	  -1.078464E+07	  -3.457632E+06	   1.223729E+08	  -6.737621E+07	   2.103573E+08	   2.068957E+01	   1.767362E-02	   3.301665E-03	   5.129984E-05	  -7.752255E-05	   4.160360E-04	   2.975109E-07	   3.050502E-01	   5.703026E-02	   9.401904E-04	  -1.324767E-03	   7.109745E-03	  -8.686522E-06	   2.387447E+00	   4.648542E-01	   8.149581E-03	  -1.042702E-02	   5.325745E-02	  -9.299430E-04	  -1.285035E+06	  -1.619289E+06	  -4.181191E+04	  -3.287700E+07	   3.137813E+07	   2.032299E-02	   0.000000E+00	   0.000000E+00	   1.224270E+08	  -2.232526E+05	   1.198116E+06	   0.000000E+00	  -9.489948E+06	  -1.834664E+06	  -1.226094E+04	  -3.420358E+07	   1.776592E+08	   1.700656E-08
    0.1250	  -2.920242E-02	  -1.059495E+07	  -3.471997E+06	   1.223718E+08	  -6.772730E+07	   2.089261E+08	   2.738673E+01	   2.167101E-02	   4.050908E-03	   6.367661E-05	  -9.489686E-05	   5.089988E-04	   9.859204E-08	   3.343790E-01	   6.285450E-02	   1.038989E-03	  -1.455181E-03	   7.759336E-03	  -2.275494E-05	   2.297541E+00	   4.666655E-01	   7.639606E-03	  -1.043500E-02	   5.050283E-02	  -1.285824E-03	  -1.274682E+06	  -1.617362E+06	  -4.367572E+04	  -3.280786E+07	   3.124780E+07	   2.031474E-02	   0.000000E+00	   0.000000E+00	   1.224269E+08	  -2.732876E+05	   1.465833E+06	   0.000000E+00	  -9.308826E+06	  -1.850436E+06	  -1.149381E+04	  -3.456560E+07	   1.760687E+08	   2.351493E-08
    0.1375	  -2.650074E-02	  -1.041725E+07	  -3.499530E+06	   1.223708E+08	  -6.826162E+07	   2.077022E+08	   3.535628E+01	   2.602806E-02	   4.873207E-03	   7.724579E-05	  -1.139052E-04	   6.098680E-04	  -3.056255E-07	   3.625956E-01	   6.872221E-02	   1.130758E-03	  -1.586320E-03	   8.374805E-03	  -4.104350E-05	   2.211149E+00	   4.732524E-01	   7.018905E-03	  -1.057590E-02	   4.783895E-02	  -1.600756E-03	  -1.264330E+06	  -1.615434E+06	  -4.553954E+04	  -3.273872E+07	   3.111746E+07	   2.030649E-02	   0.000000E+00	   0.000000E+00	   1.224269E+08	  -3.280277E+05	   1.756320E+06	   0.000000E+00	  -9.139582E+06	  -1.879347E+06	  -1.056012E+04	  -3.510575E+07	   1.746613E+08	   2.927453E-08
    0.1500	  -2.379905E-02	  -1.025724E+07	  -3.538444E+06	   1.223700E+08	  -6.895623E+07	   2.067555E+08	   4.470385E+01	   3.073119E-02	   5.769460E-03	   9.191078E-05	  -1.345665E-04	   7.182260E-04	  -9.643167E-07	   3.897588E-01	   7.468947E-02	   1.214114E-03	  -1.719744E-03	   8.957714E-03	  -6.280753E-05	   2.130539E+00	   4.839254E-01	   6.298388E-03	  -1.083016E-02	   4.533079E-02	  -1.844821E-03	  -1.253977E+06	  -1.613507E+06	  -4.740335E+04	  -3.266957E+07	   3.098712E+07	   2.029824E-02	   0.000000E+00	   0.000000E+00	   1.224269E+08	  -3.875275E+05	   2.068374E+06	   0.000000E+00	  -8.987937E+06	  -1.919605E+06	  -9.476263E+03	  -3.580103E+07	   1.735084E+08	   3.373824E-08
    0.1625	  -2.109737E-02	  -1.011906E+07	  -3.585754E+06	   1.223693E+08	  -6.977287E+07	   2.061361E+08	   5.553639E+01	   3.576773E-02	   6.741207E-03	   1.075590E-04	  -1.569175E-04	   8.336790E-04	  -1.915422E-06	   4.159477E-01	   8.080193E-02	   1.287866E-03	  -1.856707E-03	   9.510231E-03	  -8.702319E-05	   2.057364E+00	   4.975376E-01	   5.473570E-03	  -1.116525E-02	   4.302587E-02	  -2.002898E-03	  -1.243624E+06	  -1.611579E+06	  -4.926716E+04	  -3.260043E+07	   3.085678E+07	   2.029000E-02	   0.000000E+00	   0.000000E+00	   1.224268E+08	  -4.518921E+05	   2.400860E+06	   0.000000E+00	  -8.858025E+06	  -1.968229E+06	  -8.235503E+03	  -3.661305E+07	   1.726610E+08	   3.662957E-08
    0.1750	  -1.839568E-02	  -1.000353E+07	  -3.637648E+06	   1.223688E+08	  -7.066266E+07	   2.058504E+08	   6.796042E+01	   4.112611E-02	   7.790455E-03	   1.240616E-04	  -1.810078E-04	   9.558639E-04	  -3.183429E-06	   4.412621E-01	   8.708895E-02	   1.350619E-03	  -1.998002E-03	   1.003509E-02	  -1.125980E-04	   1.992032E+00	   5.126190E-01	   4.557732E-03	  -1.153942E-02	   4.093663E-02	  -2.073384E-03	  -1.233272E+06	  -1.609652E+06	  -5.113098E+04	  -3.253129E+07	   3.072645E+07	   2.028175E-02	   0.000000E+00	   0.000000E+00	   1.224268E+08	  -5.212640E+05	   2.752733E+06	   0.000000E+00	  -8.750682E+06	  -2.021400E+06	  -6.857820E+03	  -3.749274E+07	   1.721266E+08	   3.791919E-08
    0.1875	  -1.569400E-02	  -9.911556E+06	  -3.689564E+06	   1.223684E+08	  -7.156677E+07	   2.059078E+08	   8.207919E+01	   4.679599E-02	   8.919463E-03	   1.412748E-04	  -2.068935E-04	   1.084451E-03	  -4.779350E-06	   4.657947E-01	   9.356105E-02	   1.401446E-03	  -2.143881E-03	   1.053486E-02	  -1.384982E-04	   1.934933E+00	   5.274197E-01	   3.556773E-03	  -1.190309E-02	   3.907451E-02	  -2.069830E-03	  -1.222920E+06	  -1.607724E+06	  -5.299479E+04	  -3.246214E+07	   3.059611E+07	   2.027350E-02	   0.000000E+00	   0.000000E+00	   1.224267E+08	  -5.958044E+05	   3.123044E+06	   0.000000E+00	  -8.666814E+06	  -2.074556E+06	  -5.352082E+03	  -3.838111E+07	   1.719157E+08	   3.785499E-08
    0.2000	  -1.299231E-02	  -9.841388E+06	  -3.736886E+06	   1.223681E+08	  -7.242586E+07	   2.062831E+08	   9.798746E+01	   5.276826E-02	   1.013048E-02	   1.590433E-04	  -2.346299E-04	   1.219145E-03	  -6.702810E-06	   4.896556E-01	   1.002058E-01	   1.439246E-03	  -2.293945E-03	   1.101256E-02	  -1.639602E-04	   1.885444E+00	   5.401665E-01	   2.480026E-03	  -1.220598E-02	   3.742240E-02	  -2.019646E-03	  -1.212567E+06	  -1.605797E+06	  -5.485861E+04	  -3.239300E+07	   3.046577E+07	   2.026525E-02	   0.000000E+00	   0.000000E+00	   1.224267E+08	  -6.756721E+05	   3.510944E+06	   0.000000E+00	  -8.604661E+06	  -2.123081E+06	  -3.732333E+03	  -3.921863E+07	   1.720038E+08	   3.693821E-08
    0.2125	  -1.029062E-02	  -9.790539E+06	  -3.775198E+06	   1.223679E+08	  -7.318304E+07	   2.069426E+08	   1.157670E+02	   5.903509E-02	   1.142546E-02	   1.771977E-04	  -2.642634E-04	   1.359686E-03	  -8.946404E-06	   5.129259E-01	   1.069896E-01	   1.463128E-03	  -2.447198E-03	   1.147043E-02	  -1.886473E-04	   1.842642E+00	   5.491632E-01	   1.326733E-03	  -1.240001E-02	   3.595435E-02	  -1.956479E-03	  -1.202214E+06	  -1.603869E+06	  -5.672243E+04	  -3.232386E+07	   3.033544E+07	   2.025701E-02	   0.000000E+00	   0.000000E+00	   1.224266E+08	  -7.610004E+05	   3.915680E+06	   0.000000E+00	  -8.561743E+06	  -2.162557E+06	  -1.997431E+03	  -3.994827E+07	   1.723580E+08	   3.578419E-08
    0.2250	  -7.588938E-03	  -9.754256E+06	  -3.800570E+06	   1.223679E+08	  -7.378762E+07	   2.078233E+08	   1.354795E+02	   6.558957E-02	   1.280581E-02	   1.955588E-04	  -2.958246E-04	   1.505839E-03	  -1.150108E-05	   5.356889E-01	   1.138581E-01	   1.472103E-03	  -2.602054E-03	   1.191074E-02	  -2.126382E-04	   1.804739E+00	   5.529050E-01	   1.064118E-04	  -1.244253E-02	   3.461997E-02	  -1.911521E-03	  -1.191862E+06	  -1.601942E+06	  -5.858624E+04	  -3.225472E+07	   3.020510E+07	   2.024876E-02	   0.000000E+00	   0.000000E+00	   1.224266E+08	  -8.518765E+05	   4.336579E+06	   0.000000E+00	  -8.533302E+06	  -2.189059E+06	  -1.616915E+02	  -4.051925E+07	   1.729159E+08	   3.496337E-08
    0.2375	  -4.887254E-03	  -9.726861E+06	  -3.810100E+06	   1.223679E+08	  -7.420217E+07	   2.088506E+08	   1.571628E+02	   7.242570E-02	   1.427216E-02	   2.139345E-04	  -3.293207E-04	   1.657393E-03	  -1.436097E-05	   5.579876E-01	   1.207398E-01	   1.465457E-03	  -2.756446E-03	   1.233466E-02	  -2.363443E-04	   1.769585E+00	   5.502766E-01	  -1.170628E-03	  -1.230192E-02	   3.335856E-02	  -1.907377E-03	  -1.181509E+06	  -1.600014E+06	  -6.045005E+04	  -3.218557E+07	   3.007476E+07	   2.024051E-02	   0.000000E+00	   0.000000E+00	   1.224266E+08	  -9.483213E+05	   4.773034E+06	   0.000000E+00	  -8.513664E+06	  -2.199684E+06	   1.759376E+03	  -4.089415E+07	   1.736035E+08	   3.488914E-08
    0.2500	  -2.185567E-03	  -9.702054E+06	  -3.801884E+06	   1.223679E+08	  -7.440210E+07	   2.099418E+08	   1.808272E+02	   7.953782E-02	   1.582415E-02	   2.321264E-04	  -3.647314E-04	   1.814148E-03	  -1.752677E-05	   5.798490E-01	   1.275522E-01	   1.442559E-03	  -2.907990E-03	   1.274286E-02	  -2.603724E-04	   1.734785E+00	   5.405504E-01	  -2.486863E-03	  -1.195756E-02	   3.210245E-02	  -1.953134E-03	  -1.171157E+06	  -1.598087E+06	  -6.231387E+04	  -3.211643E+07	   2.994442E+07	   2.023226E-02	   0.000000E+00	   0.000000E+00	   1.224265E+08	  -1.050275E+06	   5.224466E+06	   0.000000E+00	  -8.496530E+06	  -2.192534E+06	   3.739410E+03	  -4.104846E+07	   1.743388E+08	   3.572765E-08
    0.2625	  -4.294956E-03	  -9.652416E+06	  -3.771513E+06	   1.223681E+08	  -7.428836E+07	   2.106386E+08	   2.065226E+02	   8.692045E-02	   1.746036E-02	   2.499283E-04	  -4.020048E-04	   1.975905E-03	  -2.100698E-05	   6.012619E-01	   1.342047E-01	   1.403077E-03	  -3.054087E-03	   1.313496E-02	  -2.853322E-04	   1.691722E+00	   5.224117E-01	  -3.781495E-03	  -1.137669E-02	   3.063164E-02	  -2.038341E-03	  -1.161287E+06	  -1.596158E+06	  -6.406308E+04	  -3.202312E+07	   2.980976E+07	   1.987189E-02	   0.000000E+00	   0.000000E+00	   1.224265E+08	  -1.157589E+06	   5.690308E+06	   0.000000E+00	  -8.453965E+06	  -2.163164E+06	   5.686946E+03	  -4.090747E+07	   1.746681E+08	   3.728781E-08
    0.2750	  -6.404343E-03	  -9.592520E+06	  -3.723149E+06	   1.223682E+08	  -7.395642E+07	   2.112314E+08	   2.341207E+02	   9.456692E-02	   1.917808E-02	   2.671394E-04	  -4.410534E-04	   2.142437E-03	  -2.481621E-05	   6.220418E-01	   1.405813E-01	   1.348192E-03	  -3.191519E-03	   1.350623E-02	  -3.115517E-04	   1.644137E+00	   4.970879E-01	  -5.019756E-03	  -1.058961E-02	   2.902817E-02	  -2.137217E-03	  -1.151418E+06	  -1.594228E+06	  -6.581229E+04	  -3.192980E+07	   2.967509E+07	   1.951152E-02	   0.000000E+00	   0.000000E+00	   1.224264E+08	  -1.270008E+06	   6.169900E+06	   0.000000E+00	  -8.401084E+06	  -2.115785E+06	   7.549679E+03	  -4.054286E+07	   1.748787E+08	   3.909810E-08
    0.2875	  -8.513731E-03	  -9.516637E+06	  -3.658401E+06	   1.223682E+08	  -7.342667E+07	   2.116448E+08	   2.635635E+02	   1.024695E-01	   2.097340E-02	   2.835655E-04	  -4.817553E-04	   2.313486E-03	  -2.897082E-05	   6.422243E-01	   1.466125E-01	   1.277560E-03	  -3.318216E-03	   1.385721E-02	  -3.389568E-04	   1.589859E+00	   4.652035E-01	  -6.228945E-03	  -9.614041E-03	   2.723081E-02	  -2.216426E-03	  -1.141548E+06	  -1.592299E+06	  -6.756150E+04	  -3.183649E+07	   2.954042E+07	   1.915115E-02	   0.000000E+00	   0.000000E+00	   1.224264E+08	  -1.387184E+06	   6.662500E+06	   0.000000E+00	  -8.332160E+06	  -2.052010E+06	   9.368679E+03	  -3.997542E+07	   1.748959E+08	   4.054889E-08
    0.3000	  -1.062312E-02	  -9.419964E+06	  -3.579814E+06	   1.223681E+08	  -7.273149E+07	   2.118154E+08	   2.947525E+02	   1.106199E-01	   2.284147E-02	   2.990182E-04	  -5.239615E-04	   2.488774E-03	  -3.348358E-05	   6.616812E-01	   1.522148E-01	   1.192654E-03	  -3.431813E-03	   1.418433E-02	  -3.670592E-04	   1.527084E+00	   4.277442E-01	  -7.330300E-03	  -8.477962E-03	   2.518859E-02	  -2.245387E-03	  -1.131679E+06	  -1.590370E+06	  -6.931070E+04	  -3.174317E+07	   2.940576E+07	   1.879077E-02	   0.000000E+00	   0.000000E+00	   1.224263E+08	  -1.508683E+06	   7.167313E+06	   0.000000E+00	  -8.242409E+06	  -1.974394E+06	   1.102546E+04	  -3.923802E+07	   1.746570E+08	   4.108092E-08
    0.3125	  -1.273251E-02	  -9.298746E+06	  -3.490628E+06	   1.223677E+08	  -7.191196E+07	   2.116926E+08	   3.275885E+02	   1.190083E-01	   2.477654E-02	   3.133267E-04	  -5.674966E-04	   2.667984E-03	  -3.835890E-05	   6.803021E-01	   1.573250E-01	   1.094724E-03	  -3.530492E-03	   1.448440E-02	  -3.950503E-04	   1.454417E+00	   3.859668E-01	  -8.291457E-03	  -7.217085E-03	   2.286238E-02	  -2.201534E-03	  -1.121809E+06	  -1.588440E+06	  -7.105991E+04	  -3.164986E+07	   2.927109E+07	   1.843040E-02	   0.000000E+00	   0.000000E+00	   1.224263E+08	  -1.634003E+06	   7.683422E+06	   0.000000E+00	  -8.128096E+06	  -1.886185E+06	   1.247132E+04	  -3.837234E+07	   1.741127E+08	   4.028151E-08
    0.3250	  -1.484189E-02	  -9.151129E+06	  -3.394494E+06	   1.223671E+08	  -7.101428E+07	   2.112504E+08	   3.619747E+02	   1.276236E-01	   2.677215E-02	   3.263408E-04	  -6.121655E-04	   2.850756E-03	  -4.358945E-05	   6.979576E-01	   1.618958E-01	   9.858591E-04	  -3.612894E-03	   1.475371E-02	  -4.219218E-04	   1.371194E+00	   3.412910E-01	  -9.086879E-03	  -5.871785E-03	   2.023369E-02	  -2.077708E-03	  -1.111940E+06	  -1.586511E+06	  -7.280912E+04	  -3.155654E+07	   2.913642E+07	   1.807003E-02	   0.000000E+00	   0.000000E+00	   1.224263E+08	  -1.762579E+06	   8.209788E+06	   0.000000E+00	  -7.987388E+06	  -1.791041E+06	   1.366786E+04	  -3.742520E+07	   1.732380E+08	   3.801973E-08
    0.3375	  -1.695128E-02	  -8.977074E+06	  -3.295117E+06	   1.223663E+08	  -7.008496E+07	   2.104857E+08	   3.978276E+02	   1.364527E-01	   2.882135E-02	   3.379372E-04	  -6.577592E-04	   3.036681E-03	  -4.915514E-05	   7.145179E-01	   1.658980E-01	   8.682726E-04	  -3.678176E-03	   1.498852E-02	  -4.467081E-04	   1.277455E+00	   2.951651E-01	  -9.696197E-03	  -4.483336E-03	   1.730411E-02	  -1.884221E-03	  -1.102070E+06	  -1.584581E+06	  -7.455834E+04	  -3.146323E+07	   2.900175E+07	   1.770966E-02	   0.000000E+00	   0.000000E+00	   1.224262E+08	  -1.893809E+06	   8.745237E+06	   0.000000E+00	  -7.820266E+06	  -1.692676E+06	   1.458443E+04	  -3.644378E+07	   1.720314E+08	   3.448414E-08
    0.3500	  -1.906067E-02	  -8.778150E+06	  -3.195891E+06	   1.223651E+08	  -6.916610E+07	   2.094161E+08	   4.350841E+02	   1.454814E-01	   3.091697E-02	   3.480215E-04	  -7.040614E-04	   3.225304E-03	  -5.502491E-05	   7.298539E-01	   1.693197E-01	   7.443571E-04	  -3.725990E-03	   1.518514E-02	  -4.686940E-04	   1.173865E+00	   2.489245E-01	  -1.010618E-02	  -3.089906E-03	   1.409289E-02	  -1.641875E-03	  -1.092201E+06	  -1.582652E+06	  -7.630755E+04	  -3.136991E+07	   2.886709E+07	   1.734929E-02	   0.000000E+00	   0.000000E+00	   1.224262E+08	  -2.027071E+06	   9.288461E+06	   0.000000E+00	  -7.628326E+06	  -1.594488E+06	   1.520111E+04	  -3.547086E+07	   1.705119E+08	   3.005518E-08
    0.3625	  -2.117006E-02	  -8.556844E+06	  -3.099790E+06	   1.223636E+08	  -6.829427E+07	   2.080698E+08	   4.737077E+02	   1.546934E-01	   3.305177E-02	   3.565306E-04	  -7.508542E-04	   3.416129E-03	  -6.116027E-05	   7.438492E-01	   1.721653E-01	   6.166457E-04	  -3.756453E-03	   1.534027E-02	  -4.874525E-04	   1.061457E+00	   2.037477E-01	  -1.030254E-02	  -1.725243E-03	   1.063010E-02	  -1.376655E-03	  -1.082331E+06	  -1.580723E+06	  -7.805676E+04	  -3.127660E+07	   2.873242E+07	   1.698891E-02	   0.000000E+00	   0.000000E+00	   1.224262E+08	  -2.161736E+06	   9.838024E+06	   0.000000E+00	  -7.414072E+06	  -1.499457E+06	   1.549645E+04	  -3.454368E+07	   1.687092E+08	   2.520799E-08
    0.3750	  -2.327945E-02	  -8.317063E+06	  -3.009068E+06	   1.223618E+08	  -6.749652E+07	   2.064931E+08	   5.136913E+02	   1.640714E-01	   3.521865E-02	   3.634339E-04	  -7.979237E-04	   3.608616E-03	  -6.751931E-05	   7.564005E-01	   1.744536E-01	   4.878125E-04	  -3.770080E-03	   1.545096E-02	  -5.028882E-04	   9.418187E-01	   1.605414E-01	  -1.028416E-02	  -4.154615E-04	   6.961436E-03	  -1.116131E-03	  -1.072462E+06	  -1.578793E+06	  -7.980597E+04	  -3.118328E+07	   2.859775E+07	   1.662854E-02	   0.000000E+00	   0.000000E+00	   1.224262E+08	  -2.297188E+06	   1.039238E+07	   0.000000E+00	  -7.181436E+06	  -1.409841E+06	   1.546872E+04	  -3.368991E+07	   1.666715E+08	   2.044678E-08
    0.3875	  -2.538883E-02	  -8.064357E+06	  -2.925146E+06	   1.223597E+08	  -6.678897E+07	   2.047538E+08	   5.550483E+02	   1.735968E-01	   3.741081E-02	   3.687342E-04	  -8.450641E-04	   3.802196E-03	  -7.406096E-05	   7.674301E-01	   1.762119E-01	   3.605790E-04	  -3.767647E-03	   1.551500E-02	  -5.152375E-04	   8.171628E-01	   1.198961E-01	  -1.006733E-02	   8.222508E-04	   3.150399E-03	  -8.870651E-04	  -1.062592E+06	  -1.576864E+06	  -8.155518E+04	  -3.108997E+07	   2.846309E+07	   1.626817E-02	   0.000000E+00	   0.000000E+00	   1.224262E+08	  -2.432836E+06	   1.094988E+07	   0.000000E+00	  -6.935984E+06	  -1.327062E+06	   1.514245E+04	  -3.292630E+07	   1.644680E+08	   1.626091E-08
    0.4000	  -2.749822E-02	  -7.804809E+06	  -2.848685E+06	   1.223574E+08	  -6.617804E+07	   2.029255E+08	   5.978103E+02	   1.832503E-01	   3.962184E-02	   3.724661E-04	  -8.920806E-04	   3.996276E-03	  -8.074906E-05	   7.768893E-01	   1.774743E-01	   2.372543E-04	  -3.750117E-03	   1.553102E-02	  -5.250571E-04	   6.899183E-01	   8.210853E-02	  -9.656535E-03	   1.979048E-03	  -7.332964E-04	  -7.071507E-04	  -1.052723E+06	  -1.574935E+06	  -8.330439E+04	  -3.099666E+07	   2.832842E+07	   1.590780E-02	   0.000000E+00	   0.000000E+00	   1.224262E+08	  -2.568117E+06	   1.150883E+07	   0.000000E+00	  -6.683812E+06	  -1.251784E+06	   1.452438E+04	  -3.225981E+07	   1.621745E+08	   1.297394E-08
    0.4125	  -2.960761E-02	  -7.545243E+06	  -2.779523E+06	   1.223547E+08	  -6.565955E+07	   2.010918E+08	   6.420149E+02	   1.930120E-01	   4.184577E-02	   3.746935E-04	  -9.387908E-04	   4.190253E-03	  -8.755523E-05	   7.847587E-01	   1.782772E-01	   1.201874E-04	  -3.718521E-03	   1.549852E-02	  -5.330265E-04	   5.627970E-01	   4.715914E-02	  -9.073471E-03	   3.055047E-03	  -4.611923E-03	  -5.833690E-04	  -1.042853E+06	  -1.573005E+06	  -8.505359E+04	  -3.090334E+07	   2.819375E+07	   1.554742E-02	   0.000000E+00	   0.000000E+00	   1.224261E+08	  -2.702507E+06	   1.206748E+07	   0.000000E+00	  -6.431754E+06	  -1.183843E+06	   1.364716E+04	  -3.168678E+07	   1.598761E+08	   1.071351E-08
    0.4250	  -3.171699E-02	  -7.292568E+06	  -2.716844E+06	   1.223519E+08	  -6.522096E+07	   1.993369E+08	   6.876934E+02	   2.028623E-01	   4.407706E-02	   3.755074E-04	  -9.850251E-04	   4.383522E-03	  -9.445979E-05	   7.910556E-01	   1.786556E-01	   1.143254E-05	  -3.673849E-03	   1.541800E-02	  -5.398323E-04	   4.385446E-01	   1.477521E-02	  -8.352047E-03	   4.057563E-03	  -8.406739E-03	  -5.128523E-04	  -1.032984E+06	  -1.571076E+06	  -8.680281E+04	  -3.081002E+07	   2.805909E+07	   1.518705E-02	   0.000000E+00	   0.000000E+00	   1.224261E+08	  -2.835519E+06	   1.262409E+07	   0.000000E+00	  -6.186724E+06	  -1.122423E+06	   1.256180E+04	  -3.119513E+07	   1.576589E+08	   9.427143E-09
    0.4375	  -3.382638E-02	  -7.053320E+06	  -2.659392E+06	   1.223489E+08	  -6.484439E+07	   1.977405E+08	   7.348611E+02	   2.127817E-01	   4.631060E-02	   3.750209E-04	  -1.030625E-03	   4.575492E-03	  -1.014512E-04	   7.958295E-01	   1.786398E-01	  -8.764343E-05	  -3.616974E-03	   1.529094E-02	  -5.460737E-04	   3.197597E-01	  -1.549131E-02	  -7.509980E-03	   4.998952E-03	  -1.204320E-02	  -4.788324E-04	  -1.023114E+06	  -1.569146E+06	  -8.855202E+04	  -3.071671E+07	   2.792442E+07	   1.482668E-02	   0.000000E+00	   0.000000E+00	   1.224261E+08	  -2.966696E+06	   1.317697E+07	   0.000000E+00	  -5.955256E+06	  -1.066266E+06	   1.129496E+04	  -3.076741E+07	   1.556042E+08	   8.808169E-09
    0.4500	  -3.593577E-02	  -6.833720E+06	  -2.605639E+06	   1.223457E+08	  -6.450853E+07	   1.963782E+08	   7.835110E+02	   2.227517E-01	   4.854161E-02	   3.733645E-04	  -1.075443E-03	   4.765594E-03	  -1.085234E-04	   7.991617E-01	   1.782547E-01	  -1.755492E-04	  -3.548601E-03	   1.511968E-02	  -5.520297E-04	   2.089186E-01	  -4.419585E-02	  -6.577759E-03	   5.894641E-03	  -1.545023E-02	  -4.619321E-04	  -1.013245E+06	  -1.567217E+06	  -9.030123E+04	  -3.062339E+07	   2.778975E+07	   1.446631E-02	   0.000000E+00	   0.000000E+00	   1.224262E+08	  -3.095612E+06	   1.372447E+07	   0.000000E+00	  -5.743564E+06	  -1.013843E+06	   9.892487E+03	  -3.038270E+07	   1.537891E+08	   8.502202E-09
    0.4625	  -3.804516E-02	  -6.638920E+06	  -2.554048E+06	   1.223425E+08	  -6.419194E+07	   1.953119E+08	   8.336080E+02	   2.327549E-01	   5.076560E-02	   3.706839E-04	  -1.119339E-03	   4.953297E-03	  -1.156727E-04	   8.011632E-01	   1.775175E-01	  -2.513662E-04	  -3.469234E-03	   1.490746E-02	  -5.577792E-04	   1.080824E-01	  -7.189577E-02	  -5.577202E-03	   6.760096E-03	  -1.856855E-02	  -4.405499E-04	  -1.003375E+06	  -1.565288E+06	  -9.205044E+04	  -3.053008E+07	   2.765509E+07	   1.410594E-02	   0.000000E+00	   0.000000E+00	   1.224262E+08	  -3.221863E+06	   1.426506E+07	   0.000000E+00	  -5.556793E+06	  -9.636150E+05	   8.387224E+03	  -3.001993E+07	   1.522769E+08	   8.114183E-09
    0.4750	  -4.015454E-02	  -6.473232E+06	  -2.503296E+06	   1.223392E+08	  -6.387588E+07	   1.945933E+08	   8.850959E+02	   2.427755E-01	   5.297822E-02	   3.671345E-04	  -1.162176E-03	   5.138111E-03	  -1.228945E-04	   8.019673E-01	   1.764392E-01	  -3.144372E-04	  -3.379201E-03	   1.465812E-02	  -5.631221E-04	   1.897953E-02	  -9.906652E-02	  -4.545061E-03	   7.608445E-03	  -2.134840E-02	  -3.916968E-04	  -9.935056E+05	  -1.563358E+06	  -9.379964E+04	  -3.043676E+07	   2.752042E+07	   1.374556E-02	   0.000000E+00	   0.000000E+00	   1.224262E+08	  -3.345058E+06	   1.479733E+07	   0.000000E+00	  -5.399237E+06	  -9.142542E+05	   6.834452E+03	  -2.966071E+07	   1.511205E+08	   7.223684E-09
    0.4875	  -4.226393E-02	  -6.339211E+06	  -2.452440E+06	   1.223359E+08	  -6.354580E+07	   1.942517E+08	   9.379019E+02	   2.527996E-01	   5.517524E-02	   3.628774E-04	  -1.203823E-03	   5.319600E-03	  -1.301798E-04	   8.017282E-01	   1.750254E-01	  -3.645583E-04	  -3.278681E-03	   1.437612E-02	  -5.675638E-04	  -5.734481E-02	  -1.260206E-01	  -3.500435E-03	   8.448013E-03	  -2.375946E-02	  -2.976944E-04	  -9.836362E+05	  -1.561429E+06	  -9.554886E+04	  -3.034345E+07	   2.738575E+07	   1.338519E-02	   0.000000E+00	   0.000000E+00	   1.224262E+08	  -3.464819E+06	   1.532003E+07	   0.000000E+00	  -5.273433E+06	  -8.648166E+05	   5.262905E+03	  -2.929084E+07	   1.503503E+08	   5.507387E-09
    0.5000	  -4.437332E-02	  -6.237408E+06	  -2.401107E+06	   1.223326E+08	  -6.319685E+07	   1.942895E+08	   9.919545E+02	   2.628150E-01	   5.735251E-02	   3.580744E-04	  -1.244149E-03	   5.497386E-03	  -1.375120E-04	   8.006060E-01	   1.732788E-01	  -4.017717E-04	  -3.167782E-03	   1.406611E-02	  -5.704603E-04	  -1.205910E-01	  -1.529037E-01	  -2.459691E-03	   9.282992E-03	  -2.579229E-02	  -1.632634E-04	  -9.737666E+05	  -1.559500E+06	  -9.729807E+04	  -3.025013E+07	   2.725108E+07	   1.302482E-02	   0.000000E+00	   0.000000E+00	   1.224262E+08	  -3.580768E+06	   1.583206E+07	   0.000000E+00	  -5.179914E+06	  -8.149276E+05	   3.697206E+03	  -2.890579E+07	   1.499695E+08	   3.051616E-09