
FAST Summary File

Predictions were generated on 11-Nov-2020 at 11:28:59 using OpenFAST, compiled as a 64-bit application using double precision at commit v2.4.0-57-g23caac2a
  compiled with
    NWTC Subroutine Library
    ElastoDyn
    BeamDyn (unknown version, unknown date) [not called]
    InflowWind
    AeroDyn14 (unknown version, unknown date) [not called]
    AeroDyn
    ServoDyn
    HydroDyn
    SubDyn (unknown version, unknown date) [not called]
    ExtPtfm_MCKF (unknown version, unknown date) [not called]
    MAP (unknown version, unknown date) [not called]
    FEAMooring (unknown version, unknown date) [not called]
    MoorDyn (v1.01.02F, 8-Apr-2016)
    OrcaFlexInterface (unknown version, unknown date) [not called]
    IceFloe (unknown version, unknown date) [not called]
    IceDyn (unknown version, unknown date) [not called]


Modeling a floating offshore turbine
Description from the FAST input file: 
  FAST Certification Test #25: NREL 5.0 MW Baseline Wind Turbine with OC4-DeepCwind semi configuration, for use in offshore analysis

Interpolation order for input/output time histories: 2 (quadratic)
Number of correction iterations:  0
Number of rows in Jacobian matrix used for coupling ElastoDyn to HydroDyn:     12


   Requested Time Steps  
  -------------------------------------------------
  Component          Time Step (s)    Subcycles (-)
  -----------------  ---------------  -------------
  FAST (glue code)     1.2500000E-02
  InflowWind           1.2500000E-02         1
  ElastoDyn            1.2500000E-02         1
  AeroDyn              1.2500000E-02         1
  ServoDyn             1.2500000E-02         1
  HydroDyn             1.2500000E-02         1
  MoorDyn              1.2500000E-02         1
  FAST output files    1.2500000E-02         1


   Requested Channels in FAST Output File(s)  
  --------------------------------------------
  Number  Name                  Units                 Generated by
  ------  --------------------  --------------------  ------------
       1  Time                  (s)                   OpenFAST
       2  Wind1VelX             (m/s)                 InflowWind
       3  Wind1VelY             (m/s)                 InflowWind
       4  Wind1VelZ             (m/s)                 InflowWind
       5  Azimuth               (deg)                 ElastoDyn
       6  RotSpeed              (rpm)                 ElastoDyn
       7  GenSpeed              (rpm)                 ElastoDyn
       8  OoPDefl1              (m)                   ElastoDyn
       9  IPDefl1               (m)                   ElastoDyn
      10  TwstDefl1             (deg)                 ElastoDyn
      11  BldPitch1             (deg)                 ElastoDyn
      12  TTDspFA               (m)                   ElastoDyn
      13  TTDspSS               (m)                   ElastoDyn
      14  TTDspTwst             (deg)                 ElastoDyn
      15  PtfmSurge             (m)                   ElastoDyn
      16  PtfmSway              (m)                   ElastoDyn
      17  PtfmHeave             (m)                   ElastoDyn
      18  PtfmRoll              (deg)                 ElastoDyn
      19  PtfmPitch             (deg)                 ElastoDyn
      20  PtfmYaw               (deg)                 ElastoDyn
      21  RootFxc1              (kN)                  ElastoDyn
      22  RootFyc1              (kN)                  ElastoDyn
      23  RootFzc1              (kN)                  ElastoDyn
      24  RootMxc1              (kN-m)                ElastoDyn
      25  RootMyc1              (kN-m)                ElastoDyn
      26  RootMzc1              (kN-m)                ElastoDyn
      27  RotTorq               (kN-m)                ElastoDyn
      28  LSSGagMya             (kN-m)                ElastoDyn
      29  LSSGagMza             (kN-m)                ElastoDyn
      30  YawBrFxp              (kN)                  ElastoDyn
      31  YawBrFyp              (kN)                  ElastoDyn
      32  YawBrFzp              (kN)                  ElastoDyn
      33  YawBrMxp              (kN-m)                ElastoDyn
      34  YawBrMyp              (kN-m)                ElastoDyn
      35  YawBrMzp              (kN-m)                ElastoDyn
      36  TwrBsFxt              (kN)                  ElastoDyn
      37  TwrBsFyt              (kN)                  ElastoDyn
      38  TwrBsFzt              (kN)                  ElastoDyn
      39  TwrBsMxt              (kN-m)                ElastoDyn
      40  TwrBsMyt              (kN-m)                ElastoDyn
      41  TwrBsMzt              (kN-m)                ElastoDyn
      42  RtArea                (m^2)                 AeroDyn
      43  B1N3Clrnc             (m)                   AeroDyn
      44  B2N3Clrnc             (m)                   AeroDyn
      45  B3N3Clrnc             (m)                   AeroDyn
      46  GenPwr                (kW)                  ServoDyn
      47  GenTq                 (kN-m)                ServoDyn
      48  Wave1Elev             (m)                   HydroDyn
      49  HydroFxi              (N)                   HydroDyn
      50  HydroFyi              (N)                   HydroDyn
      51  HydroFzi              (N)                   HydroDyn
      52  HydroMxi              (N-m)                 HydroDyn
      53  HydroMyi              (N-m)                 HydroDyn
      54  HydroMzi              (N-m)                 HydroDyn
      55  WRPSurge              (m)                   HydroDyn
      56  WRPSway               (m)                   HydroDyn
      57  WRPHeave              (m)                   HydroDyn
      58  WRPRoll               (rad)                 HydroDyn
      59  WRPPitch              (rad)                 HydroDyn
      60  WRPYaw                (rad)                 HydroDyn
      61  WRPTVxi               (m/s)                 HydroDyn
      62  WRPTVyi               (m/s)                 HydroDyn
      63  WRPTVzi               (m/s)                 HydroDyn
      64  WRPRVxi               (rad/s)               HydroDyn
      65  WRPRVyi               (rad/s)               HydroDyn
      66  WRPRVzi               (rad/s)               HydroDyn
      67  WRPTAxi               (m/s^2)               HydroDyn
      68  WRPTAyi               (m/s^2)               HydroDyn
      69  WRPTAzi               (m/s^2)               HydroDyn
      70  WRPRAxi               (rad/s^2)             HydroDyn
      71  WRPRAyi               (rad/s^2)             HydroDyn
      72  WRPRAzi               (rad/s^2)             HydroDyn
      73  WavesFxi              (N)                   HydroDyn
      74  WavesFyi              (N)                   HydroDyn
      75  WavesFzi              (N)                   HydroDyn
      76  WavesMxi              (N-m)                 HydroDyn
      77  WavesMyi              (N-m)                 HydroDyn
      78  WavesMzi              (N-m)                 HydroDyn
      79  HdrStcFxi             (N)                   HydroDyn
      80  HdrStcFyi             (N)                   HydroDyn
      81  HdrStcFzi             (N)                   HydroDyn
      82  HdrStcMxi             (N-m)                 HydroDyn
      83  HdrStcMyi             (N-m)                 HydroDyn
      84  HdrStcMzi             (N-m)                 HydroDyn
      85  RdtnFxi               (N)                   HydroDyn
      86  RdtnFyi               (N)                   HydroDyn
      87  RdtnFzi               (N)                   HydroDyn
      88  RdtnMxi               (N-m)                 HydroDyn
      89  RdtnMyi               (N-m)                 HydroDyn
      90  RdtnMzi               (N-m)                 HydroDyn
      91  FAIRTEN1              (N)                   MoorDyn
      92  FAIRTEN2              (N)                   MoorDyn
      93  FAIRTEN3              (N)                   MoorDyn
      94  ANCHTEN1              (N)                   MoorDyn
      95  ANCHTEN2              (N)                   MoorDyn
      96  ANCHTEN3              (N)                   MoorDyn
