
Predictions were generated on 23-Jul-2020 at 12:26:53 using AA 
 AeroAcoustics
Number of observers      :    2
     Time           	Obs1                	Obs2                
      (s)           	OASPL               	OASPL               
         0.0000	  5.448877E+001	  3.495695E+001
         0.1000	  7.817108E+001	  5.792257E+001
         0.2000	  7.834663E+001	  5.794989E+001
         0.3000	  7.841592E+001	  5.851243E+001
         0.4000	  7.841905E+001	  5.941686E+001
         0.5000	  7.836942E+001	  5.990592E+001
         0.6000	  7.849654E+001	  6.018459E+001
         0.7000	  7.875219E+001	  6.063184E+001
         0.8000	  7.903976E+001	  6.116795E+001
         0.9000	  7.921118E+001	  6.145078E+001
         1.0000	  7.921233E+001	  6.126075E+001
         1.1000	  7.913430E+001	  6.096678E+001
         1.2000	  7.905102E+001	  6.075771E+001
         1.3000	  7.885815E+001	  6.062957E+001
         1.4000	  7.865838E+001	  6.073703E+001
         1.5000	  7.859686E+001	  6.099598E+001
         1.6000	  7.856807E+001	  6.113508E+001
         1.7000	  7.849702E+001	  6.117360E+001
         1.8000	  7.844447E+001	  6.128303E+001
         1.9000	  7.846656E+001	  6.142935E+001
         2.0000	  7.854062E+001	  6.137862E+001
         2.1000	  7.858239E+001	  6.115518E+001
         2.2000	  7.855498E+001	  6.072308E+001
         2.3000	  7.851230E+001	  6.018266E+001
         2.4000	  7.852542E+001	  5.993498E+001
         2.5000	  7.863739E+001	  6.018166E+001
         2.6000	  7.880265E+001	  6.056434E+001
         2.7000	  7.889310E+001	  6.065033E+001
         2.8000	  7.889051E+001	  6.049127E+001
         2.9000	  7.890097E+001	  6.052002E+001
         3.0000	  7.897194E+001	  6.068780E+001
         3.1000	  7.899526E+001	  6.095070E+001
         3.2000	  7.896413E+001	  6.106801E+001
         3.3000	  7.882992E+001	  6.091316E+001
         3.4000	  7.864640E+001	  6.075336E+001
         3.5000	  7.852554E+001	  6.084674E+001
         3.6000	  7.852159E+001	  6.115284E+001
         3.7000	  7.859272E+001	  6.144732E+001
         3.8000	  7.861591E+001	  6.154823E+001
         3.9000	  7.854210E+001	  6.148672E+001
         4.0000	  7.843657E+001	  6.120911E+001
         4.1000	  7.840983E+001	  6.087562E+001
         4.2000	  7.852165E+001	  6.056613E+001
         4.3000	  7.866940E+001	  6.031867E+001
         4.4000	  7.869813E+001	  6.020704E+001
         4.5000	  7.862050E+001	  6.025827E+001
         4.6000	  7.859583E+001	  6.034985E+001
         4.7000	  7.873441E+001	  6.038650E+001
         4.8000	  7.898327E+001	  6.047489E+001
         4.9000	  7.914791E+001	  6.077110E+001
         5.0000	  7.908819E+001	  6.090997E+001
         5.1000	  7.885932E+001	  6.094651E+001
         5.2000	  7.873599E+001	  6.087370E+001
         5.3000	  7.875462E+001	  6.078112E+001
         5.4000	  7.878588E+001	  6.082414E+001
         5.5000	  7.870235E+001	  6.099657E+001
         5.6000	  7.854579E+001	  6.119391E+001
         5.7000	  7.845078E+001	  6.135317E+001
         5.8000	  7.846564E+001	  6.147462E+001
         5.9000	  7.854127E+001	  6.153837E+001
         6.0000	  7.856804E+001	  6.125219E+001
         6.1000	  7.852934E+001	  6.085879E+001
         6.2000	  7.850886E+001	  6.054730E+001
         6.3000	  7.853589E+001	  6.033522E+001
         6.4000	  7.859139E+001	  6.021105E+001
         6.5000	  7.866231E+001	  6.018577E+001
         6.6000	  7.874046E+001	  6.025423E+001
         6.7000	  7.883314E+001	  6.038927E+001
         6.8000	  7.893446E+001	  6.059507E+001
         6.9000	  7.900815E+001	  6.090262E+001
         7.0000	  7.901726E+001	  6.091090E+001
         7.1000	  7.893306E+001	  6.086525E+001
         7.2000	  7.885345E+001	  6.080575E+001
         7.3000	  7.877424E+001	  6.077298E+001
         7.4000	  7.868224E+001	  6.084282E+001
         7.5000	  7.859742E+001	  6.102548E+001
         7.6000	  7.855659E+001	  6.125113E+001
         7.7000	  7.854408E+001	  6.142143E+001
         7.8000	  7.852436E+001	  6.148229E+001
         7.9000	  7.850114E+001	  6.144007E+001
         8.0000	  7.848152E+001	  6.112537E+001
         8.1000	  7.850228E+001	  6.086852E+001
         8.2000	  7.855723E+001	  6.067538E+001
         8.3000	  7.859043E+001	  6.041249E+001
         8.4000	  7.859806E+001	  6.010823E+001
         8.5000	  7.862786E+001	  5.998221E+001
         8.6000	  7.871658E+001	  6.017764E+001
         8.7000	  7.885096E+001	  6.055475E+001
         8.8000	  7.896747E+001	  6.085076E+001
         8.9000	  7.902366E+001	  6.098680E+001
         9.0000	  7.899977E+001	  6.072906E+001
         9.1000	  7.889580E+001	  6.064679E+001
         9.2000	  7.883467E+001	  6.077827E+001
         9.3000	  7.879480E+001	  6.094020E+001
         9.4000	  7.871855E+001	  6.100935E+001
         9.5000	  7.860224E+001	  6.104115E+001
         9.6000	  7.850465E+001	  6.114675E+001
         9.7000	  7.847928E+001	  6.132844E+001
         9.8000	  7.852505E+001	  6.148725E+001
         9.9000	  7.857588E+001	  6.152142E+001
        10.0000	  7.854888E+001	  6.118836E+001
