
FAST Summary File

Predictions were generated on 15-Jun-2020 at 13:39:51 using OpenFAST, compiled as a 64-bit application using double precision at commit v2.3.0-261-g1b229cc0
  compiled with
    NWTC Subroutine Library
    ElastoDyn
    BeamDyn [not called]
    InflowWind
    AeroDyn14 [not called]
    AeroDyn
    ServoDyn [not called]
    HydroDyn [not called]
    SubDyn [not called]
    ExtPtfm_MCKF [not called]
    MAP [not called]
    FEAMooring [not called]
    MoorDyn [not called]
    OrcaFlexInterface [not called]
    IceFloe [not called]
    IceDyn [not called]


Modeling a land-based turbine
Description from the FAST input file: 
  AeroElasticSE FAST driver

Interpolation order for input/output time histories: 1 (linear)
Number of correction iterations:  0


   Requested Time Steps  
  -------------------------------------------------
  Component          Time Step (s)    Subcycles (-)
  -----------------  ---------------  -------------
  FAST (glue code)    1.000E+02
  InflowWind          1.000E+02              1
  ElastoDyn           1.000E+02              1
  AeroDyn             1.000E+02              1
  FAST output files   1.000E+02              1


   Requested Channels in FAST Output File(s)  
  --------------------------------------------
  Number  Name        Units       Generated by
  ------  ----------  ----------  ------------
       1  Time        (s)         OpenFAST
       2  Wind1VelX   (m/s)       InflowWind
       3  Wind1VelY   (m/s)       InflowWind
       4  Wind1VelZ   (m/s)       InflowWind
       5  Azimuth     (deg)       ElastoDyn
       6  BldPitch1   (deg)       ElastoDyn
       7  GenSpeed    (rpm)       ElastoDyn
       8  IPDefl1     (m)         ElastoDyn
       9  LSSGagMya   (kN-m)      ElastoDyn
      10  LSSGagMza   (kN-m)      ElastoDyn
      11  OoPDefl1    (m)         ElastoDyn
      12  RootFxb1    (kN)        ElastoDyn
      13  RootFyb1    (kN)        ElastoDyn
      14  RootFzb1    (kN)        ElastoDyn
      15  RootMxb1    (kN-m)      ElastoDyn
      16  RootMyb1    (kN-m)      ElastoDyn
      17  RootMzb1    (kN-m)      ElastoDyn
      18  RotSpeed    (rpm)       ElastoDyn
      19  RotTorq     (kN-m)      ElastoDyn
      20  Spn2MLxb1   (kN-m)      ElastoDyn
      21  Spn2MLyb1   (kN-m)      ElastoDyn
      22  TTDspFA     (m)         ElastoDyn
      23  TTDspSS     (m)         ElastoDyn
      24  TTDspTwst   (deg)       ElastoDyn
      25  TwrBsFxt    (kN)        ElastoDyn
      26  TwrBsFyt    (kN)        ElastoDyn
      27  TwrBsFzt    (kN)        ElastoDyn
      28  TwrBsMxt    (kN-m)      ElastoDyn
      29  TwrBsMyt    (kN-m)      ElastoDyn
      30  TwrBsMzt    (kN-m)      ElastoDyn
      31  TwstDefl1   (deg)       ElastoDyn
      32  YawBrFxp    (kN)        ElastoDyn
      33  YawBrFyp    (kN)        ElastoDyn
      34  YawBrFzp    (kN)        ElastoDyn
      35  YawBrMxp    (kN-m)      ElastoDyn
      36  YawBrMyp    (kN-m)      ElastoDyn
      37  YawBrMzp    (kN-m)      ElastoDyn
      38  RtTSR       (-)         AeroDyn
      39  RtVAvgxh    (m/s)       AeroDyn
      40  RtVAvgyh    (m/s)       AeroDyn
      41  RtVAvgzh    (m/s)       AeroDyn
      42  RtSkew      (deg)       AeroDyn
      43  RtAeroFxh   (N)         AeroDyn
      44  RtAeroFyh   (N)         AeroDyn
      45  RtAeroFzh   (N)         AeroDyn
      46  RtAeroMxh   (N-m)       AeroDyn
      47  RtAeroMyh   (N-m)       AeroDyn
      48  RtAeroMzh   (N-m)       AeroDyn
      49  RtAeroPwr   (W)         AeroDyn
      50  RtAeroCp    (-)         AeroDyn
      51  RtAeroCq    (-)         AeroDyn
      52  RtAeroCt    (-)         AeroDyn
      53  B1N9Clrnc   INVALID     AeroDyn
      54  B1N1Alpha   INVALID     AeroDyn
      55  B1N1Cl      INVALID     AeroDyn
      56  B1N1Cd      INVALID     AeroDyn
      57  B1N1Cm      INVALID     AeroDyn
      58  B1N1Fl      INVALID     AeroDyn
      59  B1N1Fd      INVALID     AeroDyn
      60  B1N1Fn      INVALID     AeroDyn
      61  B1N1Ft      INVALID     AeroDyn
      62  B1N1Vrel    INVALID     AeroDyn
      63  B1N1AxInd   INVALID     AeroDyn
      64  B1N1Fx      INVALID     AeroDyn
      65  B1N1Fy      INVALID     AeroDyn
      66  B1N1Ft      INVALID     AeroDyn
      67  B1N1Fn      INVALID     AeroDyn
      68  B1N1Mm      INVALID     AeroDyn
      69  B1N2Alpha   INVALID     AeroDyn
      70  B1N2Cl      INVALID     AeroDyn
      71  B1N2Cd      INVALID     AeroDyn
      72  B1N2Cm      INVALID     AeroDyn
      73  B1N2Fl      INVALID     AeroDyn
      74  B1N2Fd      INVALID     AeroDyn
      75  B1N2Fn      INVALID     AeroDyn
      76  B1N2Ft      INVALID     AeroDyn
      77  B1N2Vrel    INVALID     AeroDyn
      78  B1N2AxInd   INVALID     AeroDyn
      79  B1N2Fx      INVALID     AeroDyn
      80  B1N2Fy      INVALID     AeroDyn
      81  B1N2Ft      INVALID     AeroDyn
      82  B1N2Fn      INVALID     AeroDyn
      83  B1N2Mm      INVALID     AeroDyn
      84  B1N3Alpha   INVALID     AeroDyn
      85  B1N3Cl      INVALID     AeroDyn
      86  B1N3Cd      INVALID     AeroDyn
      87  B1N3Cm      INVALID     AeroDyn
      88  B1N3Fl      INVALID     AeroDyn
      89  B1N3Fd      INVALID     AeroDyn
      90  B1N3Fn      INVALID     AeroDyn
      91  B1N3Ft      INVALID     AeroDyn
      92  B1N3Vrel    INVALID     AeroDyn
      93  B1N3AxInd   INVALID     AeroDyn
      94  B1N3Fx      INVALID     AeroDyn
      95  B1N3Fy      INVALID     AeroDyn
      96  B1N3Ft      INVALID     AeroDyn
      97  B1N3Fn      INVALID     AeroDyn
      98  B1N3Mm      INVALID     AeroDyn
      99  B1N4Alpha   INVALID     AeroDyn
     100  B1N4Cl      INVALID     AeroDyn
     101  B1N4Cd      INVALID     AeroDyn
     102  B1N4Cm      INVALID     AeroDyn
     103  B1N4Fl      INVALID     AeroDyn
     104  B1N4Fd      INVALID     AeroDyn
     105  B1N4Fn      INVALID     AeroDyn
     106  B1N4Ft      INVALID     AeroDyn
     107  B1N4Vrel    INVALID     AeroDyn
     108  B1N4AxInd   INVALID     AeroDyn
     109  B1N4Fx      INVALID     AeroDyn
     110  B1N4Fy      INVALID     AeroDyn
     111  B1N4Ft      INVALID     AeroDyn
     112  B1N4Fn      INVALID     AeroDyn
     113  B1N4Mm      INVALID     AeroDyn
     114  B1N5Alpha   INVALID     AeroDyn
     115  B1N5Cl      INVALID     AeroDyn
     116  B1N5Cd      INVALID     AeroDyn
     117  B1N5Cm      INVALID     AeroDyn
     118  B1N5Fl      INVALID     AeroDyn
     119  B1N5Fd      INVALID     AeroDyn
     120  B1N5Fn      INVALID     AeroDyn
     121  B1N5Ft      INVALID     AeroDyn
     122  B1N5Vrel    INVALID     AeroDyn
     123  B1N5AxInd   INVALID     AeroDyn
     124  B1N5Fx      INVALID     AeroDyn
     125  B1N5Fy      INVALID     AeroDyn
     126  B1N5Ft      INVALID     AeroDyn
     127  B1N5Fn      INVALID     AeroDyn
     128  B1N5Mm      INVALID     AeroDyn
     129  B1N6Alpha   INVALID     AeroDyn
     130  B1N6Cl      INVALID     AeroDyn
     131  B1N6Cd      INVALID     AeroDyn
     132  B1N6Cm      INVALID     AeroDyn
     133  B1N6Fl      INVALID     AeroDyn
     134  B1N6Fd      INVALID     AeroDyn
     135  B1N6Fn      INVALID     AeroDyn
     136  B1N6Ft      INVALID     AeroDyn
     137  B1N6Vrel    INVALID     AeroDyn
     138  B1N6AxInd   INVALID     AeroDyn
     139  B1N6Fx      INVALID     AeroDyn
     140  B1N6Fy      INVALID     AeroDyn
     141  B1N6Ft      INVALID     AeroDyn
     142  B1N6Fn      INVALID     AeroDyn
     143  B1N6Mm      INVALID     AeroDyn
     144  B1N7Alpha   INVALID     AeroDyn
     145  B1N7Cl      INVALID     AeroDyn
     146  B1N7Cd      INVALID     AeroDyn
     147  B1N7Cm      INVALID     AeroDyn
     148  B1N7Fl      INVALID     AeroDyn
     149  B1N7Fd      INVALID     AeroDyn
     150  B1N7Fn      INVALID     AeroDyn
     151  B1N7Ft      INVALID     AeroDyn
     152  B1N7Vrel    INVALID     AeroDyn
     153  B1N7AxInd   INVALID     AeroDyn
     154  B1N7Fx      INVALID     AeroDyn
     155  B1N7Fy      INVALID     AeroDyn
     156  B1N7Ft      INVALID     AeroDyn
     157  B1N7Fn      INVALID     AeroDyn
     158  B1N7Mm      INVALID     AeroDyn
     159  B1N8Alpha   INVALID     AeroDyn
     160  B1N8Cl      INVALID     AeroDyn
     161  B1N8Cd      INVALID     AeroDyn
     162  B1N8Cm      INVALID     AeroDyn
     163  B1N8Fl      INVALID     AeroDyn
     164  B1N8Fd      INVALID     AeroDyn
     165  B1N8Fn      INVALID     AeroDyn
     166  B1N8Ft      INVALID     AeroDyn
     167  B1N8Vrel    INVALID     AeroDyn
     168  B1N8AxInd   INVALID     AeroDyn
     169  B1N8Fx      INVALID     AeroDyn
     170  B1N8Fy      INVALID     AeroDyn
     171  B1N8Ft      INVALID     AeroDyn
     172  B1N8Fn      INVALID     AeroDyn
     173  B1N8Mm      INVALID     AeroDyn
     174  B1N9Alpha   INVALID     AeroDyn
     175  B1N9Cl      INVALID     AeroDyn
     176  B1N9Cd      INVALID     AeroDyn
     177  B1N9Cm      INVALID     AeroDyn
     178  B1N9Fl      INVALID     AeroDyn
     179  B1N9Fd      INVALID     AeroDyn
     180  B1N9Fn      INVALID     AeroDyn
     181  B1N9Ft      INVALID     AeroDyn
     182  B1N9Vrel    INVALID     AeroDyn
     183  B1N9AxInd   INVALID     AeroDyn
     184  B1N9Fx      INVALID     AeroDyn
     185  B1N9Fy      INVALID     AeroDyn
     186  B1N9Ft      INVALID     AeroDyn
     187  B1N9Fn      INVALID     AeroDyn
     188  B1N9Mm      INVALID     AeroDyn
