
FAST Summary File

Predictions were generated on 14-Jan-2021 at 17:43:22 using OpenFAST, compiled as a 64-bit application using double precision at commit v2.5.0-10-gb4fd3acc
  compiled with
    NWTC Subroutine Library
    ElastoDyn
    BeamDyn (unknown version, unknown date) [not called]
    InflowWind
    AeroDyn14 (unknown version, unknown date) [not called]
    AeroDyn
    ServoDyn (unknown version, unknown date) [not called]
    HydroDyn (unknown version, unknown date) [not called]
    SubDyn (unknown version, unknown date) [not called]
    ExtPtfm_MCKF (unknown version, unknown date) [not called]
    MAP (unknown version, unknown date) [not called]
    FEAMooring (unknown version, unknown date) [not called]
    MoorDyn (unknown version, unknown date) [not called]
    OrcaFlexInterface (unknown version, unknown date) [not called]
    IceFloe (unknown version, unknown date) [not called]
    IceDyn (unknown version, unknown date) [not called]


Modeling a land-based turbine
Description from the FAST input file: 
  Elliptical wing test case for OLAF free vortex wake in AD15

Interpolation order for input/output time histories: 1 (linear)
Number of correction iterations:  0


   Requested Time Steps  
  -------------------------------------------------
  Component          Time Step (s)    Subcycles (-)
  -----------------  ---------------  -------------
  FAST (glue code)    1.000E+02
  InflowWind          1.000E+02              1
  ElastoDyn           1.000E+02              1
  AeroDyn             1.000E+02              1
  FAST output files   1.000E+02              1


   Requested Channels in FAST Output File(s)  
  --------------------------------------------
  Number  Name                  Units                 Generated by
  ------  --------------------  --------------------  ------------
       1  Time                  (s)                   OpenFAST
       2  Wind1VelX             (m/s)                 InflowWind
       3  Wind1VelY             (m/s)                 InflowWind
       4  Wind1VelZ             (m/s)                 InflowWind
       5  OoPDefl1              (m)                   ElastoDyn
       6  IPDefl1               (m)                   ElastoDyn
       7  TwstDefl1             (deg)                 ElastoDyn
       8  BldPitch1             (deg)                 ElastoDyn
       9  Azimuth               (deg)                 ElastoDyn
      10  RotSpeed              (rpm)                 ElastoDyn
      11  GenSpeed              (rpm)                 ElastoDyn
      12  TTDspFA               (m)                   ElastoDyn
      13  TTDspSS               (m)                   ElastoDyn
      14  TTDspTwst             (deg)                 ElastoDyn
      15  Spn2MLxb1             (kN-m)                ElastoDyn
      16  Spn2MLyb1             (kN-m)                ElastoDyn
      17  RootFxb1              (kN)                  ElastoDyn
      18  RootFyb1              (kN)                  ElastoDyn
      19  RootFzb1              (kN)                  ElastoDyn
      20  RootMxb1              (kN-m)                ElastoDyn
      21  RootMyb1              (kN-m)                ElastoDyn
      22  RootMzb1              (kN-m)                ElastoDyn
      23  RotTorq               (kN-m)                ElastoDyn
      24  LSSGagMya             (kN-m)                ElastoDyn
      25  LSSGagMza             (kN-m)                ElastoDyn
      26  YawBrFxp              (kN)                  ElastoDyn
      27  YawBrFyp              (kN)                  ElastoDyn
      28  YawBrFzp              (kN)                  ElastoDyn
      29  YawBrMxp              (kN-m)                ElastoDyn
      30  YawBrMyp              (kN-m)                ElastoDyn
      31  YawBrMzp              (kN-m)                ElastoDyn
      32  TwrBsFxt              (kN)                  ElastoDyn
      33  TwrBsFyt              (kN)                  ElastoDyn
      34  TwrBsFzt              (kN)                  ElastoDyn
      35  TwrBsMxt              (kN-m)                ElastoDyn
      36  TwrBsMyt              (kN-m)                ElastoDyn
      37  TwrBsMzt              (kN-m)                ElastoDyn
      38  RtTSR                 (-)                   AeroDyn
      39  RtVAvgxh              (m/s)                 AeroDyn
      40  RtVAvgyh              (m/s)                 AeroDyn
      41  RtVAvgzh              (m/s)                 AeroDyn
      42  RtSkew                (deg)                 AeroDyn
      43  RtAeroFxh             (N)                   AeroDyn
      44  RtAeroFyh             (N)                   AeroDyn
      45  RtAeroFzh             (N)                   AeroDyn
      46  RtAeroMxh             (N-m)                 AeroDyn
      47  RtAeroMyh             (N-m)                 AeroDyn
      48  RtAeroMzh             (N-m)                 AeroDyn
      49  RtAeroPwr             (W)                   AeroDyn
      50  RtAeroCp              (-)                   AeroDyn
      51  RtAeroCq              (-)                   AeroDyn
      52  RtAeroCt              (-)                   AeroDyn
      53  B1N9Clrnc             INVALID               AeroDyn
      54  B1N1Alpha             (deg)                 AeroDyn
      55  B1N1Cl                (-)                   AeroDyn
      56  B1N1Cd                (-)                   AeroDyn
      57  B1N1Cm                (-)                   AeroDyn
      58  B1N1Fl                (N/m)                 AeroDyn
      59  B1N1Fd                (N/m)                 AeroDyn
      60  B1N1Fn                (N/m)                 AeroDyn
      61  B1N1Ft                (N/m)                 AeroDyn
      62  B1N1Vrel              (m/s)                 AeroDyn
      63  B1N1AxInd             (-)                   AeroDyn
      64  B1N1Fx                (N/m)                 AeroDyn
      65  B1N1Fy                (N/m)                 AeroDyn
      66  B1N1Ft                (N/m)                 AeroDyn
      67  B1N1Fn                (N/m)                 AeroDyn
      68  B1N1Mm                (N-m/m)               AeroDyn
      69  B1N2Alpha             (deg)                 AeroDyn
      70  B1N2Cl                (-)                   AeroDyn
      71  B1N2Cd                (-)                   AeroDyn
      72  B1N2Cm                (-)                   AeroDyn
      73  B1N2Fl                (N/m)                 AeroDyn
      74  B1N2Fd                (N/m)                 AeroDyn
      75  B1N2Fn                (N/m)                 AeroDyn
      76  B1N2Ft                (N/m)                 AeroDyn
      77  B1N2Vrel              (m/s)                 AeroDyn
      78  B1N2AxInd             (-)                   AeroDyn
      79  B1N2Fx                (N/m)                 AeroDyn
      80  B1N2Fy                (N/m)                 AeroDyn
      81  B1N2Ft                (N/m)                 AeroDyn
      82  B1N2Fn                (N/m)                 AeroDyn
      83  B1N2Mm                (N-m/m)               AeroDyn
      84  B1N3Alpha             (deg)                 AeroDyn
      85  B1N3Cl                (-)                   AeroDyn
      86  B1N3Cd                (-)                   AeroDyn
      87  B1N3Cm                (-)                   AeroDyn
      88  B1N3Fl                (N/m)                 AeroDyn
      89  B1N3Fd                (N/m)                 AeroDyn
      90  B1N3Fn                (N/m)                 AeroDyn
      91  B1N3Ft                (N/m)                 AeroDyn
      92  B1N3Vrel              (m/s)                 AeroDyn
      93  B1N3AxInd             (-)                   AeroDyn
      94  B1N3Fx                (N/m)                 AeroDyn
      95  B1N3Fy                (N/m)                 AeroDyn
      96  B1N3Ft                (N/m)                 AeroDyn
      97  B1N3Fn                (N/m)                 AeroDyn
      98  B1N3Mm                (N-m/m)               AeroDyn
      99  B1N4Alpha             (deg)                 AeroDyn
     100  B1N4Cl                (-)                   AeroDyn
     101  B1N4Cd                (-)                   AeroDyn
     102  B1N4Cm                (-)                   AeroDyn
     103  B1N4Fl                (N/m)                 AeroDyn
     104  B1N4Fd                (N/m)                 AeroDyn
     105  B1N4Fn                (N/m)                 AeroDyn
     106  B1N4Ft                (N/m)                 AeroDyn
     107  B1N4Vrel              (m/s)                 AeroDyn
     108  B1N4AxInd             (-)                   AeroDyn
     109  B1N4Fx                (N/m)                 AeroDyn
     110  B1N4Fy                (N/m)                 AeroDyn
     111  B1N4Ft                (N/m)                 AeroDyn
     112  B1N4Fn                (N/m)                 AeroDyn
     113  B1N4Mm                (N-m/m)               AeroDyn
     114  B1N5Alpha             (deg)                 AeroDyn
     115  B1N5Cl                (-)                   AeroDyn
     116  B1N5Cd                (-)                   AeroDyn
     117  B1N5Cm                (-)                   AeroDyn
     118  B1N5Fl                (N/m)                 AeroDyn
     119  B1N5Fd                (N/m)                 AeroDyn
     120  B1N5Fn                (N/m)                 AeroDyn
     121  B1N5Ft                (N/m)                 AeroDyn
     122  B1N5Vrel              (m/s)                 AeroDyn
     123  B1N5AxInd             (-)                   AeroDyn
     124  B1N5Fx                (N/m)                 AeroDyn
     125  B1N5Fy                (N/m)                 AeroDyn
     126  B1N5Ft                (N/m)                 AeroDyn
     127  B1N5Fn                (N/m)                 AeroDyn
     128  B1N5Mm                (N-m/m)               AeroDyn
     129  B1N6Alpha             (deg)                 AeroDyn
     130  B1N6Cl                (-)                   AeroDyn
     131  B1N6Cd                (-)                   AeroDyn
     132  B1N6Cm                (-)                   AeroDyn
     133  B1N6Fl                (N/m)                 AeroDyn
     134  B1N6Fd                (N/m)                 AeroDyn
     135  B1N6Fn                (N/m)                 AeroDyn
     136  B1N6Ft                (N/m)                 AeroDyn
     137  B1N6Vrel              (m/s)                 AeroDyn
     138  B1N6AxInd             (-)                   AeroDyn
     139  B1N6Fx                (N/m)                 AeroDyn
     140  B1N6Fy                (N/m)                 AeroDyn
     141  B1N6Ft                (N/m)                 AeroDyn
     142  B1N6Fn                (N/m)                 AeroDyn
     143  B1N6Mm                (N-m/m)               AeroDyn
     144  B1N7Alpha             (deg)                 AeroDyn
     145  B1N7Cl                (-)                   AeroDyn
     146  B1N7Cd                (-)                   AeroDyn
     147  B1N7Cm                (-)                   AeroDyn
     148  B1N7Fl                (N/m)                 AeroDyn
     149  B1N7Fd                (N/m)                 AeroDyn
     150  B1N7Fn                (N/m)                 AeroDyn
     151  B1N7Ft                (N/m)                 AeroDyn
     152  B1N7Vrel              (m/s)                 AeroDyn
     153  B1N7AxInd             (-)                   AeroDyn
     154  B1N7Fx                (N/m)                 AeroDyn
     155  B1N7Fy                (N/m)                 AeroDyn
     156  B1N7Ft                (N/m)                 AeroDyn
     157  B1N7Fn                (N/m)                 AeroDyn
     158  B1N7Mm                (N-m/m)               AeroDyn
     159  B1N8Alpha             (deg)                 AeroDyn
     160  B1N8Cl                (-)                   AeroDyn
     161  B1N8Cd                (-)                   AeroDyn
     162  B1N8Cm                (-)                   AeroDyn
     163  B1N8Fl                (N/m)                 AeroDyn
     164  B1N8Fd                (N/m)                 AeroDyn
     165  B1N8Fn                (N/m)                 AeroDyn
     166  B1N8Ft                (N/m)                 AeroDyn
     167  B1N8Vrel              (m/s)                 AeroDyn
     168  B1N8AxInd             (-)                   AeroDyn
     169  B1N8Fx                (N/m)                 AeroDyn
     170  B1N8Fy                (N/m)                 AeroDyn
     171  B1N8Ft                (N/m)                 AeroDyn
     172  B1N8Fn                (N/m)                 AeroDyn
     173  B1N8Mm                (N-m/m)               AeroDyn
     174  B1N9Alpha             (deg)                 AeroDyn
     175  B1N9Cl                (-)                   AeroDyn
     176  B1N9Cd                (-)                   AeroDyn
     177  B1N9Cm                (-)                   AeroDyn
     178  B1N9Fl                (N/m)                 AeroDyn
     179  B1N9Fd                (N/m)                 AeroDyn
     180  B1N9Fn                (N/m)                 AeroDyn
     181  B1N9Ft                (N/m)                 AeroDyn
     182  B1N9Vrel              (m/s)                 AeroDyn
     183  B1N9AxInd             (-)                   AeroDyn
     184  B1N9Fx                (N/m)                 AeroDyn
     185  B1N9Fy                (N/m)                 AeroDyn
     186  B1N9Ft                (N/m)                 AeroDyn
     187  B1N9Fn                (N/m)                 AeroDyn
     188  B1N9Mm                (N-m/m)               AeroDyn
     189  B1N1Gam               (m^2/s)               AeroDyn
     190  B1N2Gam               (m^2/s)               AeroDyn
     191  B1N3Gam               (m^2/s)               AeroDyn
     192  B1N4Gam               (m^2/s)               AeroDyn
     193  B1N5Gam               (m^2/s)               AeroDyn
     194  B1N6Gam               (m^2/s)               AeroDyn
     195  B1N7Gam               (m^2/s)               AeroDyn
     196  B1N8Gam               (m^2/s)               AeroDyn
     197  B1N9Gam               (m^2/s)               AeroDyn
     198  B2N1Gam               (m^2/s)               AeroDyn
     199  B2N2Gam               (m^2/s)               AeroDyn
     200  B2N3Gam               (m^2/s)               AeroDyn
     201  B2N4Gam               (m^2/s)               AeroDyn
     202  B2N5Gam               (m^2/s)               AeroDyn
     203  B2N6Gam               (m^2/s)               AeroDyn
     204  B2N7Gam               (m^2/s)               AeroDyn
     205  B2N8Gam               (m^2/s)               AeroDyn
     206  B2N9Gam               (m^2/s)               AeroDyn
     207  B3N1Gam               INVALID               AeroDyn
     208  B3N2Gam               INVALID               AeroDyn
     209  B3N3Gam               INVALID               AeroDyn
     210  B3N4Gam               INVALID               AeroDyn
     211  B3N5Gam               INVALID               AeroDyn
     212  B3N6Gam               INVALID               AeroDyn
     213  B3N7Gam               INVALID               AeroDyn
     214  B3N8Gam               INVALID               AeroDyn
     215  B3N9Gam               INVALID               AeroDyn
