
Predictions were generated on 12-Feb-2024 at 14:25:33 using HydroDyn Driver, compiled on Dec 20 2023 at 14:52:34 as a 64-bit application using double precision at commit v2.5.0-3665-g13e4c61c-dirty
 linked with  NWTC Subroutine Library

Description from the driver input file: Compatible with HydroDyn v4.00 - Regression test for the MacCamy-Fuchs diffraction correction for strip-theory memebers

Time	Wave1Elev	HydroFxi	HydroMyi
(s)	(m)	(N)	(N-m)
    0.0000	  -4.067737E+00	   2.250159E+07	  -2.506633E+08
    0.1000	  -3.777394E+00	   2.385692E+07	  -2.660467E+08
    0.2000	  -3.468719E+00	   2.508207E+07	  -2.801223E+08
    0.3000	  -3.143669E+00	   2.617067E+07	  -2.928295E+08
    0.4000	  -2.804338E+00	   2.711736E+07	  -3.041166E+08
    0.5000	  -2.452938E+00	   2.791780E+07	  -3.139417E+08
    0.6000	  -2.091788E+00	   2.856873E+07	  -3.222724E+08
    0.7000	  -1.723287E+00	   2.906796E+07	  -3.290865E+08
    0.8000	  -1.349901E+00	   2.941445E+07	  -3.343717E+08
    0.9000	  -9.741340E-01	   2.960825E+07	  -3.381258E+08
    1.0000	  -5.985143E-01	   2.965056E+07	  -3.403568E+08
    1.1000	  -2.255646E-01	   2.954367E+07	  -3.410824E+08
    1.2000	   1.422174E-01	   2.929099E+07	  -3.403301E+08
    1.3000	   5.023844E-01	   2.889696E+07	  -3.381368E+08
    1.4000	   8.525615E-01	   2.836705E+07	  -3.345480E+08
    1.5000	   1.190470E+00	   2.770770E+07	  -3.296182E+08
    1.6000	   1.513949E+00	   2.692625E+07	  -3.234094E+08
    1.7000	   1.820976E+00	   2.603086E+07	  -3.159911E+08
    1.8000	   2.109691E+00	   2.503047E+07	  -3.074396E+08
    1.9000	   2.378410E+00	   2.393468E+07	  -2.978368E+08
    2.0000	   2.625646E+00	   2.275367E+07	  -2.872699E+08
    2.1000	   2.850122E+00	   2.149808E+07	  -2.758304E+08
    2.2000	   3.050783E+00	   2.017896E+07	  -2.636133E+08
    2.3000	   3.226813E+00	   1.880761E+07	  -2.507160E+08
    2.4000	   3.377634E+00	   1.739549E+07	  -2.372377E+08
    2.5000	   3.502920E+00	   1.595410E+07	  -2.232784E+08
    2.6000	   3.602594E+00	   1.449491E+07	  -2.089379E+08
    2.7000	   3.676831E+00	   1.302918E+07	  -1.943148E+08
    2.8000	   3.726053E+00	   1.156790E+07	  -1.795061E+08
    2.9000	   3.750926E+00	   1.012169E+07	  -1.646058E+08
    3.0000	   3.752349E+00	   8.700653E+06	  -1.497045E+08
    3.1000	   3.731442E+00	   7.314334E+06	  -1.348883E+08
    3.2000	   3.689536E+00	   5.971594E+06	  -1.202385E+08
    3.3000	   3.628151E+00	   4.680538E+06	  -1.058305E+08
    3.4000	   3.548980E+00	   3.448456E+06	  -9.173374E+07
    3.5000	   3.453867E+00	   2.281744E+06	  -7.801064E+07
    3.6000	   3.344783E+00	   1.185859E+06	  -6.471662E+07
    3.7000	   3.223801E+00	   1.652743E+05	  -5.189952E+07
    3.8000	   3.093074E+00	  -7.765462E+05	  -3.959949E+07
    3.9000	   2.954800E+00	  -1.637175E+06	  -2.784868E+07
    4.0000	   2.811202E+00	  -2.415220E+06	  -1.667133E+07
    4.1000	   2.664493E+00	  -3.110324E+06	  -6.083641E+06
    4.2000	   2.516853E+00	  -3.723148E+06	   3.906016E+06
    4.3000	   2.370399E+00	  -4.255335E+06	   1.329694E+07
    4.4000	   2.227158E+00	  -4.709484E+06	   2.209582E+07
    4.5000	   2.089042E+00	  -5.089086E+06	   3.031640E+07
    4.6000	   1.957823E+00	  -5.398471E+06	   3.797899E+07
    4.7000	   1.835110E+00	  -5.642732E+06	   4.510998E+07
    4.8000	   1.722333E+00	  -5.827648E+06	   5.174128E+07
    4.9000	   1.620719E+00	  -5.959600E+06	   5.790966E+07
    5.0000	   1.531281E+00	  -6.045470E+06	   6.365608E+07
    5.1000	   1.454808E+00	  -6.092552E+06	   6.902498E+07
    5.2000	   1.391849E+00	  -6.108438E+06	   7.406351E+07
    5.3000	   1.342714E+00	  -6.100923E+06	   7.882077E+07
    5.4000	   1.307470E+00	  -6.077890E+06	   8.334699E+07
    5.5000	   1.285939E+00	  -6.047202E+06	   8.769278E+07
    5.6000	   1.277706E+00	  -6.016601E+06	   9.190825E+07
    5.7000	   1.282127E+00	  -5.993599E+06	   9.604238E+07
    5.8000	   1.298337E+00	  -5.985379E+06	   1.001421E+08
    5.9000	   1.325263E+00	  -5.998698E+06	   1.042518E+08
    6.0000	   1.361647E+00	  -6.039800E+06	   1.084123E+08
    6.1000	   1.406061E+00	  -6.114332E+06	   1.126606E+08
    6.2000	   1.456925E+00	  -6.227266E+06	   1.170291E+08
    6.3000	   1.512540E+00	  -6.382842E+06	   1.215451E+08
    6.4000	   1.571103E+00	  -6.584504E+06	   1.262305E+08
    6.5000	   1.630742E+00	  -6.834862E+06	   1.311011E+08
    6.6000	   1.689540E+00	  -7.135651E+06	   1.361669E+08
    6.7000	   1.745560E+00	  -7.487714E+06	   1.414312E+08
    6.8000	   1.796878E+00	  -7.890986E+06	   1.468909E+08
    6.9000	   1.841609E+00	  -8.344494E+06	   1.525366E+08
    7.0000	   1.877931E+00	  -8.846373E+06	   1.583521E+08
    7.1000	   1.904115E+00	  -9.393877E+06	   1.643150E+08
    7.2000	   1.918546E+00	  -9.983425E+06	   1.703966E+08
    7.3000	   1.919749E+00	  -1.061064E+07	   1.765624E+08
    7.4000	   1.906406E+00	  -1.127038E+07	   1.827725E+08
    7.5000	   1.877376E+00	  -1.195686E+07	   1.889816E+08
    7.6000	   1.831709E+00	  -1.266363E+07	   1.951401E+08
    7.7000	   1.768658E+00	  -1.338373E+07	   2.011940E+08
    7.8000	   1.687695E+00	  -1.410975E+07	   2.070859E+08
    7.9000	   1.588506E+00	  -1.483387E+07	   2.127557E+08
    8.0000	   1.471007E+00	  -1.554804E+07	   2.181408E+08
    8.1000	   1.335332E+00	  -1.624400E+07	   2.231775E+08
    8.2000	   1.181844E+00	  -1.691338E+07	   2.278009E+08
    8.3000	   1.011114E+00	  -1.754783E+07	   2.319463E+08
    8.4000	   8.239301E-01	  -1.813912E+07	   2.355497E+08
    8.5000	   6.212690E-01	  -1.867917E+07	   2.385484E+08
    8.6000	   4.042971E-01	  -1.916020E+07	   2.408818E+08
    8.7000	   1.743445E-01	  -1.957478E+07	   2.424920E+08
    8.8000	  -6.710324E-02	  -1.991594E+07	   2.433249E+08
    8.9000	  -3.184337E-01	  -2.017722E+07	   2.433303E+08
    9.0000	  -5.779171E-01	  -2.035275E+07	   2.424625E+08
    9.1000	  -8.437365E-01	  -2.043730E+07	   2.406814E+08
    9.2000	  -1.114002E+00	  -2.042636E+07	   2.379524E+08
    9.3000	  -1.386780E+00	  -2.031615E+07	   2.342470E+08
    9.4000	  -1.660105E+00	  -2.010370E+07	   2.295434E+08
    9.5000	  -1.932011E+00	  -1.978681E+07	   2.238265E+08
    9.6000	  -2.200547E+00	  -1.936417E+07	   2.170884E+08
    9.7000	  -2.463794E+00	  -1.883529E+07	   2.093283E+08
    9.8000	  -2.719889E+00	  -1.820053E+07	   2.005530E+08
    9.9000	  -2.967040E+00	  -1.746112E+07	   1.907764E+08
   10.0000	  -3.203539E+00	  -1.661909E+07	   1.800203E+08
   10.1000	  -3.427779E+00	  -1.567732E+07	   1.683132E+08
   10.2000	  -3.638265E+00	  -1.463946E+07	   1.556914E+08
   10.3000	  -3.833622E+00	  -1.350992E+07	   1.421976E+08
   10.4000	  -4.012606E+00	  -1.229383E+07	   1.278814E+08
   10.5000	  -4.174109E+00	  -1.099699E+07	   1.127989E+08
   10.6000	  -4.317164E+00	  -9.625818E+06	   9.701207E+07
   10.7000	  -4.440947E+00	  -8.187298E+06	   8.058828E+07
   10.8000	  -4.544778E+00	  -6.688932E+06	   6.360017E+07
   10.9000	  -4.628119E+00	  -5.138660E+06	   4.612486E+07
   11.0000	  -4.690577E+00	  -3.544820E+06	   2.824360E+07
   11.1000	  -4.731893E+00	  -1.916062E+06	   1.004101E+07
   11.2000	  -4.751949E+00	  -2.612996E+05	  -8.395340E+06
   11.3000	  -4.750749E+00	   1.410373E+06	  -2.697567E+07
   11.4000	  -4.728425E+00	   3.089729E+06	  -4.560847E+07
   11.5000	  -4.685221E+00	   4.767493E+06	  -6.420131E+07
   11.6000	  -4.621500E+00	   6.434392E+06	  -8.266130E+07
   11.7000	  -4.537720E+00	   8.081227E+06	  -1.008958E+08
   11.8000	  -4.434438E+00	   9.698930E+06	  -1.188131E+08
   11.9000	  -4.312301E+00	   1.127863E+07	  -1.363230E+08
   12.0000	  -4.172042E+00	   1.281171E+07	  -1.533372E+08
   12.1000	  -4.014463E+00	   1.428984E+07	  -1.697702E+08
   12.2000	  -3.840447E+00	   1.570508E+07	  -1.855397E+08
   12.3000	  -3.650932E+00	   1.704987E+07	  -2.005673E+08
   12.4000	  -3.446923E+00	   1.831711E+07	  -2.147785E+08
   12.5000	  -3.229475E+00	   1.950019E+07	  -2.281039E+08
   12.6000	  -2.999695E+00	   2.059305E+07	  -2.404788E+08
   12.7000	  -2.758735E+00	   2.159017E+07	  -2.518445E+08
   12.8000	  -2.507792E+00	   2.248666E+07	  -2.621479E+08
   12.9000	  -2.248098E+00	   2.327823E+07	  -2.713422E+08
   13.0000	  -1.980919E+00	   2.396124E+07	  -2.793869E+08
   13.1000	  -1.707552E+00	   2.453273E+07	  -2.862483E+08
   13.2000	  -1.429320E+00	   2.499042E+07	  -2.918996E+08
   13.3000	  -1.147567E+00	   2.533270E+07	  -2.963209E+08
   13.4000	  -8.636562E-01	   2.555868E+07	  -2.994992E+08
   13.5000	  -5.789591E-01	   2.566816E+07	  -3.014287E+08
   13.6000	  -2.948556E-01	   2.566163E+07	  -3.021107E+08
   13.7000	  -1.272645E-02	   2.554028E+07	  -3.015532E+08
   13.8000	   2.660555E-01	   2.530596E+07	  -2.997715E+08
   13.9000	   5.401316E-01	   2.496120E+07	  -2.967872E+08
   14.0000	   8.081636E-01	   2.450915E+07	  -2.926286E+08
   14.1000	   1.068846E+00	   2.395358E+07	  -2.873301E+08
   14.2000	   1.320909E+00	   2.329884E+07	  -2.809320E+08
   14.3000	   1.563135E+00	   2.254983E+07	  -2.734804E+08
   14.4000	   1.794364E+00	   2.171197E+07	  -2.650265E+08
   14.5000	   2.013502E+00	   2.079115E+07	  -2.556264E+08
   14.6000	   2.219536E+00	   1.979367E+07	  -2.453406E+08
   14.7000	   2.411539E+00	   1.872623E+07	  -2.342336E+08
   14.8000	   2.588681E+00	   1.759585E+07	  -2.223732E+08
   14.9000	   2.750238E+00	   1.640980E+07	  -2.098305E+08
   15.0000	   2.895601E+00	   1.517561E+07	  -1.966788E+08
   15.1000	   3.024282E+00	   1.390094E+07	  -1.829934E+08
   15.2000	   3.135918E+00	   1.259355E+07	  -1.688512E+08
   15.3000	   3.230284E+00	   1.126126E+07	  -1.543296E+08
   15.4000	   3.307284E+00	   9.911876E+06	  -1.395068E+08
   15.5000	   3.366966E+00	   8.553112E+06	  -1.244605E+08
   15.6000	   3.409512E+00	   7.192562E+06	  -1.092678E+08
   15.7000	   3.435242E+00	   5.837628E+06	  -9.400485E+07
   15.8000	   3.444610E+00	   4.495474E+06	  -7.874582E+07
   15.9000	   3.438198E+00	   3.172969E+06	  -6.356295E+07
   16.0000	   3.416709E+00	   1.876650E+06	  -4.852598E+07
   16.1000	   3.380961E+00	   6.126571E+05	  -3.370156E+07
   16.2000	   3.331871E+00	  -6.132766E+05	  -1.915324E+07
   16.3000	   3.270449E+00	  -1.795884E+06	  -4.940849E+06
   16.4000	   3.197782E+00	  -2.930376E+06	   8.879626E+06
   16.5000	   3.115019E+00	  -4.012477E+06	   2.225636E+07
   16.6000	   3.023358E+00	  -5.038436E+06	   3.514186E+07
   16.7000	   2.924026E+00	  -6.005041E+06	   4.749317E+07
   16.8000	   2.818265E+00	  -6.909627E+06	   5.927191E+07
   16.9000	   2.707315E+00	  -7.750073E+06	   7.044446E+07
   17.0000	   2.592397E+00	  -8.524797E+06	   8.098186E+07
   17.1000	   2.474696E+00	  -9.232750E+06	   9.085997E+07
   17.2000	   2.355345E+00	  -9.873390E+06	   1.000593E+08
   17.3000	   2.235412E+00	  -1.044667E+07	   1.085648E+08
   17.4000	   2.115884E+00	  -1.095300E+07	   1.163661E+08
   17.5000	   1.997656E+00	  -1.139323E+07	   1.234572E+08
   17.6000	   1.881523E+00	  -1.176861E+07	   1.298359E+08
   17.7000	   1.768171E+00	  -1.208076E+07	   1.355044E+08
   17.8000	   1.658165E+00	  -1.233160E+07	   1.404683E+08
   17.9000	   1.551954E+00	  -1.252335E+07	   1.447368E+08
   18.0000	   1.449863E+00	  -1.265847E+07	   1.483221E+08
   18.1000	   1.352096E+00	  -1.273961E+07	   1.512397E+08
   18.2000	   1.258740E+00	  -1.276958E+07	   1.535075E+08
   18.3000	   1.169765E+00	  -1.275130E+07	   1.551458E+08
   18.4000	   1.085040E+00	  -1.268776E+07	   1.561771E+08
   18.5000	   1.004334E+00	  -1.258201E+07	   1.566258E+08
   18.6000	   9.273306E-01	  -1.243707E+07	   1.565177E+08
   18.7000	   8.536434E-01	  -1.225595E+07	   1.558800E+08
   18.8000	   7.828240E-01	  -1.204160E+07	   1.547410E+08
   18.9000	   7.143829E-01	  -1.179689E+07	   1.531298E+08
   19.0000	   6.478016E-01	  -1.152458E+07	   1.510763E+08
   19.1000	   5.825481E-01	  -1.122732E+07	   1.486106E+08
   19.2000	   5.180966E-01	  -1.090765E+07	   1.457634E+08
   19.3000	   4.539405E-01	  -1.056795E+07	   1.425651E+08
   19.4000	   3.896074E-01	  -1.021049E+07	   1.390466E+08
   19.5000	   3.246744E-01	  -9.837381E+06	   1.352383E+08
   19.6000	   2.587797E-01	  -9.450638E+06	   1.311706E+08
   19.7000	   1.916351E-01	  -9.052136E+06	   1.268736E+08
   19.8000	   1.230345E-01	  -8.643650E+06	   1.223768E+08
   19.9000	   5.286006E-02	  -8.226861E+06	   1.177095E+08
   20.0000	  -1.891045E-02	  -7.803378E+06	   1.129006E+08
   20.1000	  -9.220291E-02	  -7.374745E+06	   1.079784E+08
   20.2000	  -1.668447E-01	  -6.942471E+06	   1.029706E+08
   20.3000	  -2.425686E-01	  -6.508036E+06	   9.790453E+07
   20.4000	  -3.190167E-01	  -6.072920E+06	   9.280680E+07
   20.5000	  -3.957460E-01	  -5.638606E+06	   8.770347E+07
   20.6000	  -4.722379E-01	  -5.206606E+06	   8.262000E+07
   20.7000	  -5.479113E-01	  -4.778466E+06	   7.758113E+07
   20.8000	  -6.221324E-01	  -4.355778E+06	   7.261094E+07
   20.9000	  -6.942293E-01	  -3.940184E+06	   6.773268E+07
   21.0000	  -7.635092E-01	  -3.533381E+06	   6.296886E+07
   21.1000	  -8.292722E-01	  -3.137119E+06	   5.834103E+07
   21.2000	  -8.908299E-01	  -2.753194E+06	   5.386979E+07
   21.3000	  -9.475203E-01	  -2.383441E+06	   4.957462E+07
   21.4000	  -9.987270E-01	  -2.029724E+06	   4.547388E+07
   21.5000	  -1.043892E+00	  -1.693912E+06	   4.158457E+07
   21.6000	  -1.082532E+00	  -1.377869E+06	   3.792233E+07
   21.7000	  -1.114256E+00	  -1.083420E+06	   3.450118E+07
   21.8000	  -1.138766E+00	  -8.123352E+05	   3.133352E+07
   21.9000	  -1.155883E+00	  -5.662972E+05	   2.842990E+07
   22.0000	  -1.165540E+00	  -3.468732E+05	   2.579893E+07
   22.1000	  -1.167798E+00	  -1.554828E+05	   2.344713E+07
   22.2000	  -1.162842E+00	   6.631862E+03	   2.137883E+07
   22.3000	  -1.150988E+00	   1.384389E+05	   1.959598E+07
   22.4000	  -1.132675E+00	   2.391437E+05	   1.809817E+07
   22.5000	  -1.108463E+00	   3.082154E+05	   1.688247E+07
   22.6000	  -1.079026E+00	   3.454164E+05	   1.594338E+07
   22.7000	  -1.045139E+00	   3.508272E+05	   1.527273E+07
   22.8000	  -1.007671E+00	   3.248572E+05	   1.485977E+07
   22.9000	  -9.675637E-01	   2.682670E+05	   1.469110E+07
   23.0000	  -9.258226E-01	   1.821720E+05	   1.475074E+07
   23.1000	  -8.834944E-01	   6.805795E+04	   1.502012E+07
   23.2000	  -8.416505E-01	  -7.223201E+04	   1.547830E+07
   23.3000	  -8.013664E-01	  -2.364943E+05	   1.610201E+07
   23.4000	  -7.637031E-01	  -4.221818E+05	   1.686585E+07
   23.5000	  -7.296860E-01	  -6.264151E+05	   1.774242E+07
   23.6000	  -7.002846E-01	  -8.460141E+05	   1.870262E+07
   23.7000	  -6.763952E-01	  -1.077519E+06	   1.971585E+07
   23.8000	  -6.588231E-01	  -1.317228E+06	   2.075032E+07
   23.9000	  -6.482651E-01	  -1.561234E+06	   2.177325E+07
   24.0000	  -6.452953E-01	  -1.805464E+06	   2.275132E+07
   24.1000	  -6.503540E-01	  -2.045739E+06	   2.365094E+07
   24.2000	  -6.637372E-01	  -2.277802E+06	   2.443859E+07
   24.3000	  -6.855876E-01	  -2.497386E+06	   2.508117E+07
   24.4000	  -7.158934E-01	  -2.700261E+06	   2.554636E+07
   24.5000	  -7.544820E-01	  -2.882288E+06	   2.580306E+07
   24.6000	  -8.010247E-01	  -3.039474E+06	   2.582163E+07
   24.7000	  -8.550385E-01	  -3.168020E+06	   2.557426E+07
   24.8000	  -9.158938E-01	  -3.264377E+06	   2.503538E+07
   24.9000	  -9.828205E-01	  -3.325291E+06	   2.418185E+07
   25.0000	  -1.054924E+00	  -3.347849E+06	   2.299335E+07
   25.1000	  -1.131197E+00	  -3.329520E+06	   2.145259E+07
   25.2000	  -1.210536E+00	  -3.268189E+06	   1.954557E+07
   25.3000	  -1.291755E+00	  -3.162191E+06	   1.726174E+07
   25.4000	  -1.373611E+00	  -3.010331E+06	   1.459416E+07
   25.5000	  -1.454817E+00	  -2.811908E+06	   1.153968E+07
   25.6000	  -1.534070E+00	  -2.566728E+06	   8.098973E+06
   25.7000	  -1.610066E+00	  -2.275096E+06	   4.276502E+06
   25.8000	  -1.681519E+00	  -1.937837E+06	   8.068317E+04
   25.9000	  -1.747188E+00	  -1.556275E+06	  -4.476277E+06
   26.0000	  -1.805889E+00	  -1.132219E+06	  -9.378474E+06
   26.1000	  -1.856521E+00	  -6.679491E+05	  -1.460635E+07
   26.2000	  -1.898074E+00	  -1.661843E+05	  -2.013696E+07
   26.3000	  -1.929647E+00	   3.699436E+05	  -2.594411E+07
   26.4000	  -1.950464E+00	   9.369301E+05	  -3.199861E+07
   26.5000	  -1.959880E+00	   1.530938E+06	  -3.826856E+07
   26.6000	  -1.957391E+00	   2.147842E+06	  -4.471964E+07
   26.7000	  -1.942639E+00	   2.783269E+06	  -5.131536E+07
   26.8000	  -1.915415E+00	   3.432662E+06	  -5.801751E+07
   26.9000	  -1.875663E+00	   4.091316E+06	  -6.478644E+07
   27.0000	  -1.823472E+00	   4.754444E+06	  -7.158143E+07
   27.1000	  -1.759075E+00	   5.417212E+06	  -7.836103E+07
   27.2000	  -1.682846E+00	   6.074808E+06	  -8.508350E+07
   27.3000	  -1.595285E+00	   6.722479E+06	  -9.170710E+07
   27.4000	  -1.497012E+00	   7.355585E+06	  -9.819053E+07
   27.5000	  -1.388756E+00	   7.969639E+06	  -1.044932E+08
   27.6000	  -1.271339E+00	   8.560355E+06	  -1.105755E+08
   27.7000	  -1.145661E+00	   9.123679E+06	  -1.163992E+08
   27.8000	  -1.012691E+00	   9.655833E+06	  -1.219281E+08
   27.9000	  -8.734421E-01	   1.015333E+07	  -1.271273E+08
   28.0000	  -7.289674E-01	   1.061301E+07	  -1.319647E+08
   28.1000	  -5.803352E-01	   1.103205E+07	  -1.364100E+08
   28.2000	  -4.286202E-01	   1.140800E+07	  -1.404360E+08
   28.3000	  -2.748838E-01	   1.173877E+07	  -1.440178E+08
   28.4000	  -1.201676E-01	   1.202265E+07	  -1.471336E+08
   28.5000	   3.452604E-02	   1.225829E+07	  -1.497643E+08
   28.6000	   1.882388E-01	   1.244474E+07	  -1.518940E+08
   28.7000	   3.400701E-01	   1.258138E+07	  -1.535096E+08
   28.8000	   4.891821E-01	   1.266796E+07	  -1.546013E+08
   28.9000	   6.348089E-01	   1.270458E+07	  -1.551618E+08
   29.0000	   7.762582E-01	   1.269163E+07	  -1.551871E+08
   29.1000	   9.129169E-01	   1.262981E+07	  -1.546759E+08
   29.2000	   1.044251E+00	   1.252012E+07	  -1.536298E+08
   29.3000	   1.169808E+00	   1.236376E+07	  -1.520526E+08
   29.4000	   1.289213E+00	   1.216221E+07	  -1.499512E+08
   29.5000	   1.402168E+00	   1.191710E+07	  -1.473342E+08
   29.6000	   1.508445E+00	   1.163026E+07	  -1.442128E+08
   29.7000	   1.607888E+00	   1.130367E+07	  -1.406001E+08
   29.8000	   1.700402E+00	   1.093939E+07	  -1.365109E+08
   29.9000	   1.785946E+00	   1.053961E+07	  -1.319618E+08
   30.0000	   1.864535E+00	   1.010657E+07	  -1.269708E+08
   30.1000	   1.936223E+00	   9.642557E+06	  -1.215572E+08
   30.2000	   2.001104E+00	   9.149874E+06	  -1.157414E+08
   30.3000	   2.059302E+00	   8.630828E+06	  -1.095448E+08
   30.4000	   2.110965E+00	   8.087709E+06	  -1.029894E+08
   30.5000	   2.156261E+00	   7.522772E+06	  -9.609805E+07
   30.6000	   2.195372E+00	   6.938224E+06	  -8.889398E+07
   30.7000	   2.228487E+00	   6.336212E+06	  -8.140076E+07
   30.8000	   2.255801E+00	   5.718810E+06	  -7.364220E+07
   30.9000	   2.277509E+00	   5.088012E+06	  -6.564219E+07
   31.0000	   2.293804E+00	   4.445728E+06	  -5.742470E+07
   31.1000	   2.304878E+00	   3.793778E+06	  -4.901356E+07
   31.2000	   2.310913E+00	   3.133890E+06	  -4.043252E+07
   31.3000	   2.312087E+00	   2.467698E+06	  -3.170514E+07
   31.4000	   2.308570E+00	   1.796743E+06	  -2.285473E+07
   31.5000	   2.300527E+00	   1.122478E+06	  -1.390434E+07
   31.6000	   2.288113E+00	   4.462707E+05	  -4.876754E+06
   31.7000	   2.271477E+00	  -2.305984E+05	   4.205564E+06
   31.8000	   2.250765E+00	  -9.069164E+05	   1.332038E+07
   31.9000	   2.226111E+00	  -1.581544E+06	   2.244581E+07
   32.0000	   2.197650E+00	  -2.253394E+06	   3.156008E+07
   32.1000	   2.165510E+00	  -2.921442E+06	   4.064183E+07
   32.2000	   2.129814E+00	  -3.584697E+06	   4.966972E+07
   32.3000	   2.090682E+00	  -4.242200E+06	   5.862264E+07
   32.4000	   2.048227E+00	  -4.893014E+06	   6.747954E+07
   32.5000	   2.002556E+00	  -5.536211E+06	   7.621945E+07
   32.6000	   1.953771E+00	  -6.170866E+06	   8.482142E+07
   32.7000	   1.901964E+00	  -6.796037E+06	   9.326442E+07
   32.8000	   1.847218E+00	  -7.410761E+06	   1.015274E+08
   32.9000	   1.789604E+00	  -8.014043E+06	   1.095892E+08
   33.0000	   1.729181E+00	  -8.604840E+06	   1.174284E+08
   33.1000	   1.665988E+00	  -9.182055E+06	   1.250235E+08
   33.2000	   1.600053E+00	  -9.744531E+06	   1.323530E+08
   33.3000	   1.531379E+00	  -1.029103E+07	   1.393948E+08
   33.4000	   1.459953E+00	  -1.082024E+07	   1.461268E+08
   33.5000	   1.385738E+00	  -1.133077E+07	   1.525268E+08
   33.6000	   1.308677E+00	  -1.182111E+07	   1.585724E+08
   33.7000	   1.228691E+00	  -1.228968E+07	   1.642410E+08
   33.8000	   1.145680E+00	  -1.273480E+07	   1.695099E+08
   33.9000	   1.059526E+00	  -1.315467E+07	   1.743566E+08
   34.0000	   9.700952E-01	  -1.354744E+07	   1.787587E+08
   34.1000	   8.772385E-01	  -1.391111E+07	   1.826936E+08
   34.2000	   7.808022E-01	  -1.424365E+07	   1.861396E+08
   34.3000	   6.806266E-01	  -1.454292E+07	   1.890750E+08
   34.4000	   5.765579E-01	  -1.480674E+07	   1.914789E+08
   34.5000	   4.684492E-01	  -1.503286E+07	   1.933312E+08
   34.6000	   3.561736E-01	  -1.521903E+07	   1.946124E+08
   34.7000	   2.396285E-01	  -1.536296E+07	   1.953047E+08
   34.8000	   1.187460E-01	  -1.546240E+07	   1.953911E+08
   34.9000	  -6.500204E-03	  -1.551511E+07	   1.948563E+08
   35.0000	  -1.360837E-01	  -1.551893E+07	   1.936869E+08
   35.1000	  -2.699198E-01	  -1.547179E+07	   1.918712E+08
   35.2000	  -4.078555E-01	  -1.537174E+07	   1.893999E+08
   35.3000	  -5.496635E-01	  -1.521699E+07	   1.862659E+08
   35.4000	  -6.950355E-01	  -1.500594E+07	   1.824648E+08
   35.5000	  -8.435748E-01	  -1.473721E+07	   1.779950E+08
   35.6000	  -9.947950E-01	  -1.440967E+07	   1.728578E+08
   35.7000	  -1.148117E+00	  -1.402248E+07	   1.670578E+08
   35.8000	  -1.302868E+00	  -1.357512E+07	   1.606028E+08
   35.9000	  -1.458279E+00	  -1.306742E+07	   1.535041E+08
   36.0000	  -1.613496E+00	  -1.249959E+07	   1.457767E+08
   36.1000	  -1.767574E+00	  -1.187223E+07	   1.374391E+08
   36.2000	  -1.919493E+00	  -1.118636E+07	   1.285136E+08
   36.3000	  -2.068163E+00	  -1.044347E+07	   1.190261E+08
   36.4000	  -2.212434E+00	  -9.645460E+06	   1.090066E+08
   36.5000	  -2.351110E+00	  -8.794720E+06	   9.848842E+07
   36.6000	  -2.482963E+00	  -7.894096E+06	   8.750869E+07
   36.7000	  -2.606750E+00	  -6.946894E+06	   7.610799E+07
   36.8000	  -2.721226E+00	  -5.956875E+06	   6.433026E+07
   36.9000	  -2.825168E+00	  -4.928237E+06	   5.222254E+07
   37.0000	  -2.917389E+00	  -3.865598E+06	   3.983484E+07
   37.1000	  -2.996758E+00	  -2.773966E+06	   2.721979E+07
   37.2000	  -3.062221E+00	  -1.658711E+06	   1.443236E+07
   37.3000	  -3.112817E+00	  -5.255225E+05	   1.529520E+06
   37.4000	  -3.147701E+00	   6.196312E+05	  -1.143012E+07
   37.5000	  -3.166152E+00	   1.770549E+06	  -2.438667E+07
   37.6000	  -3.167598E+00	   2.920855E+06	  -3.727942E+07
   37.7000	  -3.151627E+00	   4.064049E+06	  -5.004723E+07
   37.8000	  -3.117990E+00	   5.193571E+06	  -6.262902E+07
   37.9000	  -3.066627E+00	   6.302854E+06	  -7.496414E+07
   38.0000	  -2.997656E+00	   7.385400E+06	  -8.699290E+07
   38.1000	  -2.911389E+00	   8.434830E+06	  -9.865698E+07
   38.2000	  -2.808328E+00	   9.444956E+06	  -1.098999E+08
   38.3000	  -2.689162E+00	   1.040984E+07	  -1.206674E+08
   38.4000	  -2.554765E+00	   1.132385E+07	  -1.309079E+08
   38.5000	  -2.406182E+00	   1.218172E+07	  -1.405729E+08
   38.6000	  -2.244623E+00	   1.297862E+07	  -1.496172E+08
   38.7000	  -2.071444E+00	   1.371016E+07	  -1.579996E+08
   38.8000	  -1.888134E+00	   1.437247E+07	  -1.656826E+08
   38.9000	  -1.696293E+00	   1.496223E+07	  -1.726331E+08
   39.0000	  -1.497610E+00	   1.547669E+07	  -1.788227E+08
   39.1000	  -1.293840E+00	   1.591370E+07	  -1.842272E+08
   39.2000	  -1.086784E+00	   1.627172E+07	  -1.888276E+08
   39.3000	  -8.782519E-01	   1.654983E+07	  -1.926096E+08
   39.4000	  -6.700519E-01	   1.674771E+07	  -1.955637E+08
   39.5000	  -4.639508E-01	   1.686567E+07	  -1.976850E+08
   39.6000	  -2.616557E-01	   1.690460E+07	  -1.989739E+08
   39.7000	  -6.478915E-02	   1.686595E+07	  -1.994349E+08
   39.8000	   1.251362E-01	   1.675172E+07	  -1.990772E+08
   39.9000	   3.067380E-01	   1.656439E+07	  -1.979142E+08
   40.0000	   4.787814E-01	   1.630692E+07	  -1.959633E+08
   40.1000	   6.401976E-01	   1.598263E+07	  -1.932458E+08
   40.2000	   7.900972E-01	   1.559524E+07	  -1.897861E+08
   40.3000	   9.277773E-01	   1.514873E+07	  -1.856121E+08
   40.4000	   1.052732E+00	   1.464734E+07	  -1.807542E+08
   40.5000	   1.164651E+00	   1.409547E+07	  -1.752455E+08
   40.6000	   1.263426E+00	   1.349764E+07	  -1.691209E+08
   40.7000	   1.349138E+00	   1.285843E+07	  -1.624173E+08
   40.8000	   1.422057E+00	   1.218244E+07	  -1.551727E+08
   40.9000	   1.482625E+00	   1.147417E+07	  -1.474265E+08
   41.0000	   1.531447E+00	   1.073805E+07	  -1.392184E+08
   41.1000	   1.569270E+00	   9.978357E+06	  -1.305888E+08
   41.2000	   1.596967E+00	   9.199160E+06	  -1.215782E+08
   41.3000	   1.615510E+00	   8.404306E+06	  -1.122268E+08
   41.4000	   1.625952E+00	   7.597387E+06	  -1.025747E+08
   41.5000	   1.629398E+00	   6.781712E+06	  -9.266112E+07
   41.6000	   1.626982E+00	   5.960301E+06	  -8.252490E+07
   41.7000	   1.619842E+00	   5.135866E+06	  -7.220386E+07
   41.8000	   1.609092E+00	   4.310823E+06	  -6.173492E+07
   41.9000	   1.595798E+00	   3.487290E+06	  -5.115405E+07
   42.0000	   1.580958E+00	   2.667106E+06	  -4.049620E+07
   42.1000	   1.565474E+00	   1.851843E+06	  -2.979527E+07
   42.2000	   1.550140E+00	   1.042841E+06	  -1.908424E+07
   42.3000	   1.535621E+00	   2.412312E+05	  -8.395124E+06
   42.4000	   1.522440E+00	  -5.520271E+05	   2.240883E+06
   42.5000	   1.510969E+00	  -1.336109E+06	   1.279336E+07
   42.6000	   1.501420E+00	  -2.110282E+06	   2.323250E+07
   42.7000	   1.493844E+00	  -2.873866E+06	   3.352904E+07
   42.8000	   1.488129E+00	  -3.626192E+06	   4.365415E+07
   42.9000	   1.484003E+00	  -4.366554E+06	   5.357925E+07
   43.0000	   1.481048E+00	  -5.094182E+06	   6.327602E+07
   43.1000	   1.478702E+00	  -5.808188E+06	   7.271615E+07
   43.2000	   1.476279E+00	  -6.507548E+06	   8.187142E+07
   43.3000	   1.472984E+00	  -7.191058E+06	   9.071350E+07
   43.4000	   1.467933E+00	  -7.857320E+06	   9.921401E+07
   43.5000	   1.460176E+00	  -8.504717E+06	   1.073444E+08
   43.6000	   1.448716E+00	  -9.131405E+06	   1.150761E+08
   43.7000	   1.432538E+00	  -9.735300E+06	   1.223804E+08
   43.8000	   1.410632E+00	  -1.031409E+07	   1.292288E+08
   43.9000	   1.382019E+00	  -1.086522E+07	   1.355927E+08
   44.0000	   1.345777E+00	  -1.138595E+07	   1.414439E+08
   44.1000	   1.301064E+00	  -1.187332E+07	   1.467546E+08
   44.2000	   1.247137E+00	  -1.232423E+07	   1.514976E+08
   44.3000	   1.183383E+00	  -1.273544E+07	   1.556468E+08
   44.4000	   1.109328E+00	  -1.310364E+07	   1.591768E+08
   44.5000	   1.024655E+00	  -1.342544E+07	   1.620639E+08
   44.6000	   9.292230E-01	  -1.369751E+07	   1.642859E+08
   44.7000	   8.230669E-01	  -1.391653E+07	   1.658225E+08
   44.8000	   7.064129E-01	  -1.407932E+07	   1.666559E+08
   44.9000	   5.796742E-01	  -1.418286E+07	   1.667705E+08
   45.0000	   4.434544E-01	  -1.422436E+07	   1.661539E+08
   45.1000	   2.985406E-01	  -1.420130E+07	   1.647965E+08
   45.2000	   1.458963E-01	  -1.411152E+07	   1.626923E+08
   45.3000	  -1.335211E-02	  -1.395320E+07	   1.598389E+08
   45.4000	  -1.779275E-01	  -1.372499E+07	   1.562378E+08
   45.5000	  -3.464234E-01	  -1.342599E+07	   1.518945E+08
   45.6000	  -5.173202E-01	  -1.305583E+07	   1.468188E+08
   45.7000	  -6.890112E-01	  -1.261465E+07	   1.410249E+08
   45.8000	  -8.598244E-01	  -1.210318E+07	   1.345315E+08
   45.9000	  -1.028049E+00	  -1.152272E+07	   1.273616E+08
   46.0000	  -1.191963E+00	  -1.087516E+07	   1.195428E+08
   46.1000	  -1.349856E+00	  -1.016296E+07	   1.111071E+08
   46.2000	  -1.500059E+00	  -9.389198E+06	   1.020909E+08
   46.3000	  -1.640967E+00	  -8.557481E+06	   9.253470E+07
   46.4000	  -1.771067E+00	  -7.671980E+06	   8.248310E+07
   46.5000	  -1.888956E+00	  -6.737374E+06	   7.198436E+07
   46.6000	  -1.993369E+00	  -5.758818E+06	   6.109022E+07
   46.7000	  -2.083188E+00	  -4.741897E+06	   4.985562E+07
   46.8000	  -2.157462E+00	  -3.692579E+06	   3.833825E+07
   46.9000	  -2.215424E+00	  -2.617160E+06	   2.659819E+07
   47.0000	  -2.256492E+00	  -1.522207E+06	   1.469752E+07
   47.1000	  -2.280282E+00	  -4.144900E+05	   2.699888E+06
   47.2000	  -2.286607E+00	   6.990737E+05	  -9.330034E+06
   47.3000	  -2.275479E+00	   1.811492E+06	  -2.132695E+07
   47.4000	  -2.247103E+00	   2.915760E+06	  -3.322544E+07
   47.5000	  -2.201874E+00	   4.004927E+06	  -4.496042E+07
   47.6000	  -2.140361E+00	   5.072163E+06	  -5.646769E+07
   47.7000	  -2.063302E+00	   6.110818E+06	  -6.768435E+07
   47.8000	  -1.971586E+00	   7.114480E+06	  -7.854926E+07
   47.9000	  -1.866235E+00	   8.077034E+06	  -8.900348E+07
   48.0000	  -1.748389E+00	   8.992715E+06	  -9.899076E+07
   48.1000	  -1.619282E+00	   9.856139E+06	  -1.084578E+08
   48.2000	  -1.480226E+00	   1.066236E+07	  -1.173546E+08
   48.3000	  -1.332590E+00	   1.140691E+07	  -1.256351E+08
   48.4000	  -1.177774E+00	   1.208580E+07	  -1.332570E+08
   48.5000	  -1.017196E+00	   1.269556E+07	  -1.401823E+08
   48.6000	  -8.522669E-01	   1.323326E+07	  -1.463776E+08
   48.7000	  -6.843740E-01	   1.369651E+07	  -1.518139E+08
   48.8000	  -5.148643E-01	   1.408348E+07	  -1.564671E+08
   48.9000	  -3.450273E-01	   1.439286E+07	  -1.603178E+08
   49.0000	  -1.760846E-01	   1.462389E+07	  -1.633517E+08
   49.1000	  -9.173720E-03	   1.477635E+07	  -1.655592E+08
   49.2000	   1.546556E-01	   1.485052E+07	  -1.669356E+08
   49.3000	   3.144515E-01	   1.484715E+07	  -1.674811E+08
   49.4000	   4.693641E-01	   1.476747E+07	  -1.672006E+08
   49.5000	   6.186468E-01	   1.461316E+07	  -1.661034E+08
   49.6000	   7.616575E-01	   1.438629E+07	  -1.642034E+08
   49.7000	   8.978555E-01	   1.408930E+07	  -1.615186E+08
   49.8000	   1.026799E+00	   1.372498E+07	  -1.580712E+08
   49.9000	   1.148136E+00	   1.329644E+07	  -1.538870E+08