
Predictions were generated on 26-Aug-2019 at 15:39:22 using OpenFAST, compiled as a 64-bit application using double precision at commit v2.1.0-168-g83bd0ff2
 linked with  NWTC Subroutine Library; ElastoDyn; InflowWind; AeroDyn; ServoDyn; HydroDyn; SubDyn

Description from the FAST input file: FAST Certification Test #21: NREL 5.0 MW Baseline Offshore Turbine with OC4 Jacket Configuration

Time      	Wind1VelX 	Wind1VelY 	Wind1VelZ 	OoPDefl1  	IPDefl1   	TwstDefl1 	BldPitch1 	Azimuth   	RotSpeed  	GenSpeed  	TTDspFA   	TTDspSS   	TTDspTwst 	Spn2MLxb1 	Spn2MLyb1 	RootFxc1  	RootFyc1  	RootFzc1  	RootMxc1  	RootMyc1  	RootMzc1  	RotTorq   	LSSGagMya 	LSSGagMza 	YawBrFxp  	YawBrFyp  	YawBrFzp  	YawBrMxp  	YawBrMyp  	YawBrMzp  	TwrBsMxt  	TwrBsMyt  	TwrBsMzt  	PtfmSurge 	PtfmSway  	PtfmHeave 	PtfmRoll  	PtfmPitch 	PtfmYaw   	GenPwr    	GenTq     	Wave1Elev 	M1N1FKZe  	M2N1FKZe  	M3N1TDXss 	M3N1TDYss 	M3N1TDZss 	M4N1TDXss 	M4N1TDYss 	M4N1TDZss 	M5N2TDXss 	M5N2TDYss 	M5N2TDZss 	M6N2TDXss 	M6N2TDYss 	M6N2TDZss 	M5N1FKXe  	M5N1FKYe  	M5N1FKZe  	M6N1FKXe  	M6N1FKYe  	M6N1FKZe  	M7N1FKZe  	M8N1FKZe  	-ReactFXss	-ReactFYss	-ReactMXss	-ReactMYss	-ReactMZss	-ReactFZss
(s)       	(m/s)     	(m/s)     	(m/s)     	(m)       	(m)       	(deg)     	(deg)     	(deg)     	(rpm)     	(rpm)     	(m)       	(m)       	(deg)     	(kN-m)    	(kN-m)    	(kN)      	(kN)      	(kN)      	(kN-m)    	(kN-m)    	(kN-m)    	(kN-m)    	(kN-m)    	(kN-m)    	(kN)      	(kN)      	(kN)      	(kN-m)    	(kN-m)    	(kN-m)    	(kN-m)    	(kN-m)    	(kN-m)    	(m)       	(m)       	(m)       	(deg)     	(deg)     	(deg)     	(kW)      	(kN-m)    	(m)       	(N)       	(N)       	(m)       	(m)       	(m)       	(m)       	(m)       	(m)       	(m)       	(m)       	(m)       	(m)       	(m)       	(m)       	(N)       	(N)       	(N)       	(N)       	(N)       	(N)       	(N)       	(N)       	(N)       	(N)       	(Nm)      	(Nm)      	(Nm)      	(N)       
    0.0000	 1.162E+01	 1.788E-02	-2.976E-01	 0.000E+00	 0.000E+00	 0.000E+00	 0.000E+00	 0.000E+00	 1.210E+01	 1.174E+03	 0.000E+00	-0.000E+00	 0.000E+00	 2.084E+01	-2.281E+01	 3.354E+01	 1.885E+00	 4.558E+02	-7.435E+00	 3.504E+02	 3.811E+01	-5.259E-12	-1.809E+03	 3.604E+01	 1.480E+01	 2.978E+00	-3.304E+03	 3.853E+01	-2.199E+02	 2.387E-12	 2.283E+01	-7.917E+01	 2.387E-12	 0.000E+00	 0.000E+00	-7.020E-03	 0.000E+00	 0.000E+00	 0.000E+00	 5.000E+03	 4.309E+01	 8.824E-01	-3.266E+06	-3.257E+06	-1.387E-03	-7.623E-07	-4.844E-03	 1.741E-05	-1.222E-03	-4.868E-03	-1.532E-03	-1.635E-08	-6.708E-04	-8.557E-06	-1.572E-03	-6.713E-04	 5.728E+03	 7.230E+03	-3.168E+05	 5.496E+03	 2.863E+03	-3.199E+05	-3.738E+06	-3.736E+06	 7.260E+03	-1.733E+01	 6.722E+03	-5.250E+04	-5.617E+00	-1.641E+07
    0.0500	 1.149E+01	 3.234E-01	-9.326E-01	 1.683E-01	-1.887E-02	 0.000E+00	 0.000E+00	 3.631E+00	 1.208E+01	 1.139E+03	 1.890E-04	 2.323E-04	 0.000E+00	-8.187E+01	 7.170E+01	 4.227E+01	-3.239E+01	 4.577E+02	 4.512E+02	 7.339E+02	 5.152E+01	 1.087E+03	-1.752E+03	 1.305E+02	-1.981E+00	 5.300E+01	-3.335E+03	 1.024E+03	-3.272E+02	 5.457E+01	 1.776E+02	 4.380E+02	 5.457E+01	 2.296E-05	-1.667E-05	-7.069E-03	 1.917E-04	-2.222E-04	 6.739E-05	 4.859E+03	 4.315E+01	 8.566E-01	-3.314E+06	-3.285E+06	-1.231E-03	 1.520E-05	-4.909E-03	 1.767E-04	-1.225E-03	-4.916E-03	-8.174E-04	 6.230E-07	-7.006E-04	 9.523E-05	-8.480E-04	-7.056E-04	 2.069E+03	 7.040E+03	-3.291E+05	 1.468E+03	 2.604E+03	-3.006E+05	-3.730E+06	-3.804E+06	 7.875E+04	-4.718E+02	-1.486E+04	 1.344E+06	-1.855E+03	-1.653E+07
    0.1000	 1.120E+01	 5.680E-01	-1.056E+00	 5.937E-01	-1.020E-01	 0.000E+00	 0.000E+00	 7.235E+00	 1.193E+01	 1.119E+03	 5.629E-05	-6.094E-04	 0.000E+00	-1.368E+02	 2.868E+02	 5.708E+01	-7.434E+01	 4.576E+02	 1.193E+03	 1.611E+03	 7.986E-01	 2.895E+03	-1.620E+03	 6.964E+01	-1.013E+01	 8.052E+01	-3.362E+03	 2.747E+03	-3.245E+02	-1.830E+02	-1.173E+03	 6.452E+02	-1.830E+02	 2.544E-04	-7.418E-05	-7.081E-03	-3.496E-04	-3.701E-04	 1.694E-04	 4.787E+03	 4.328E+01	 8.307E-01	-3.388E+06	-3.257E+06	-8.967E-04	-7.042E-05	-4.940E-03	 5.096E-04	-1.290E-03	-4.941E-03	 3.069E-04	 1.418E-05	-7.375E-04	 2.660E-04	-9.114E-05	-7.422E-04	-3.520E+03	 6.941E+03	-3.443E+05	-2.619E+03	 2.057E+03	-2.669E+05	-3.665E+06	-3.894E+06	 1.986E+05	 1.198E+04	-7.988E+03	 3.886E+06	 1.228E+04	-1.658E+07
    0.1500	 1.125E+01	 7.613E-01	-1.440E+00	 1.200E+00	-2.777E-01	 0.000E+00	 0.000E+00	 1.079E+01	 1.176E+01	 1.114E+03	-6.965E-04	-3.630E-03	 0.000E+00	 4.797E+01	 6.095E+02	 1.017E+02	-9.288E+01	 4.617E+02	 1.921E+03	 3.050E+03	 1.006E+01	 4.365E+03	-1.155E+03	-7.479E-01	 4.546E+00	 5.626E+01	-3.361E+03	 4.234E+03	 1.974E+02	-4.456E+02	-3.176E+03	-3.192E+02	-4.456E+02	 7.980E-04	 1.156E-04	-7.029E-03	-1.981E-03	 9.905E-06	-1.371E-03	 4.783E+03	 4.344E+01	 8.049E-01	-3.430E+06	-3.145E+06	-5.910E-04	-1.647E-04	-4.849E-03	 7.543E-04	-1.418E-03	-4.854E-03	 3.038E-04	-5.778E-05	-7.178E-04	 3.217E-04	-7.090E-04	-7.186E-04	-2.789E+03	 7.133E+03	-3.079E+05	 2.844E+02	 1.749E+03	-2.516E+05	-3.560E+06	-3.937E+06	 2.389E+05	-2.712E+04	 7.015E+05	 5.472E+06	 1.100E+05	-1.646E+07
    0.2000	 1.150E+01	 1.046E+00	-1.145E+00	 1.923E+00	-5.089E-01	 0.000E+00	 0.000E+00	 1.431E+01	 1.173E+01	 1.120E+03	-3.543E-04	-8.252E-03	 0.000E+00	 3.825E+02	 9.712E+02	 1.453E+02	-8.910E+01	 4.601E+02	 2.544E+03	 4.705E+03	-4.600E+01	 5.323E+03	-7.629E+02	-1.486E+02	 2.326E+01	 6.875E+01	-3.420E+03	 5.150E+03	 6.195E+02	-5.666E+02	-2.879E+03	-1.296E+03	-5.665E+02	 1.392E-03	 8.907E-04	-7.099E-03	-3.673E-03	 3.810E-04	-3.627E-03	 4.785E+03	 4.322E+01	 7.791E-01	-3.525E+06	-3.081E+06	-3.272E-04	 5.286E-05	-4.823E-03	 9.015E-04	-1.404E-03	-4.770E-03	-6.658E-04	-1.779E-04	-6.728E-04	 2.199E-04	-1.615E-03	-6.833E-04	 2.651E+03	 7.188E+03	-2.533E+05	 4.119E+03	 2.195E+03	-2.696E+05	-3.542E+06	-4.012E+06	 2.050E+05	-1.501E+05	 1.562E+06	 6.263E+06	-4.042E+05	-1.658E+07
    0.2500	 1.187E+01	 1.092E+00	-5.680E-01	 2.724E+00	-7.116E-01	 0.000E+00	 0.000E+00	 1.783E+01	 1.181E+01	 1.134E+03	 1.890E-03	-1.321E-02	 0.000E+00	 6.303E+02	 1.372E+03	 1.992E+02	-9.085E+01	 4.492E+02	 3.102E+03	 6.524E+03	-3.199E+01	 5.961E+03	-1.495E+02	-3.078E+02	 1.215E+01	 1.030E+02	-3.502E+03	 5.702E+03	 1.041E+03	-7.859E+02	-1.357E+03	-6.921E+02	-7.859E+02	 1.743E-03	 2.023E-03	-7.194E-03	-4.546E-03	 1.056E-03	-5.850E-03	 4.761E+03	 4.247E+01	 7.533E-01	-3.576E+06	-3.136E+06	-1.857E-04	 8.035E-04	-4.866E-03	 9.169E-04	-8.491E-04	-4.733E-03	-1.087E-03	-1.151E-04	-6.659E-04	 1.316E-04	-1.462E-03	-6.788E-04	 4.739E+03	 6.712E+03	-2.824E+05	 3.346E+03	 2.555E+03	-2.898E+05	-3.654E+06	-4.003E+06	 1.941E+05	-1.801E+05	-5.934E+05	 7.087E+06	-1.183E+06	-1.678E+07
    0.3000	 1.202E+01	 8.365E-01	-3.020E-01	 3.562E+00	-8.249E-01	 0.000E+00	 0.000E+00	 2.139E+01	 1.193E+01	 1.153E+03	 7.004E-03	-1.816E-02	 0.000E+00	 6.363E+02	 1.780E+03	 2.290E+02	-1.103E+02	 4.467E+02	 3.521E+03	 7.946E+03	-6.896E+01	 6.290E+03	 2.056E+02	-2.436E+02	 2.534E+01	 8.493E+01	-3.514E+03	 6.074E+03	 1.254E+03	-6.332E+02	-1.015E+03	 3.349E+02	-6.331E+02	 1.894E-03	 3.127E-03	-7.132E-03	-4.725E-03	 1.789E-03	-8.095E-03	 4.755E+03	 4.172E+01	 7.285E-01	-3.488E+06	-3.201E+06	-1.821E-04	 1.938E-03	-4.817E-03	 8.294E-04	 2.710E-04	-4.669E-03	-3.481E-04	 2.269E-04	-6.965E-04	 1.338E-04	-5.704E-04	-6.803E-04	 7.445E+02	 6.675E+03	-4.021E+05	 6.605E+02	 1.917E+03	-2.967E+05	-3.830E+06	-3.774E+06	 2.125E+05	 3.214E+04	-7.092E+06	 7.555E+06	-1.296E+06	-1.668E+07
    0.3500	 1.212E+01	 6.953E-01	-1.840E-02	 4.384E+00	-8.557E-01	 0.000E+00	 0.000E+00	 2.499E+01	 1.200E+01	 1.173E+03	 1.543E-02	-2.389E-02	 0.000E+00	 4.637E+02	 2.169E+03	 2.540E+02	-1.390E+02	 4.429E+02	 3.748E+03	 9.073E+03	-6.985E+01	 6.096E+03	 4.137E+02	-2.733E+02	 6.157E+01	 4.080E+01	-3.524E+03	 5.964E+03	 1.481E+03	-6.760E+02	-5.141E+02	 1.327E+03	-6.759E+02	 1.955E-03	 4.258E-03	-7.096E-03	-4.866E-03	 2.517E-03	-6.621E-03	 4.859E+03	 4.189E+01	 7.038E-01	-3.387E+06	-3.263E+06	-3.046E-04	 2.919E-03	-4.764E-03	 7.746E-04	 1.389E-03	-4.614E-03	 3.832E-04	 6.272E-04	-7.175E-04	 1.073E-04	 1.134E-04	-6.703E-04	-3.439E+03	 8.272E+03	-5.027E+05	-6.717E+02	 1.463E+03	-3.049E+05	-4.054E+06	-3.514E+06	 2.080E+05	 3.203E+05	-1.423E+07	 7.035E+06	-1.341E+06	-1.660E+07
    0.4000	 1.197E+01	 1.059E+00	-6.598E-01	 5.124E+00	-8.554E-01	 0.000E+00	 0.000E+00	 2.858E+01	 1.197E+01	 1.188E+03	 2.710E-02	-3.054E-02	 0.000E+00	 2.788E+02	 2.514E+03	 2.698E+02	-1.578E+02	 4.345E+02	 3.761E+03	 9.911E+03	-4.478E+01	 5.135E+03	 5.047E+02	-3.599E+01	 1.077E+02	 1.857E+01	-3.590E+03	 5.081E+03	 1.538E+03	-3.401E+02	 1.791E+03	 3.079E+03	-3.400E+02	 1.936E-03	 5.444E-03	-7.216E-03	-5.225E-03	 3.568E-03	-3.649E-03	 5.003E+03	 4.260E+01	 6.790E-01	-3.362E+06	-3.371E+06	-5.525E-04	 3.487E-03	-4.810E-03	 7.252E-04	 2.086E-03	-4.594E-03	-7.165E-05	 6.784E-04	-7.046E-04	 9.845E-05	 1.043E-04	-6.498E-04	-1.031E+03	 9.294E+03	-4.906E+05	-8.474E+01	 1.603E+03	-2.939E+05	-4.280E+06	-3.397E+06	 1.550E+05	 4.221E+05	-1.805E+07	 5.719E+06	-6.885E+05	-1.682E+07
    0.4500	 1.196E+01	 8.233E-01	-7.789E-01	 5.716E+00	-8.655E-01	 0.000E+00	 0.000E+00	 3.216E+01	 1.189E+01	 1.190E+03	 4.129E-02	-3.660E-02	 0.000E+00	 2.045E+02	 2.803E+03	 2.792E+02	-1.558E+02	 4.297E+02	 3.590E+03	 1.053E+04	-4.224E+01	 3.539E+03	 4.802E+02	 1.866E+02	 1.484E+02	-1.844E+01	-3.607E+03	 3.596E+03	 1.444E+03	 4.437E+01	 4.217E+03	 6.157E+03	 4.445E+01	 1.950E-03	 6.197E-03	-7.245E-03	-5.301E-03	 5.502E-03	 4.171E-04	 5.099E+03	 4.335E+01	 6.543E-01	-3.255E+06	-3.502E+06	-8.900E-04	 3.649E-03	-4.796E-03	 6.626E-04	 2.468E-03	-4.534E-03	-1.121E-03	 4.900E-04	-6.830E-04	 7.423E-05	-3.880E-04	-6.195E-04	 4.081E+03	 8.220E+03	-4.447E+05	 2.288E+03	 1.928E+03	-2.834E+05	-4.398E+06	-3.306E+06	 5.735E+04	 3.478E+05	-1.894E+07	 3.981E+06	 2.259E+05	-1.688E+07
    0.5000	 1.187E+01	 8.366E-01	-8.313E-01	 6.121E+00	-8.851E-01	 0.000E+00	 0.000E+00	 3.573E+01	 1.187E+01	 1.176E+03	 5.765E-02	-3.991E-02	 0.000E+00	 1.960E+02	 2.995E+03	 2.986E+02	-1.495E+02	 4.279E+02	 3.462E+03	 1.117E+04	-2.806E+01	 2.097E+03	 5.812E+02	 5.419E+02	 1.908E+02	-6.324E+01	-3.561E+03	 2.280E+03	 1.318E+03	 3.359E+02	 5.584E+03	 9.677E+03	 3.360E+02	 2.324E-03	 6.009E-03	-7.130E-03	-4.164E-03	 8.311E-03	 4.694E-03	 5.054E+03	 4.346E+01	 6.295E-01	-2.998E+06	-3.680E+06	-1.183E-03	 3.497E-03	-4.641E-03	 6.329E-04	 2.584E-03	-4.493E-03	-1.332E-03	 3.970E-04	-6.899E-04	-4.423E-05	-5.082E-04	-6.101E-04	 3.700E+03	 6.934E+03	-4.461E+05	 3.123E+03	 1.892E+03	-3.182E+05	-4.398E+06	-3.199E+06	-7.683E+04	 3.071E+05	-1.886E+07	 2.119E+06	 7.928E+05	-1.666E+07
    0.5500	 1.162E+01	 1.383E+00	-7.222E-01	 6.353E+00	-8.986E-01	 0.000E+00	 0.000E+00	 3.929E+01	 1.186E+01	 1.154E+03	 7.582E-02	-3.974E-02	 0.000E+00	 1.566E+02	 3.094E+03	 3.059E+02	-1.590E+02	 4.348E+02	 3.549E+03	 1.150E+04	-3.494E+01	 1.575E+03	 5.219E+02	 1.128E+03	 2.597E+02	-5.991E+01	-3.553E+03	 1.810E+03	 1.085E+03	 1.084E+03	 6.397E+03	 1.296E+04	 1.084E+03	 3.347E-03	 4.736E-03	-7.132E-03	-1.596E-03	 1.199E-02	 7.058E-03	 4.957E+03	 4.347E+01	 6.028E-01	-2.703E+06	-3.985E+06	-1.194E-03	 2.962E-03	-4.488E-03	 7.517E-04	 2.161E-03	-4.646E-03	-6.991E-04	 4.589E-04	-7.118E-04	-1.845E-04	 4.991E-05	-6.467E-04	-9.210E+02	 7.523E+03	-4.625E+05	 3.782E+02	 1.610E+03	-3.806E+05	-4.329E+06	-3.275E+06	-1.970E+05	 3.968E+05	-1.770E+07	 1.327E+06	 1.231E+06	-1.668E+07
    0.6000	 1.136E+01	 1.919E+00	-7.170E-01	 6.457E+00	-9.176E-01	 0.000E+00	 0.000E+00	 4.284E+01	 1.180E+01	 1.131E+03	 9.533E-02	-3.713E-02	 0.000E+00	 1.260E+02	 3.131E+03	 3.115E+02	-1.768E+02	 4.353E+02	 3.811E+03	 1.168E+04	-3.042E+01	 1.979E+03	 2.725E+02	 1.523E+03	 3.301E+02	-3.182E+01	-3.568E+03	 2.155E+03	 8.459E+02	 9.939E+02	 6.131E+03	 1.690E+04	 9.941E+02	 5.116E-03	 2.451E-03	-7.216E-03	 1.539E-03	 1.676E-02	 9.500E-03	 4.859E+03	 4.347E+01	 5.762E-01	-2.397E+06	-4.343E+06	-6.767E-04	 1.788E-03	-4.332E-03	 1.323E-03	 1.056E-03	-4.920E-03	-5.461E-04	 5.210E-04	-6.935E-04	-2.289E-04	 3.219E-04	-6.900E-04	-1.788E+03	 8.862E+03	-4.513E+05	-1.228E+03	 1.868E+03	-4.091E+05	-4.067E+06	-3.614E+06	-2.252E+05	 4.783E+05	-1.363E+07	 3.621E+06	 1.263E+06	-1.683E+07
    0.6500	 1.127E+01	 1.623E+00	-1.130E+00	 6.473E+00	-9.710E-01	 0.000E+00	 0.000E+00	 4.636E+01	 1.169E+01	 1.114E+03	 1.161E-01	-3.360E-02	 0.000E+00	 1.888E+02	 3.134E+03	 3.132E+02	-1.952E+02	 4.386E+02	 4.220E+03	 1.164E+04	-3.509E+01	 2.834E+03	 1.259E+02	 1.775E+03	 3.818E+02	-1.639E+01	-3.523E+03	 2.980E+03	 6.091E+02	 1.071E+03	 4.627E+03	 2.152E+04	 1.071E+03	 7.796E-03	-5.217E-04	-7.165E-03	 4.346E-03	 2.245E-02	 8.658E-03	 4.705E+03	 4.272E+01	 5.495E-01	-2.055E+06	-4.620E+06	 5.570E-04	 7.817E-05	-4.039E-03	 2.429E-03	-6.535E-04	-5.116E-03	-1.128E-03	 2.522E-04	-6.336E-04	-1.065E-04	-2.868E-04	-7.099E-04	 2.557E+03	 7.620E+03	-3.731E+05	 4.934E+02	 1.908E+03	-3.865E+05	-3.473E+06	-4.150E+06	-1.714E+05	 3.238E+05	-4.885E+06	 9.691E+06	 1.699E+06	-1.672E+07
    0.7000	 1.155E+01	 1.630E+00	-1.046E+00	 6.417E+00	-1.066E+00	 0.000E+00	 0.000E+00	 4.985E+01	 1.161E+01	 1.107E+03	 1.370E-01	-3.057E-02	 0.000E+00	 3.926E+02	 3.116E+03	 3.017E+02	-1.965E+02	 4.408E+02	 4.601E+03	 1.126E+04	-5.876E+01	 3.753E+03	-8.089E+01	 1.838E+03	 4.370E+02	 5.695E-01	-3.470E+03	 3.838E+03	 5.142E+02	 7.867E+02	 3.199E+03	 2.567E+04	 7.869E+02	 1.166E-02	-3.632E-03	-7.083E-03	 6.396E-03	 2.945E-02	 7.199E-03	 4.592E+03	 4.197E+01	 5.229E-01	-1.730E+06	-4.890E+06	 2.345E-03	-1.991E-03	-3.632E-03	 4.045E-03	-2.871E-03	-5.253E-03	-1.233E-03	-2.670E-04	-5.872E-04	-5.241E-05	-1.090E-03	-7.430E-04	 3.425E+03	 5.014E+03	-2.475E+05	 1.395E+03	 1.807E+03	-3.992E+05	-2.660E+06	-4.891E+06	-1.054E+05	-8.847E+04	 8.125E+06	 1.840E+07	 1.287E+06	-1.657E+07
    0.7500	 1.165E+01	 1.698E+00	-5.822E-01	 6.294E+00	-1.168E+00	 0.000E+00	 0.000E+00	 5.333E+01	 1.161E+01	 1.108E+03	 1.567E-01	-2.830E-02	 0.000E+00	 6.434E+02	 3.072E+03	 2.878E+02	-1.900E+02	 4.456E+02	 4.920E+03	 1.074E+04	-8.324E+01	 4.627E+03	-9.478E+01	 1.623E+03	 4.863E+02	 3.433E+01	-3.466E+03	 4.624E+03	 8.677E+02	 6.046E+02	 2.472E+03	 2.944E+04	 6.048E+02	 1.675E-02	-6.471E-03	-7.118E-03	 8.083E-03	 3.836E-02	 4.502E-03	 4.516E+03	 4.122E+01	 4.962E-01	-1.398E+06	-5.268E+06	 4.568E-03	-3.943E-03	-3.170E-03	 6.036E-03	-5.168E-03	-5.432E-03	-4.384E-04	-7.502E-04	-5.551E-04	-5.106E-05	-1.658E-03	-7.989E-04	-5.707E+02	 3.703E+03	-1.066E+05	 3.808E+02	 1.340E+03	-4.479E+05	-1.814E+06	-5.780E+06	-3.388E+04	-4.865E+05	 2.112E+07	 2.918E+07	 4.685E+05	-1.666E+07
    0.8000	 1.160E+01	 1.741E+00	-5.080E-01	 6.106E+00	-1.223E+00	 0.000E+00	 0.000E+00	 5.682E+01	 1.168E+01	 1.118E+03	 1.761E-01	-2.634E-02	 0.000E+00	 7.954E+02	 2.987E+03	 2.711E+02	-1.885E+02	 4.511E+02	 5.141E+03	 1.017E+04	-1.072E+02	 5.402E+03	-7.877E+01	 1.429E+03	 5.252E+02	 5.205E+01	-3.455E+03	 5.344E+03	 1.123E+03	 3.976E+02	 1.529E+03	 3.346E+04	 3.979E+02	 2.278E-02	-8.860E-03	-7.133E-03	 1.018E-02	 4.839E-02	 7.228E-04	 4.473E+03	 4.047E+01	 4.813E-01	-9.614E+05	-5.699E+06	 7.438E-03	-5.231E-03	-2.604E-03	 8.565E-03	-6.740E-03	-5.617E-03	 2.336E-04	-8.899E-04	-4.824E-04	 7.395E-05	-2.236E-03	-8.284E-04	-2.240E+03	 3.835E+03	-2.826E+04	 1.525E+03	 5.297E+02	-4.545E+05	-9.888E+05	-6.613E+06	 9.236E+04	-5.961E+05	 2.864E+07	 4.290E+07	 9.722E+04	-1.668E+07
    0.8500	 1.177E+01	 1.554E+00	-5.439E-01	 5.875E+00	-1.206E+00	 0.000E+00	 0.000E+00	 6.034E+01	 1.177E+01	 1.134E+03	 1.953E-01	-2.523E-02	 0.000E+00	 7.787E+02	 2.870E+03	 2.570E+02	-1.987E+02	 4.560E+02	 5.241E+03	 9.659E+03	-9.833E+01	 5.916E+03	 9.723E+00	 1.075E+03	 5.440E+02	 5.275E+01	-3.421E+03	 5.834E+03	 1.383E+03	 1.257E+02	 8.782E+02	 3.794E+04	 1.259E+02	 2.948E-02	-1.046E-02	-7.081E-03	 1.281E-02	 5.897E-02	-9.125E-04	 4.455E+03	 3.972E+01	 4.664E-01	-4.156E+05	-6.176E+06	 1.089E-02	-5.627E-03	-1.964E-03	 1.171E-02	-7.172E-03	-5.766E-03	 2.760E-04	-6.587E-04	-3.738E-04	 3.348E-04	-2.337E-03	-8.301E-04	 3.892E+02	 3.728E+03	-6.411E+04	 2.894E+03	-9.410E+01	-3.989E+05	-2.303E+05	-7.313E+06	 3.012E+05	-4.639E+05	 2.956E+07	 5.981E+07	-3.320E+05	-1.656E+07
    0.9000	 1.167E+01	 1.526E+00	-4.444E-01	 5.621E+00	-1.133E+00	 0.000E+00	 0.000E+00	 6.388E+01	 1.182E+01	 1.154E+03	 2.142E-01	-2.720E-02	 0.000E+00	 6.712E+02	 2.729E+03	 2.496E+02	-2.055E+02	 4.690E+02	 5.093E+03	 9.239E+03	-7.816E+01	 5.832E+03	 5.453E+01	 8.563E+02	 5.843E+02	 5.788E+01	-3.426E+03	 5.749E+03	 1.662E+03	 3.054E+02	 1.993E+03	 4.184E+04	 3.054E+02	 3.668E-02	-1.081E-02	-7.088E-03	 1.473E-02	 6.985E-02	-6.922E-04	 4.446E+03	 3.897E+01	 4.515E-01	 8.365E+04	-6.699E+06	 1.458E-02	-5.388E-03	-1.350E-03	 1.528E-02	-6.861E-03	-5.861E-03	 4.572E-04	-4.539E-04	-2.844E-04	 6.966E-04	-1.444E-03	-8.471E-04	 2.010E+03	 2.519E+03	-1.189E+05	-7.761E+02	-8.656E+02	-3.110E+05	 4.209E+05	-7.980E+06	 5.515E+05	-3.392E+05	 2.749E+07	 7.844E+07	-4.141E+05	-1.659E+07
    0.9500	 1.180E+01	 1.257E+00	-3.404E-01	 5.380E+00	-1.038E+00	 0.000E+00	 0.000E+00	 6.743E+01	 1.180E+01	 1.170E+03	 2.331E-01	-3.398E-02	 0.000E+00	 5.597E+02	 2.624E+03	 2.374E+02	-1.969E+02	 4.793E+02	 4.673E+03	 8.808E+03	-6.373E+01	 4.924E+03	-3.705E+01	 6.793E+02	 6.376E+02	 3.082E+01	-3.446E+03	 4.883E+03	 1.932E+03	 9.370E+01	 4.221E+03	 4.528E+04	 9.355E+01	 4.403E-02	-9.913E-03	-7.119E-03	 1.459E-02	 8.083E-02	 1.303E-03	 4.420E+03	 3.822E+01	 4.366E-01	 4.801E+05	-7.141E+06	 1.829E-02	-4.959E-03	-7.281E-04	 1.902E-02	-6.327E-03	-5.810E-03	 1.260E-03	-4.845E-04	-2.140E-04	 1.112E-03	-7.590E-04	-8.566E-04	 4.593E+01	 1.549E+03	-9.089E+04	-4.624E+03	-2.151E+03	-2.138E+05	 1.022E+06	-8.618E+06	 8.015E+05	-3.259E+05	 2.518E+07	 9.710E+07	 6.957E+04	-1.667E+07
    1.0000	 1.175E+01	 1.369E+00	-5.957E-01	 5.184E+00	-9.438E-01	 0.000E+00	 0.000E+00	 7.096E+01	 1.179E+01	 1.174E+03	 2.520E-01	-4.411E-02	 0.000E+00	 4.616E+02	 2.546E+03	 2.290E+02	-1.813E+02	 4.957E+02	 4.155E+03	 8.502E+03	-4.769E+01	 3.505E+03	-1.226E+02	 6.495E+02	 6.813E+02	-4.419E+01	-3.440E+03	 3.614E+03	 1.938E+03	 6.896E+01	 6.291E+03	 4.939E+04	 6.874E+01	 5.106E-02	-8.197E-03	-7.090E-03	 1.297E-02	 9.176E-02	 2.419E-03	 4.478E+03	 3.857E+01	 4.217E-01	 8.588E+05	-7.475E+06	 2.187E-02	-4.231E-03	-6.809E-05	 2.252E-02	-5.548E-03	-5.621E-03	 2.146E-03	-5.622E-04	-1.275E-04	 1.523E-03	-1.466E-03	-8.112E-04	-1.710E+03	 1.443E+03	-1.797E+04	-1.351E+03	-3.958E+03	-1.165E+05	 1.571E+06	-9.131E+06	 1.032E+06	-3.206E+05	 2.169E+07	 1.147E+08	 8.323E+05	-1.660E+07
    1.0500	 1.213E+01	 1.700E+00	-4.629E-01	 5.041E+00	-8.548E-01	 0.000E+00	 0.000E+00	 7.450E+01	 1.181E+01	 1.166E+03	 2.711E-01	-5.425E-02	 0.000E+00	 3.311E+02	 2.484E+03	 2.291E+02	-1.762E+02	 5.144E+02	 3.778E+03	 8.413E+03	-3.461E+01	 2.326E+03	-1.338E+02	 7.440E+02	 7.163E+02	-1.071E+02	-3.456E+03	 2.568E+03	 1.769E+03	 1.181E+02	 8.503E+03	 5.421E+04	 1.179E+02	 5.746E-02	-6.193E-03	-7.098E-03	 1.181E-02	 1.024E-01	 2.880E-03	 4.523E+03	 3.924E+01	 4.001E-01	 1.267E+06	-7.873E+06	 2.506E-02	-2.937E-03	 5.176E-04	 2.552E-02	-4.260E-03	-5.478E-03	 2.574E-03	-3.481E-04	-3.888E-05	 1.763E-03	-2.237E-03	-7.494E-04	-1.594E+03	 1.704E+03	-3.667E+04	 3.692E+03	-5.259E+03	-5.804E+04	 1.929E+06	-9.493E+06	 1.209E+06	-1.939E+05	 1.507E+07	 1.303E+08	 6.437E+05	-1.661E+07
    1.1000	 1.233E+01	 1.703E+00	-2.034E-02	 4.942E+00	-7.842E-01	 0.000E+00	 0.000E+00	 7.805E+01	 1.179E+01	 1.149E+03	 2.910E-01	-6.245E-02	 0.000E+00	 1.808E+02	 2.441E+03	 2.328E+02	-1.851E+02	 5.309E+02	 3.646E+03	 8.482E+03	-2.407E+01	 1.832E+03	-6.443E+01	 7.514E+02	 7.587E+02	-1.200E+02	-3.495E+03	 2.101E+03	 1.784E+03	 1.255E+02	 1.104E+04	 5.868E+04	 1.254E+02	 6.311E-02	-4.358E-03	-7.155E-03	 1.198E-02	 1.121E-01	 1.632E-03	 4.476E+03	 3.939E+01	 3.785E-01	 1.697E+06	-8.371E+06	 2.764E-02	-1.247E-03	 1.004E-03	 2.793E-02	-2.598E-03	-5.443E-03	 2.597E-03	 1.286E-04	 2.384E-05	 1.834E-03	-1.240E-03	-7.353E-04	-5.908E+02	 1.503E+03	-1.681E+05	 9.149E+02	-5.845E+03	-4.426E+04	 2.086E+06	-9.715E+06	 1.298E+06	 7.875E+04	 5.875E+06	 1.428E+08	 7.180E+04	-1.673E+07
    1.1500	 1.180E+01	 1.356E+00	-8.190E-02	 4.877E+00	-7.637E-01	 0.000E+00	 0.000E+00	 8.157E+01	 1.170E+01	 1.131E+03	 3.120E-01	-6.916E-02	 0.000E+00	 1.148E+02	 2.397E+03	 2.475E+02	-1.954E+02	 5.416E+02	 3.738E+03	 8.817E+03	-2.013E+01	 1.885E+03	 2.690E+02	 6.302E+02	 8.189E+02	-1.237E+02	-3.496E+03	 2.159E+03	 2.068E+03	 4.057E+01	 1.272E+04	 6.247E+04	 4.058E+01	 6.787E-02	-3.067E-03	-7.128E-03	 1.245E-02	 1.205E-01	-1.243E-03	 4.358E+03	 3.897E+01	 3.569E-01	 2.120E+06	-8.785E+06	 2.970E-02	 1.665E-04	 1.474E-03	 2.981E-02	-1.211E-03	-5.398E-03	 2.504E-03	 5.875E-04	 7.545E-05	 1.862E-03	 5.510E-04	-7.490E-04	 7.591E+02	 1.307E+03	-3.008E+05	-5.983E+03	-6.232E+03	-4.374E+04	 2.238E+06	-9.844E+06	 1.337E+06	 3.794E+05	-2.264E+06	 1.526E+08	-9.249E+04	-1.669E+07
    1.2000	 1.152E+01	 1.350E+00	-2.400E-01	 4.840E+00	-8.114E-01	 0.000E+00	 0.000E+00	 8.507E+01	 1.161E+01	 1.116E+03	 3.344E-01	-7.520E-02	 0.000E+00	 2.027E+02	 2.383E+03	 2.640E+02	-1.982E+02	 5.563E+02	 3.979E+03	 9.179E+03	-2.568E+01	 2.267E+03	 7.029E+02	 3.681E+02	 8.794E+02	-1.421E+02	-3.482E+03	 2.592E+03	 2.484E+03	 2.593E+02	 1.313E+04	 6.647E+04	 2.595E+02	 7.150E-02	-2.491E-03	-7.089E-03	 1.217E-02	 1.273E-01	-1.949E-03	 4.215E+03	 3.822E+01	 3.353E-01	 2.425E+06	-9.038E+06	 3.137E-02	 6.718E-04	 1.857E-03	 3.128E-02	-7.560E-04	-5.336E-03	 2.600E-03	 7.875E-04	 1.278E-04	 1.900E-03	 7.694E-04	-7.385E-04	 1.374E+03	 1.876E+03	-3.319E+05	-6.366E+03	-6.594E+03	-4.127E+04	 2.487E+06	-1.005E+07	 1.400E+06	 4.953E+05	-5.152E+06	 1.605E+08	-5.160E+05	-1.660E+07
    1.2500	 1.219E+01	 1.603E+00	-3.422E-01	 4.842E+00	-9.107E-01	 0.000E+00	 0.000E+00	 8.854E+01	 1.158E+01	 1.106E+03	 3.579E-01	-8.002E-02	 0.000E+00	 3.935E+02	 2.389E+03	 2.778E+02	-2.004E+02	 5.722E+02	 4.383E+03	 9.450E+03	-6.060E+01	 2.961E+03	 1.144E+03	 3.513E+01	 9.292E+02	-1.471E+02	-3.506E+03	 3.322E+03	 2.868E+03	 6.817E+02	 1.307E+04	 7.098E+04	 6.820E+02	 7.399E-02	-2.654E-03	-7.150E-03	 1.145E-02	 1.327E-01	 8.515E-04	 4.095E+03	 3.747E+01	 3.137E-01	 2.567E+06	-9.219E+06	 3.256E-02	 1.278E-04	 2.058E-03	 3.243E-02	-1.298E-03	-5.337E-03	 3.043E-03	 5.446E-04	 1.566E-04	 2.002E-03	-6.727E-04	-7.124E-04	-2.162E+02	 2.003E+03	-2.337E+05	-4.957E+02	-7.196E+03	-2.540E+04	 2.781E+06	-1.040E+07	 1.474E+06	 3.259E+05	-1.706E+06	 1.664E+08	-5.896E+05	-1.672E+07
    1.3000	 1.233E+01	 1.314E+00	-3.462E-01	 4.886E+00	-1.022E+00	 0.000E+00	 0.000E+00	 9.202E+01	 1.160E+01	 1.104E+03	 3.814E-01	-8.207E-02	 0.000E+00	 5.902E+02	 2.396E+03	 2.874E+02	-2.058E+02	 5.827E+02	 4.865E+03	 9.614E+03	-6.836E+01	 3.915E+03	 1.452E+03	-3.662E+02	 9.822E+02	-1.293E+02	-3.512E+03	 4.253E+03	 3.315E+03	 9.169E+02	 1.270E+04	 7.523E+04	 9.174E+02	 7.558E-02	-3.608E-03	-7.171E-03	 1.139E-02	 1.370E-01	 5.348E-03	 4.008E+03	 3.672E+01	 2.878E-01	 2.708E+06	-9.391E+06	 3.307E-02	-1.118E-03	 2.211E-03	 3.320E-02	-2.334E-03	-5.372E-03	 3.460E-03	-1.798E-07	 1.534E-04	 2.136E-03	-1.667E-03	-7.146E-04	-2.722E+03	 5.823E+02	-8.231E+04	 2.146E+03	-7.913E+03	-4.520E+03	 3.074E+06	-1.072E+07	 1.468E+06	 4.151E+04	 4.919E+06	 1.689E+08	 7.349E+05	-1.677E+07
    1.3500	 1.254E+01	 9.614E-01	-6.045E-01	 4.952E+00	-1.108E+00	 0.000E+00	 0.000E+00	 9.551E+01	 1.166E+01	 1.112E+03	 4.036E-01	-8.051E-02	 0.000E+00	 7.249E+02	 2.434E+03	 2.827E+02	-2.113E+02	 5.894E+02	 5.252E+03	 9.515E+03	-1.043E+02	 4.874E+03	 1.438E+03	-7.465E+02	 1.044E+03	-1.080E+02	-3.466E+03	 5.157E+03	 3.828E+03	 8.352E+02	 1.166E+04	 7.888E+04	 8.359E+02	 7.651E-02	-5.312E-03	-7.083E-03	 1.272E-02	 1.408E-01	 1.027E-02	 3.955E+03	 3.597E+01	 2.618E-01	 2.963E+06	-9.581E+06	 3.297E-02	-2.524E-03	 2.408E-03	 3.346E-02	-3.393E-03	-5.437E-03	 3.192E-03	-3.594E-04	 1.512E-04	 2.103E-03	-1.175E-03	-7.556E-04	-2.631E+03	-7.660E+02	 1.290E+03	-1.674E+03	-7.758E+03	-2.367E+04	 3.312E+06	-1.087E+07	 1.339E+06	-9.597E+04	 1.073E+07	 1.679E+08	 2.136E+06	-1.661E+07
    1.4000	 1.250E+01	 7.936E-01	-6.447E-01	 5.017E+00	-1.151E+00	 0.000E+00	 0.000E+00	 9.902E+01	 1.172E+01	 1.129E+03	 4.242E-01	-7.602E-02	 0.000E+00	 7.763E+02	 2.459E+03	 2.814E+02	-2.182E+02	 5.962E+02	 5.484E+03	 9.416E+03	-9.353E+01	 5.465E+03	 1.434E+03	-1.019E+03	 1.095E+03	-8.466E+01	-3.454E+03	 5.709E+03	 4.155E+03	 9.994E+02	 1.052E+04	 8.259E+04	 1.000E+03	 7.691E-02	-7.445E-03	-7.075E-03	 1.524E-02	 1.440E-01	 1.214E-02	 3.929E+03	 3.522E+01	 2.359E-01	 3.231E+06	-9.830E+06	 3.260E-02	-3.652E-03	 2.520E-03	 3.320E-02	-4.397E-03	-5.630E-03	 2.300E-03	-3.532E-04	 1.700E-04	 1.875E-03	-4.570E-04	-8.024E-04	 9.431E+02	-5.694E+02	-6.705E+02	-5.355E+03	-6.778E+03	-9.181E+04	 3.438E+06	-1.099E+07	 1.160E+06	-5.166E+04	 1.481E+07	 1.652E+08	 2.376E+06	-1.659E+07
    1.4500	 1.244E+01	 7.325E-01	-6.416E-01	 5.063E+00	-1.148E+00	 0.000E+00	 0.000E+00	 1.025E+02	 1.176E+01	 1.148E+03	 4.426E-01	-7.040E-02	 0.000E+00	 7.599E+02	 2.473E+03	 2.767E+02	-2.194E+02	 6.012E+02	 5.467E+03	 9.291E+03	-1.010E+02	 5.393E+03	 1.337E+03	-1.238E+03	 1.128E+03	-6.136E+01	-3.480E+03	 5.598E+03	 4.340E+03	 1.088E+03	 1.004E+04	 8.639E+04	 1.089E+03	 7.702E-02	-9.551E-03	-7.156E-03	 1.801E-02	 1.465E-01	 9.696E-03	 3.912E+03	 3.447E+01	 2.099E-01	 3.442E+06	-1.009E+07	 3.225E-02	-4.473E-03	 2.533E-03	 3.263E-02	-5.429E-03	-5.883E-03	 1.774E-03	-2.465E-04	 1.845E-04	 1.597E-03	-8.419E-04	-8.223E-04	 3.058E+03	 2.363E+02	-2.224E+04	-3.474E+03	-6.080E+03	-1.811E+05	 3.522E+06	-1.115E+07	 1.030E+06	-2.627E+04	 1.900E+07	 1.628E+08	 1.582E+06	-1.674E+07
    1.5000	 1.221E+01	 4.110E-01	-5.869E-01	 5.080E+00	-1.102E+00	 0.000E+00	 0.000E+00	 1.061E+02	 1.179E+01	 1.164E+03	 4.582E-01	-6.535E-02	 0.000E+00	 6.938E+02	 2.488E+03	 2.654E+02	-2.081E+02	 6.005E+02	 5.145E+03	 9.111E+03	-8.978E+01	 4.638E+03	 1.033E+03	-1.302E+03	 1.169E+03	-5.483E+01	-3.465E+03	 4.816E+03	 4.494E+03	 7.610E+02	 1.007E+04	 8.922E+04	 7.615E+02	 7.718E-02	-1.132E-02	-7.131E-03	 2.006E-02	 1.484E-01	 4.758E-03	 3.974E+03	 3.454E+01	 1.840E-01	 3.622E+06	-1.025E+07	 3.208E-02	-5.188E-03	 2.597E-03	 3.211E-02	-6.490E-03	-6.006E-03	 2.189E-03	-3.187E-04	 1.686E-04	 1.385E-03	-1.752E-03	-8.265E-04	 4.466E+01	-7.731E+01	-1.539E+04	 6.737E+01	-6.256E+03	-2.642E+05	 3.702E+06	-1.131E+07	 9.741E+05	-1.687E+05	 2.473E+07	 1.617E+08	 5.697E+05	-1.670E+07
    1.5500	 1.164E+01	 1.116E+00	-3.301E-03	 5.055E+00	-1.014E+00	 0.000E+00	 0.000E+00	 1.096E+02	 1.182E+01	 1.171E+03	 4.700E-01	-6.136E-02	 0.000E+00	 5.697E+02	 2.464E+03	 2.625E+02	-1.926E+02	 6.044E+02	 4.635E+03	 9.032E+03	-8.275E+01	 3.544E+03	 7.788E+02	-1.365E+03	 1.210E+03	-6.704E+01	-3.437E+03	 3.749E+03	 4.674E+03	 6.663E+02	 1.013E+04	 9.093E+04	 6.668E+02	 7.764E-02	-1.266E-02	-7.052E-03	 2.112E-02	 1.500E-01	 1.249E-04	 4.083E+03	 3.529E+01	 1.677E-01	 3.739E+06	-1.032E+07	 3.217E-02	-5.884E-03	 2.698E-03	 3.192E-02	-7.491E-03	-6.030E-03	 2.765E-03	-5.298E-04	 1.445E-04	 1.276E-03	-1.951E-03	-8.487E-04	-3.722E+03	-1.270E+03	 1.631E+04	-7.069E+02	-6.566E+03	-3.190E+05	 3.954E+06	-1.149E+07	 9.724E+05	-3.923E+05	 3.097E+07	 1.622E+08	-1.717E+05	-1.655E+07
    1.6000	 1.170E+01	 1.495E+00	-6.674E-01	 4.986E+00	-8.965E-01	 0.000E+00	 0.000E+00	 1.132E+02	 1.183E+01	 1.166E+03	 4.775E-01	-5.792E-02	 0.000E+00	 3.811E+02	 2.420E+03	 2.597E+02	-1.828E+02	 6.147E+02	 4.086E+03	 8.889E+03	-6.213E+01	 2.549E+03	 4.183E+02	-1.453E+03	 1.231E+03	-8.596E+01	-3.464E+03	 2.800E+03	 4.857E+03	 7.201E+02	 9.935E+03	 9.213E+04	 7.205E+02	 7.849E-02	-1.358E-02	-7.096E-03	 2.170E-02	 1.516E-01	 1.209E-05	 4.156E+03	 3.604E+01	 1.514E-01	 3.779E+06	-1.040E+07	 3.259E-02	-6.522E-03	 2.740E-03	 3.227E-02	-8.220E-03	-6.107E-03	 2.526E-03	-6.397E-04	 1.575E-04	 1.267E-03	-1.645E-03	-8.786E-04	-2.367E+03	-1.582E+03	 4.586E+04	-3.347E+03	-6.105E+03	-3.252E+05	 4.152E+06	-1.173E+07	 1.003E+06	-5.009E+05	 3.500E+07	 1.643E+08	-6.803E+05	-1.664E+07
    1.6500	 1.130E+01	 1.368E+00	-1.089E+00	 4.884E+00	-7.780E-01	 0.000E+00	 0.000E+00	 1.167E+02	 1.179E+01	 1.154E+03	 4.804E-01	-5.437E-02	 0.000E+00	 1.812E+02	 2.351E+03	 2.568E+02	-1.787E+02	 6.254E+02	 3.624E+03	 8.724E+03	-5.020E+01	 1.903E+03	 9.018E+01	-1.390E+03	 1.236E+03	-9.476E+01	-3.500E+03	 2.173E+03	 4.851E+03	 7.018E+02	 9.649E+03	 9.279E+04	 7.021E+02	 7.975E-02	-1.407E-02	-7.162E-03	 2.241E-02	 1.534E-01	 3.217E-03	 4.191E+03	 3.674E+01	 1.352E-01	 3.847E+06	-1.051E+07	 3.334E-02	-6.909E-03	 2.810E-03	 3.314E-02	-8.404E-03	-6.199E-03	 1.908E-03	-6.519E-04	 2.054E-04	 1.425E-03	-1.756E-03	-8.778E-04	 2.104E+03	-1.204E+03	 7.599E+04	-2.468E+03	-5.874E+03	-2.709E+05	 4.290E+06	-1.193E+07	 1.042E+06	-4.323E+05	 3.521E+07	 1.678E+08	 8.697E+04	-1.676E+07
    1.7000	 1.170E+01	 1.255E+00	-8.126E-01	 4.762E+00	-6.952E-01	 0.000E+00	 0.000E+00	 1.202E+02	 1.170E+01	 1.137E+03	 4.788E-01	-5.115E-02	 0.000E+00	 6.827E+01	 2.284E+03	 2.535E+02	-1.709E+02	 6.336E+02	 3.254E+03	 8.522E+03	-2.778E+01	 1.644E+03	-2.650E+02	-1.297E+03	 1.227E+03	-8.563E+01	-3.494E+03	 1.884E+03	 4.805E+03	 5.595E+02	 9.613E+03	 9.273E+04	 5.597E+02	 8.141E-02	-1.403E-02	-7.123E-03	 2.307E-02	 1.555E-01	 6.914E-03	 4.126E+03	 3.669E+01	 1.189E-01	 3.986E+06	-1.060E+07	 3.429E-02	-6.902E-03	 2.986E-03	 3.430E-02	-8.056E-03	-6.209E-03	 2.098E-03	-6.415E-04	 2.330E-04	 1.673E-03	-1.985E-03	-8.596E-04	 2.164E+03	-1.244E+03	 8.931E+04	-3.592E+02	-6.628E+03	-2.004E+05	 4.409E+06	-1.200E+07	 1.090E+06	-3.052E+05	 3.271E+07	 1.721E+08	 1.616E+06	-1.667E+07