
Predictions were generated on 30-Sep-2017 at 10:29:28 using OpenFAST, compiled as a 64-bit application using double precision at commit v0.1.0-886-g076466cd
 linked with  NWTC Subroutine Library; ElastoDyn

Description from the FAST input file: FAST Certification Test #14: WindPACT 1.5 MW Baseline with stationary linearization in a vacuum

Time      
(s)       
    0.0000
