
FAST Summary File

Predictions were generated on 23-Dec-2022 at 14:45:25 using OpenFAST, compiled as a 64-bit application using double precision at commit v3.3.0-294-g5aab8a2a
  compiled with
    NWTC Subroutine Library
    ElastoDyn [not called]
    BeamDyn (unknown version, unknown date) [not called]
    Simplified-ElastoDyn (unknown version, unknown date) [not called]
    InflowWind
    AeroDyn14 (unknown version, unknown date) [not called]
    AeroDyn (unknown version, unknown date) [not called]
    AeroDisk
    ServoDyn
    HydroDyn (unknown version, unknown date) [not called]
    SubDyn (unknown version, unknown date) [not called]
    ExtPtfm_MCKF (unknown version, unknown date) [not called]
    MAP (unknown version, unknown date) [not called]
    FEAMooring (unknown version, unknown date) [not called]
    MoorDyn (unknown version, unknown date) [not called]
    OrcaFlexInterface (unknown version, unknown date) [not called]
    IceFloe (unknown version, unknown date) [not called]
    IceDyn (unknown version, unknown date) [not called]


Modeling a land-based turbine
Description from the FAST input file: 
  Based on FAST Certification Test #18: NREL 5.0 MW Baseline Wind Turbine (Onshore) with AeroDisk

Interpolation order for input/output time histories: 2 (quadratic)
Number of correction iterations:  0


   Requested Time Steps  
  -------------------------------------------------
  Component          Time Step (s)    Subcycles (-)
  -----------------  ---------------  -------------
  FAST (glue code)    6.250E-03
  InflowWind          6.250E-03              1
  ElastoDyn           6.250E-03              1
  ServoDyn            6.250E-03              1
  AeroDisk            6.250E-03              1
  FAST output files   6.250E-03              1


   Requested Channels in FAST Output File(s)  
  --------------------------------------------
  Number  Name                  Units                 Generated by
  ------  --------------------  --------------------  ------------
       1  Time                  (s)                   OpenFAST
       2  Wind1VelX             (m/s)                 InflowWind
       3  Wind1VelY             (m/s)                 InflowWind
       4  Wind1VelZ             (m/s)                 InflowWind
       5  BldPitch1             (deg)                 ElastoDyn
       6  Azimuth               (deg)                 ElastoDyn
       7  RotSpeed              (rpm)                 ElastoDyn
       8  GenSpeed              (rpm)                 ElastoDyn
       9  TTDspFA               (m)                   ElastoDyn
      10  TTDspSS               (m)                   ElastoDyn
      11  TTDspTwst             (deg)                 ElastoDyn
      12  RotTorq               (kN-m)                ElastoDyn
      13  LSSGagMya             (kN-m)                ElastoDyn
      14  LSSGagMza             (kN-m)                ElastoDyn
      15  YawBrFxp              (kN)                  ElastoDyn
      16  YawBrFyp              (kN)                  ElastoDyn
      17  YawBrFzp              (kN)                  ElastoDyn
      18  YawBrMxp              (kN-m)                ElastoDyn
      19  YawBrMyp              (kN-m)                ElastoDyn
      20  YawBrMzp              (kN-m)                ElastoDyn
      21  TwrBsFxt              (kN)                  ElastoDyn
      22  TwrBsFyt              (kN)                  ElastoDyn
      23  TwrBsFzt              (kN)                  ElastoDyn
      24  TwrBsMxt              (kN-m)                ElastoDyn
      25  TwrBsMyt              (kN-m)                ElastoDyn
      26  TwrBsMzt              (kN-m)                ElastoDyn
      27  ADSpeed               (rpm)                 ServoDyn
      28  ADTSR                 (-)                   ServoDyn
      29  ADPitch               (deg)                 AeroDisk
      30  ADVWindx              (m/s)                 AeroDisk
      31  ADVWindy              (m/s)                 AeroDisk
      32  ADVWindz              (m/s)                 AeroDisk
      33  ADSTVx                (m/s)                 AeroDisk
      34  ADSTVy                (m/s)                 AeroDisk
      35  ADSTVz                (m/s)                 AeroDisk
      36  ADVRel                (m/s)                 AeroDisk
      37  ADSkew                (deg)                 AeroDisk
      38  ADCp                  (-)                   AeroDisk
      39  ADCt                  (-)                   AeroDisk
      40  ADCq                  (-)                   AeroDisk
      41  ADFx                  (N)                   AeroDisk
      42  ADFy                  (N)                   AeroDisk
      43  ADFz                  (N)                   AeroDisk
      44  ADMx                  (N-m)                 AeroDisk
      45  ADMy                  (N-m)                 AeroDisk
      46  ADMz                  (N-m)                 AeroDisk
      47  ADPower               (W)                   AeroDisk
      48  GenPwr                (kW)                  AeroDisk
      49  GenTq                 (kN-m)                AeroDisk
