
FAST Summary File

Predictions were generated on 01-Nov-2022 at 17:46:25 using OpenFAST, compiled as a 64-bit application using double precision at commit v3.3.0-249-g56d78904-dirty
  compiled with
    NWTC Subroutine Library
    ElastoDyn [not called]
    BeamDyn (unknown version, unknown date) [not called]
    Simplified-ElastoDyn (unknown version, unknown date) [not called]
    InflowWind
    AeroDyn14 (unknown version, unknown date) [not called]
    AeroDyn (unknown version, unknown date) [not called]
    AeroDisk
    ServoDyn
    HydroDyn (unknown version, unknown date) [not called]
    SubDyn (unknown version, unknown date) [not called]
    ExtPtfm_MCKF (unknown version, unknown date) [not called]
    MAP (unknown version, unknown date) [not called]
    FEAMooring (unknown version, unknown date) [not called]
    MoorDyn (unknown version, unknown date) [not called]
    OrcaFlexInterface (unknown version, unknown date) [not called]
    IceFloe (unknown version, unknown date) [not called]
    IceDyn (unknown version, unknown date) [not called]


Modeling a land-based turbine
Description from the FAST input file: 
  Based on FAST Certification Test #18: NREL 5.0 MW Baseline Wind Turbine (Onshore) with AeroDisk

Interpolation order for input/output time histories: 2 (quadratic)
Number of correction iterations:  0


   Requested Time Steps  
  -------------------------------------------------
  Component          Time Step (s)    Subcycles (-)
  -----------------  ---------------  -------------
  FAST (glue code)    6.250E-03
  InflowWind          6.250E-03              1
  ElastoDyn           6.250E-03              1
  ServoDyn            6.250E-03              1
  AeroDisk            6.250E-03              1
  FAST output files   6.250E-03              1


   Requested Channels in FAST Output File(s)  
  --------------------------------------------
  Number  Name                  Units                 Generated by
  ------  --------------------  --------------------  ------------
       1  Time                  (s)                   OpenFAST
       2  Wind1VelX             (m/s)                 InflowWind
       3  Wind1VelY             (m/s)                 InflowWind
       4  Wind1VelZ             (m/s)                 InflowWind
       5  OoPDefl1              (m)                   ElastoDyn
       6  IPDefl1               (m)                   ElastoDyn
       7  TwstDefl1             (deg)                 ElastoDyn
       8  BldPitch1             (deg)                 ElastoDyn
       9  Azimuth               (deg)                 ElastoDyn
      10  RotSpeed              (rpm)                 ElastoDyn
      11  GenSpeed              (rpm)                 ElastoDyn
      12  TTDspFA               (m)                   ElastoDyn
      13  TTDspSS               (m)                   ElastoDyn
      14  TTDspTwst             (deg)                 ElastoDyn
      15  Spn2MLxb1             (kN-m)                ElastoDyn
      16  Spn2MLyb1             (kN-m)                ElastoDyn
      17  RootFxb1              (kN)                  ElastoDyn
      18  RootFyb1              (kN)                  ElastoDyn
      19  RootFzb1              (kN)                  ElastoDyn
      20  RootMxb1              (kN-m)                ElastoDyn
      21  RootMyb1              (kN-m)                ElastoDyn
      22  RootMzb1              (kN-m)                ElastoDyn
      23  RotTorq               (kN-m)                ElastoDyn
      24  LSSGagMya             (kN-m)                ElastoDyn
      25  LSSGagMza             (kN-m)                ElastoDyn
      26  YawBrFxp              (kN)                  ElastoDyn
      27  YawBrFyp              (kN)                  ElastoDyn
      28  YawBrFzp              (kN)                  ElastoDyn
      29  YawBrMxp              (kN-m)                ElastoDyn
      30  YawBrMyp              (kN-m)                ElastoDyn
      31  YawBrMzp              (kN-m)                ElastoDyn
      32  TwrBsFxt              (kN)                  ElastoDyn
      33  TwrBsFyt              (kN)                  ElastoDyn
      34  TwrBsFzt              (kN)                  ElastoDyn
      35  TwrBsMxt              (kN-m)                ElastoDyn
      36  TwrBsMyt              (kN-m)                ElastoDyn
      37  TwrBsMzt              (kN-m)                ElastoDyn
      38  ADSpeed               (rpm)                 ServoDyn
      39  ADTSR                 (-)                   ServoDyn
      40  ADPitch               (deg)                 AeroDisk
      41  ADVWindx              (m/s)                 AeroDisk
      42  ADVWindy              (m/s)                 AeroDisk
      43  ADVWindz              (m/s)                 AeroDisk
      44  ADSTVx                (m/s)                 AeroDisk
      45  ADSTVy                (m/s)                 AeroDisk
      46  ADSTVz                (m/s)                 AeroDisk
      47  ADVRel                (m/s)                 AeroDisk
      48  ADSkew                (deg)                 AeroDisk
      49  ADCp                  (-)                   AeroDisk
      50  ADCt                  (-)                   AeroDisk
      51  ADCq                  (-)                   AeroDisk
      52  ADFx                  (N)                   AeroDisk
      53  ADFy                  (N)                   AeroDisk
      54  ADFz                  (N)                   AeroDisk
      55  ADMx                  (N-m)                 AeroDisk
      56  ADMy                  (N-m)                 AeroDisk
      57  ADMz                  (N-m)                 AeroDisk
      58  ADPower               (W)                   AeroDisk
      59  GenPwr                (kW)                  AeroDisk
      60  GenTq                 (kN-m)                AeroDisk
