
Predictions were generated on 05-Nov-2019 at 13:41:26 using OpenFAST, compiled as a 64-bit application using double precision at commit -128-NOTFOUND
 linked with  NWTC Subroutine Library; ElastoDyn; InflowWind; AeroDyn; ServoDyn

Description from the FAST input file: FAST Certification Test #05: AWT-27CR2 with many DOFs with startup and shutdown and FF turbulence.

Time      	Wind1VelX 	Wind1VelY 	Wind1VelZ 	TipDxb1   	TipDyb1   	TipRDxb1  	TipRDyb1  	Spn3ALxb1 	Spn3ALyb1 	RotSpeed  	LSSGagV   	HSShftV   	RootFxb2  	RootFyb2  	Spn2MLxb1 	Spn2MLyb1 	LSShftTq  	HSShftTq  	LSShftPwr 	HSShftPwr 	YawBrFxn  	YawBrFyn  	YawBrFzn  	GenTq     	GenPwr    
(s)       	(m/s)     	(m/s)     	(m/s)     	(m)       	(m)       	(deg)     	(deg)     	(m/s^2)   	(m/s^2)   	(rpm)     	(rpm)     	(rpm)     	(kN)      	(kN)      	(kN-m)    	(kN-m)    	(kN-m)    	(kN-m)    	(kW)      	(kW)      	(kN)      	(kN)      	(kN)      	(kN-m)    	(kW)      
    5.0000	 1.200E+01	-0.000E+00	 0.000E+00	 5.850E-02	-7.645E-03	 5.291E-02	 5.039E-01	 1.735E-02	 6.459E-03	 1.801E-01	 1.801E-01	 4.051E+00	 2.892E+00	 1.314E-01	-4.326E-01	 5.718E+00	 3.532E-02	 1.570E-03	 6.660E-04	 6.660E-04	 1.610E+00	 6.632E-02	-7.178E+01	 0.000E+00	 0.000E+00
    5.0400	 1.200E+01	-0.000E+00	 0.000E+00	 5.881E-02	-7.689E-03	 5.325E-02	 5.074E-01	 1.317E-02	 7.461E-03	 1.805E-01	 1.805E-01	 4.062E+00	 2.903E+00	 1.341E-01	-4.290E-01	 5.747E+00	 3.815E-02	 1.695E-03	 7.212E-04	 7.211E-04	 1.540E+00	 6.784E-02	-7.178E+01	 0.000E+00	 0.000E+00
    5.0800	 1.200E+01	-0.000E+00	 0.000E+00	 5.905E-02	-7.725E-03	 5.352E-02	 5.099E-01	 1.015E-02	 8.179E-03	 1.810E-01	 1.810E-01	 4.073E+00	 2.914E+00	 1.369E-01	-4.252E-01	 5.768E+00	 3.827E-02	 1.701E-03	 7.254E-04	 7.254E-04	 1.510E+00	 6.927E-02	-7.179E+01	 0.000E+00	 0.000E+00
    5.1200	 1.200E+01	-0.000E+00	 0.000E+00	 5.917E-02	-7.746E-03	 5.367E-02	 5.109E-01	 1.019E-02	 8.639E-03	 1.815E-01	 1.815E-01	 4.083E+00	 2.924E+00	 1.399E-01	-4.208E-01	 5.777E+00	 3.486E-02	 1.549E-03	 6.624E-04	 6.625E-04	 1.520E+00	 7.055E-02	-7.179E+01	 0.000E+00	 0.000E+00
    5.1600	 1.200E+01	-0.000E+00	 0.000E+00	 5.917E-02	-7.755E-03	 5.372E-02	 5.105E-01	 1.222E-02	 8.841E-03	 1.819E-01	 1.819E-01	 4.092E+00	 2.933E+00	 1.430E-01	-4.159E-01	 5.777E+00	 2.847E-02	 1.265E-03	 5.422E-04	 5.423E-04	 1.568E+00	 7.168E-02	-7.179E+01	 0.000E+00	 0.000E+00
    5.2000	 1.200E+01	-0.000E+00	 0.000E+00	 5.913E-02	-7.759E-03	 5.374E-02	 5.096E-01	 1.286E-02	 8.772E-03	 1.822E-01	 1.822E-01	 4.100E+00	 2.943E+00	 1.462E-01	-4.110E-01	 5.774E+00	 2.075E-02	 9.222E-04	 3.958E-04	 3.959E-04	 1.651E+00	 7.270E-02	-7.180E+01	 0.000E+00	 0.000E+00
    5.2400	 1.200E+01	-0.000E+00	 0.000E+00	 5.914E-02	-7.769E-03	 5.380E-02	 5.092E-01	 7.910E-03	 8.424E-03	 1.824E-01	 1.824E-01	 4.104E+00	 2.955E+00	 1.494E-01	-4.066E-01	 5.777E+00	 1.377E-02	 6.120E-04	 2.630E-04	 2.631E-04	 1.764E+00	 7.364E-02	-7.180E+01	 0.000E+00	 0.000E+00
    5.2800	 1.200E+01	-0.000E+00	 0.000E+00	 5.929E-02	-7.795E-03	 5.397E-02	 5.103E-01	-5.770E-03	 7.818E-03	 1.825E-01	 1.826E-01	 4.108E+00	 2.971E+00	 1.524E-01	-4.032E-01	 5.793E+00	 9.268E-03	 4.119E-04	 1.772E-04	 1.772E-04	 1.900E+00	 7.457E-02	-7.180E+01	 0.000E+00	 0.000E+00
    5.3200	 1.200E+01	-0.000E+00	 0.000E+00	 5.960E-02	-7.841E-03	 5.430E-02	 5.131E-01	-2.889E-02	 7.013E-03	 1.827E-01	 1.827E-01	 4.110E+00	 2.990E+00	 1.552E-01	-4.009E-01	 5.824E+00	 8.024E-03	 3.566E-04	 1.535E-04	 1.535E-04	 2.049E+00	 7.551E-02	-7.181E+01	 0.000E+00	 0.000E+00
    5.3600	 1.200E+01	-0.000E+00	 0.000E+00	 6.006E-02	-7.903E-03	 5.476E-02	 5.176E-01	-5.922E-02	 6.113E-03	 1.828E-01	 1.828E-01	 4.113E+00	 3.011E+00	 1.579E-01	-3.995E-01	 5.868E+00	 9.632E-03	 4.281E-04	 1.844E-04	 1.844E-04	 2.203E+00	 7.649E-02	-7.182E+01	 0.000E+00	 0.000E+00
    5.4000	 1.200E+01	-0.000E+00	 0.000E+00	 6.059E-02	-7.975E-03	 5.528E-02	 5.230E-01	-9.217E-02	 5.250E-03	 1.829E-01	 1.829E-01	 4.116E+00	 3.034E+00	 1.605E-01	-3.985E-01	 5.919E+00	 1.270E-02	 5.643E-04	 2.432E-04	 2.432E-04	 2.350E+00	 7.747E-02	-7.184E+01	 0.000E+00	 0.000E+00
    5.4400	 1.200E+01	-0.000E+00	 0.000E+00	 6.111E-02	-8.044E-03	 5.579E-02	 5.282E-01	-1.221E-01	 4.559E-03	 1.831E-01	 1.831E-01	 4.120E+00	 3.055E+00	 1.631E-01	-3.974E-01	 5.967E+00	 1.537E-02	 6.833E-04	 2.948E-04	 2.948E-04	 2.480E+00	 7.842E-02	-7.185E+01	 0.000E+00	 0.000E+00
    5.4800	 1.200E+01	-0.000E+00	 0.000E+00	 6.152E-02	-8.101E-03	 5.621E-02	 5.323E-01	-1.442E-01	 4.155E-03	 1.833E-01	 1.833E-01	 4.124E+00	 3.073E+00	 1.658E-01	-3.954E-01	 6.004E+00	 1.604E-02	 7.128E-04	 3.079E-04	 3.079E-04	 2.584E+00	 7.929E-02	-7.186E+01	 0.000E+00	 0.000E+00
    5.5200	 1.200E+01	-0.000E+00	 0.000E+00	 6.178E-02	-8.139E-03	 5.648E-02	 5.346E-01	-1.556E-01	 4.113E-03	 1.835E-01	 1.835E-01	 4.129E+00	 3.087E+00	 1.688E-01	-3.922E-01	 6.027E+00	 1.383E-02	 6.145E-04	 2.657E-04	 2.657E-04	 2.654E+00	 8.008E-02	-7.186E+01	 0.000E+00	 0.000E+00
    5.5600	 1.200E+01	-0.000E+00	 0.000E+00	 6.187E-02	-8.159E-03	 5.662E-02	 5.352E-01	-1.561E-01	 4.459E-03	 1.836E-01	 1.836E-01	 4.132E+00	 3.097E+00	 1.718E-01	-3.879E-01	 6.034E+00	 8.894E-03	 3.953E-04	 1.710E-04	 1.710E-04	 2.687E+00	 8.081E-02	-7.187E+01	 0.000E+00	 0.000E+00
    5.6000	 1.200E+01	-0.000E+00	 0.000E+00	 6.184E-02	-8.164E-03	 5.664E-02	 5.346E-01	-1.480E-01	 5.174E-03	 1.837E-01	 1.837E-01	 4.134E+00	 3.103E+00	 1.750E-01	-3.825E-01	 6.031E+00	 2.280E-03	 1.013E-04	 4.385E-05	 4.385E-05	 2.681E+00	 8.150E-02	-7.187E+01	 0.000E+00	 0.000E+00
    5.6400	 1.200E+01	-0.000E+00	 0.000E+00	 6.177E-02	-8.163E-03	 5.663E-02	 5.335E-01	-1.350E-01	 6.207E-03	 1.837E-01	 1.837E-01	 4.133E+00	 3.107E+00	 1.783E-01	-3.767E-01	 6.024E+00	-4.521E-03	-2.010E-04	-8.696E-05	-8.698E-05	 2.637E+00	 8.224E-02	-7.186E+01	 0.000E+00	 0.000E+00
    5.6800	 1.200E+01	-0.000E+00	 0.000E+00	 6.170E-02	-8.164E-03	 5.663E-02	 5.327E-01	-1.206E-01	 7.496E-03	 1.836E-01	 1.836E-01	 4.131E+00	 3.111E+00	 1.815E-01	-3.708E-01	 6.019E+00	-1.012E-02	-4.499E-04	-1.946E-04	-1.946E-04	 2.560E+00	 8.309E-02	-7.186E+01	 0.000E+00	 0.000E+00
    5.7200	 1.200E+01	-0.000E+00	 0.000E+00	 6.171E-02	-8.172E-03	 5.669E-02	 5.326E-01	-1.075E-01	 8.977E-03	 1.834E-01	 1.835E-01	 4.128E+00	 3.114E+00	 1.846E-01	-3.650E-01	 6.020E+00	-1.373E-02	-6.102E-04	-2.638E-04	-2.638E-04	 2.454E+00	 8.407E-02	-7.186E+01	 0.000E+00	 0.000E+00
    5.7600	 1.200E+01	-0.000E+00	 0.000E+00	 6.178E-02	-8.189E-03	 5.682E-02	 5.335E-01	-9.622E-02	 1.060E-02	 1.833E-01	 1.833E-01	 4.123E+00	 3.118E+00	 1.876E-01	-3.596E-01	 6.028E+00	-1.538E-02	-6.838E-04	-2.952E-04	-2.953E-04	 2.325E+00	 8.521E-02	-7.186E+01	 0.000E+00	 0.000E+00
    5.8000	 1.200E+01	-0.000E+00	 0.000E+00	 6.190E-02	-8.210E-03	 5.698E-02	 5.348E-01	-8.581E-02	 1.231E-02	 1.831E-01	 1.831E-01	 4.119E+00	 3.121E+00	 1.905E-01	-3.543E-01	 6.039E+00	-1.588E-02	-7.059E-04	-3.045E-04	-3.045E-04	 2.181E+00	 8.648E-02	-7.186E+01	 0.000E+00	 0.000E+00
    5.8400	 1.200E+01	-0.000E+00	 0.000E+00	 6.202E-02	-8.231E-03	 5.715E-02	 5.362E-01	-7.433E-02	 1.407E-02	 1.829E-01	 1.829E-01	 4.114E+00	 3.125E+00	 1.935E-01	-3.489E-01	 6.049E+00	-1.644E-02	-7.306E-04	-3.148E-04	-3.148E-04	 2.029E+00	 8.783E-02	-7.186E+01	 0.000E+00	 0.000E+00
    5.8800	 1.200E+01	-0.000E+00	 0.000E+00	 6.208E-02	-8.245E-03	 5.726E-02	 5.369E-01	-6.007E-02	 1.585E-02	 1.826E-01	 1.826E-01	 4.109E+00	 3.127E+00	 1.964E-01	-3.431E-01	 6.053E+00	-1.820E-02	-8.090E-04	-3.481E-04	-3.482E-04	 1.878E+00	 8.920E-02	-7.186E+01	 0.000E+00	 0.000E+00
    5.9200	 1.200E+01	-0.000E+00	 0.000E+00	 6.206E-02	-8.250E-03	 5.730E-02	 5.368E-01	-4.243E-02	 1.758E-02	 1.824E-01	 1.824E-01	 4.104E+00	 3.128E+00	 1.995E-01	-3.369E-01	 6.050E+00	-2.185E-02	-9.711E-04	-4.173E-04	-4.173E-04	 1.734E+00	 9.056E-02	-7.186E+01	 0.000E+00	 0.000E+00
    5.9600	 1.200E+01	-0.000E+00	 0.000E+00	 6.196E-02	-8.246E-03	 5.727E-02	 5.357E-01	-2.245E-02	 1.920E-02	 1.821E-01	 1.821E-01	 4.097E+00	 3.128E+00	 2.027E-01	-3.303E-01	 6.040E+00	-2.734E-02	-1.215E-03	-5.211E-04	-5.212E-04	 1.606E+00	 9.187E-02	-7.186E+01	 0.000E+00	 0.000E+00
    6.0000	 1.200E+01	-0.000E+00	 0.000E+00	 6.182E-02	-8.237E-03	 5.720E-02	 5.342E-01	-2.648E-03	 2.064E-02	 1.817E-01	 1.817E-01	 4.088E+00	 3.128E+00	 2.059E-01	-3.236E-01	 6.027E+00	-3.395E-02	-1.509E-03	-6.459E-04	-6.460E-04	 1.501E+00	 9.314E-02	-7.185E+01	-1.104E+01	-3.045E+03
    6.0400	 1.200E+01	-0.000E+00	 0.000E+00	 6.391E-02	 2.760E-02	-2.164E-01	 6.435E-01	-1.668E+00	-3.359E+01	 1.795E+00	 2.469E+00	 5.554E+01	 4.361E+00	 1.286E+01	-3.364E+01	 4.917E+00	-1.636E+02	-7.273E+00	-3.076E+01	-4.230E+01	 2.447E+00	-5.950E+00	-7.313E+01	-1.131E+01	-3.046E+03
    6.0800	 1.200E+01	-0.000E+00	 0.000E+00	 5.823E-02	 3.739E-02	-2.842E-01	 7.828E-01	 6.267E+00	-3.527E+01	 3.369E+00	 3.397E+00	 7.644E+01	 3.262E+00	 1.347E+01	-3.554E+01	 3.134E+00	-1.740E+02	-7.734E+00	-6.139E+01	-6.191E+01	 1.890E+00	-1.539E-01	-7.210E+01	-1.142E+01	-3.046E+03
    6.1200	 1.200E+01	-0.000E+00	 0.000E+00	 3.117E-02	 2.333E-02	-1.807E-01	 3.416E-01	 3.132E+00	-2.442E+01	 5.153E+00	 4.920E+00	 1.107E+02	 3.094E+00	 9.028E+00	-2.161E+01	 1.842E+00	-1.102E+02	-4.898E+00	-5.947E+01	-5.677E+01	 9.077E-01	 6.335E-02	-7.197E+01	-1.160E+01	-3.045E+03
    6.1600	 1.200E+01	-0.000E+00	 0.000E+00	 7.689E-03	 2.484E-02	-1.977E-01	-6.327E-02	-1.417E-01	-2.495E+01	 6.854E+00	 6.895E+00	 1.551E+02	 3.343E+00	 9.860E+00	-2.292E+01	 3.986E-01	-1.179E+02	-5.238E+00	-8.460E+01	-8.510E+01	 1.446E+00	-6.628E+00	-7.252E+01	-1.184E+01	-3.043E+03
    6.2000	 1.200E+01	-0.000E+00	 0.000E+00	 6.433E-03	 3.075E-02	-2.369E-01	 8.984E-02	 6.594E+00	-2.850E+01	 8.532E+00	 8.631E+00	 1.942E+02	 2.521E+00	 1.205E+01	-2.677E+01	-6.070E-01	-1.441E+02	-6.402E+00	-1.287E+02	-1.302E+02	 1.677E+00	-3.596E+00	-7.218E+01	-1.206E+01	-3.039E+03
    6.2400	 1.200E+01	-0.000E+00	 0.000E+00	 1.281E-02	 3.164E-02	-2.434E-01	 1.736E-01	 5.708E+00	-3.026E+01	 1.026E+01	 1.026E+01	 2.309E+02	 2.896E+00	 1.178E+01	-2.782E+01	 9.843E-02	-1.434E+02	-6.375E+00	-1.542E+02	-1.541E+02	 9.699E-01	 1.899E+00	-7.273E+01	-1.226E+01	-3.035E+03
    6.2800	 1.200E+01	-0.000E+00	 0.000E+00	 2.417E-02	 2.910E-02	-2.275E-01	 2.051E-01	 2.211E+00	-2.993E+01	 1.206E+01	 1.203E+01	 2.707E+02	 3.694E+00	 1.133E+01	-2.720E+01	 1.720E+00	-1.361E+02	-6.050E+00	-1.719E+02	-1.715E+02	 1.512E+00	-1.227E+00	-7.375E+01	-1.249E+01	-3.028E+03
    6.3200	 1.200E+01	-0.000E+00	 0.000E+00	 4.312E-02	 2.462E-02	-1.913E-01	 4.636E-01	 4.449E+00	-2.850E+01	 1.389E+01	 1.390E+01	 3.128E+02	 3.672E+00	 1.238E+01	-2.514E+01	 3.257E+00	-1.394E+02	-6.196E+00	-2.027E+02	-2.030E+02	 2.738E+00	-4.126E+00	-7.458E+01	-1.273E+01	-3.019E+03
    6.3600	 1.200E+01	-0.000E+00	 0.000E+00	 5.790E-02	 2.355E-02	-1.825E-01	 6.424E-01	 4.327E+00	-3.004E+01	 1.572E+01	 1.575E+01	 3.545E+02	 4.062E+00	 1.319E+01	-2.619E+01	 4.513E+00	-1.477E+02	-6.565E+00	-2.432E+02	-2.437E+02	 2.790E+00	-3.357E-01	-7.562E+01	-1.296E+01	-3.007E+03
    6.4000	 1.200E+01	-0.000E+00	 0.000E+00	 6.237E-02	 2.665E-02	-2.074E-01	 6.680E-01	 3.554E+00	-3.342E+01	 1.757E+01	 1.759E+01	 3.957E+02	 4.593E+00	 1.315E+01	-2.955E+01	 4.880E+00	-1.523E+02	-6.769E+00	-2.801E+02	-2.805E+02	 2.691E+00	 2.370E+00	-7.607E+01	-1.319E+01	-2.992E+03
    6.4400	 1.200E+01	-0.000E+00	 0.000E+00	 5.717E-02	 2.822E-02	-2.183E-01	 6.433E-01	 6.208E+00	-3.413E+01	 1.943E+01	 1.944E+01	 4.375E+02	 4.430E+00	 1.355E+01	-2.983E+01	 4.137E+00	-1.548E+02	-6.879E+00	-3.149E+02	-3.152E+02	 3.369E+00	 5.722E-01	-7.616E+01	-1.342E+01	-2.973E+03
    6.4800	 1.200E+01	-0.000E+00	 0.000E+00	 4.178E-02	 2.861E-02	-2.213E-01	 4.673E-01	 7.735E+00	-3.393E+01	 2.128E+01	 2.132E+01	 4.796E+02	 4.271E+00	 1.458E+01	-2.866E+01	 2.786E+00	-1.611E+02	-7.162E+00	-3.592E+02	-3.597E+02	 3.789E+00	 3.221E-01	-7.674E+01	-1.364E+01	-2.950E+03
    6.5200	 1.200E+01	-0.000E+00	 0.000E+00	 2.266E-02	 3.241E-02	-2.512E-01	 2.359E-01	 8.883E+00	-3.645E+01	 2.310E+01	 2.314E+01	 5.207E+02	 4.330E+00	 1.528E+01	-3.041E+01	 1.139E+00	-1.705E+02	-7.576E+00	-4.123E+02	-4.131E+02	 3.701E+00	 3.200E+00	-7.676E+01	-1.384E+01	-2.921E+03
    6.5600	 1.200E+01	-0.000E+00	 0.000E+00	 7.508E-03	 3.799E-02	-2.925E-01	 1.117E-01	 1.224E+01	-3.978E+01	 2.487E+01	 2.491E+01	 5.605E+02	 4.217E+00	 1.550E+01	-3.338E+01	-4.655E-01	-1.781E+02	-7.915E+00	-4.639E+02	-4.645E+02	 3.897E+00	 4.823E+00	-7.578E+01	-1.401E+01	-2.888E+03
    6.6000	 1.200E+01	-0.000E+00	 0.000E+00	-2.283E-03	 4.005E-02	-3.079E-01	 1.582E-02	 1.421E+01	-4.096E+01	 2.659E+01	 2.663E+01	 5.992E+02	 4.286E+00	 1.623E+01	-3.376E+01	-1.258E+00	-1.857E+02	-8.253E+00	-5.171E+02	-5.179E+02	 4.546E+00	 4.586E+00	-7.540E+01	-1.415E+01	-2.849E+03
    6.6400	 1.200E+01	-0.000E+00	 0.000E+00	-4.679E-03	 3.978E-02	-3.065E-01	-3.147E-02	 1.507E+01	-4.185E+01	 2.824E+01	 2.828E+01	 6.364E+02	 4.684E+00	 1.711E+01	-3.349E+01	-1.169E+00	-1.941E+02	-8.625E+00	-5.740E+02	-5.748E+02	 5.383E+00	 5.820E+00	-7.519E+01	-1.426E+01	-2.805E+03
    6.6800	 1.200E+01	-0.000E+00	 0.000E+00	 5.993E-04	 4.161E-02	-3.195E-01	 5.994E-02	 1.766E+01	-4.457E+01	 2.982E+01	 2.986E+01	 6.718E+02	 5.162E+00	 1.739E+01	-3.576E+01	-7.603E-01	-2.027E+02	-9.008E+00	-6.328E+02	-6.337E+02	 6.282E+00	 8.328E+00	-7.355E+01	-1.433E+01	-2.755E+03
    6.7200	 1.200E+01	-0.000E+00	 0.000E+00	 4.628E-03	 4.427E-02	-3.380E-01	 1.582E-01	 2.115E+01	-4.699E+01	 3.130E+01	 3.134E+01	 7.051E+02	 5.497E+00	 1.749E+01	-3.811E+01	-6.305E-01	-2.104E+02	-9.349E+00	-6.895E+02	-6.903E+02	 7.015E+00	 9.539E+00	-7.122E+01	-1.436E+01	-2.701E+03
    6.7600	 1.200E+01	-0.000E+00	 0.000E+00	-3.402E-03	 4.598E-02	-3.504E-01	 8.823E-02	 2.432E+01	-4.771E+01	 3.271E+01	 3.274E+01	 7.365E+02	 5.554E+00	 1.765E+01	-3.848E+01	-1.436E+00	-2.155E+02	-9.576E+00	-7.381E+02	-7.386E+02	 7.668E+00	 9.744E+00	-6.920E+01	-1.435E+01	-2.641E+03
    6.8000	 1.200E+01	-0.000E+00	 0.000E+00	-2.571E-02	 4.909E-02	-3.739E-01	-1.489E-01	 2.805E+01	-4.834E+01	 3.406E+01	 3.407E+01	 7.666E+02	 5.250E+00	 1.754E+01	-3.886E+01	-3.533E+00	-2.186E+02	-9.718E+00	-7.798E+02	-7.801E+02	 8.308E+00	 1.038E+01	-6.698E+01	-1.428E+01	-2.576E+03
    6.8400	 1.200E+01	-0.000E+00	 0.000E+00	-5.626E-02	 5.393E-02	-4.103E-01	-4.706E-01	 3.227E+01	-4.921E+01	 3.535E+01	 3.535E+01	 7.955E+02	 4.752E+00	 1.707E+01	-3.970E+01	-6.378E+00	-2.201E+02	-9.783E+00	-8.148E+02	-8.149E+02	 8.608E+00	 1.086E+01	-6.455E+01	-1.417E+01	-2.505E+03
    6.8800	 1.200E+01	-0.000E+00	 0.000E+00	-8.469E-02	 5.705E-02	-4.339E-01	-7.820E-01	 3.598E+01	-4.878E+01	 3.661E+01	 3.660E+01	 8.235E+02	 4.296E+00	 1.649E+01	-3.913E+01	-8.774E+00	-2.178E+02	-9.682E+00	-8.352E+02	-8.349E+02	 8.715E+00	 1.021E+01	-6.291E+01	-1.401E+01	-2.427E+03
    6.9200	 1.200E+01	-0.000E+00	 0.000E+00	-1.022E-01	 5.710E-02	-4.337E-01	-9.649E-01	 3.973E+01	-4.680E+01	 3.787E+01	 3.784E+01	 8.515E+02	 3.913E+00	 1.584E+01	-3.714E+01	-1.013E+01	-2.114E+02	-9.398E+00	-8.387E+02	-8.380E+02	 9.206E+00	 9.080E+00	-6.237E+01	-1.378E+01	-2.340E+03
    6.9600	 1.200E+01	-0.000E+00	 0.000E+00	-1.060E-01	 5.567E-02	-4.223E-01	-1.000E+00	 4.237E+01	-4.465E+01	 3.916E+01	 3.911E+01	 8.801E+02	 3.823E+00	 1.486E+01	-3.559E+01	-1.018E+01	-2.021E+02	-8.982E+00	-8.287E+02	-8.278E+02	 1.011E+01	 8.079E+00	-6.229E+01	-1.347E+01	-2.239E+03
    7.0000	 1.200E+01	-0.000E+00	 0.000E+00	-9.872E-02	 5.301E-02	-4.016E-01	-9.115E-01	 4.448E+01	-4.278E+01	 4.048E+01	 4.042E+01	 9.095E+02	 3.775E+00	 1.356E+01	-3.387E+01	-9.363E+00	-1.895E+02	-8.423E+00	-8.034E+02	-8.022E+02	 1.093E+01	 6.631E+00	-6.290E+01	-1.306E+01	-2.122E+03
    7.0400	 1.200E+01	-0.000E+00	 0.000E+00	-8.676E-02	 4.739E-02	-3.592E-01	-8.045E-01	 4.468E+01	-4.011E+01	 4.186E+01	 4.178E+01	 9.399E+02	 3.633E+00	 1.228E+01	-2.995E+01	-7.950E+00	-1.726E+02	-7.670E+00	-7.565E+02	-7.550E+02	 1.183E+01	 4.677E+00	-6.477E+01	-1.251E+01	-1.986E+03
    7.0800	 1.200E+01	-0.000E+00	 0.000E+00	-7.021E-02	 4.050E-02	-3.086E-01	-6.854E-01	 4.377E+01	-3.592E+01	 4.329E+01	 4.319E+01	 9.718E+02	 3.658E+00	 1.068E+01	-2.620E+01	-5.952E+00	-1.522E+02	-6.765E+00	-6.899E+02	-6.884E+02	 1.333E+01	 2.817E+00	-6.730E+01	-1.179E+01	-1.824E+03
    7.1200	 1.200E+01	-0.000E+00	 0.000E+00	-4.565E-02	 3.590E-02	-2.743E-01	-4.366E-01	 4.405E+01	-3.309E+01	 4.472E+01	 4.463E+01	 1.004E+03	 3.806E+00	 8.537E+00	-2.522E+01	-3.477E+00	-1.332E+02	-5.918E+00	-6.236E+02	-6.223E+02	 1.488E+01	 7.493E-01	-7.011E+01	-1.087E+01	-1.639E+03
    7.1600	 1.200E+01	-0.000E+00	 0.000E+00	-1.795E-02	 3.105E-02	-2.373E-01	-1.365E-01	 4.515E+01	-2.798E+01	 4.611E+01	 4.602E+01	 1.035E+03	 3.826E+00	 6.400E+00	-2.419E+01	-8.628E-01	-1.138E+02	-5.057E+00	-5.494E+02	-5.483E+02	 1.603E+01	-1.222E+00	-7.339E+01	-9.788E+00	-1.438E+03
    7.2000	 1.200E+01	-0.000E+00	 0.000E+00	 1.029E-02	 2.716E-02	-2.100E-01	 1.141E-01	 4.402E+01	-2.421E+01	 4.739E+01	 4.731E+01	 1.064E+03	 4.284E+00	 4.128E+00	-2.446E+01	 2.100E+00	-9.731E+01	-4.325E+00	-4.829E+02	-4.821E+02	 1.763E+01	-3.013E+00	-7.652E+01	-8.584E+00	-1.231E+03
    7.2400	 1.200E+01	-0.000E+00	 0.000E+00	 3.699E-02	 2.041E-02	-1.595E-01	 3.721E-01	 4.452E+01	-2.167E+01	 4.856E+01	 4.847E+01	 1.091E+03	 4.208E+00	 2.313E+00	-2.070E+01	 4.834E+00	-7.787E+01	-3.461E+00	-3.960E+02	-3.952E+02	 1.937E+01	-3.539E+00	-7.895E+01	-7.327E+00	-1.028E+03
    7.2800	 1.200E+01	-0.000E+00	 0.000E+00	 5.934E-02	 9.913E-03	-8.280E-02	 5.124E-01	 4.255E+01	-1.614E+01	 4.962E+01	 4.953E+01	 1.114E+03	 3.843E+00	 1.139E+00	-1.437E+01	 7.574E+00	-5.684E+01	-2.526E+00	-2.954E+02	-2.948E+02	 2.094E+01	-2.980E+00	-7.888E+01	-6.021E+00	-8.276E+02
    7.3200	 1.200E+01	-0.000E+00	 0.000E+00	 8.697E-02	 4.249E-03	-4.550E-02	 6.577E-01	 3.656E+01	-1.340E+01	 5.052E+01	 5.045E+01	 1.135E+03	 4.103E+00	-6.963E-01	-1.410E+01	 1.086E+01	-4.150E+01	-1.844E+00	-2.196E+02	-2.192E+02	 2.287E+01	-3.167E+00	-7.818E+01	-4.755E+00	-6.427E+02
    7.3600	 1.200E+01	-0.000E+00	 0.000E+00	 1.275E-01	 1.649E-03	-2.919E-02	 1.020E+00	 3.223E+01	-1.287E+01	 5.125E+01	 5.119E+01	 1.152E+03	 4.542E+00	-2.693E+00	-1.668E+01	 1.479E+01	-3.016E+01	-1.340E+00	-1.619E+02	-1.617E+02	 2.565E+01	-3.717E+00	-7.793E+01	-3.643E+00	-4.862E+02
    7.4000	 1.200E+01	-0.000E+00	 0.000E+00	 1.713E-01	-5.560E-03	 2.392E-02	 1.450E+00	 2.735E+01	-9.300E+00	 5.182E+01	 5.178E+01	 1.165E+03	 4.838E+00	-3.288E+00	-1.490E+01	 1.885E+01	-2.057E+01	-9.140E-01	-1.116E+02	-1.115E+02	 2.852E+01	-3.125E+00	-7.536E+01	-2.711E+00	-3.591E+02
    7.4400	 1.200E+01	-0.000E+00	 0.000E+00	 2.021E-01	-1.343E-02	 8.402E-02	 1.780E+00	 2.334E+01	-4.870E+00	 5.226E+01	 5.223E+01	 1.175E+03	 4.600E+00	-3.064E+00	-1.148E+01	 2.146E+01	-1.395E+01	-6.200E-01	-7.635E+01	-7.630E+01	 2.971E+01	-2.029E+00	-7.113E+01	-1.962E+00	-2.592E+02
    7.4800	 1.200E+01	-0.000E+00	 0.000E+00	 2.037E-01	-1.471E-02	 9.587E-02	 1.850E+00	 2.209E+01	-2.895E+00	 5.257E+01	 5.255E+01	 1.182E+03	 3.650E+00	-3.114E+00	-1.058E+01	 2.088E+01	-1.050E+01	-4.665E-01	-5.779E+01	-5.777E+01	 2.966E+01	-1.921E+00	-6.824E+01	-1.403E+00	-1.859E+02
    7.5200	 1.200E+01	-0.000E+00	 0.000E+00	 1.712E-01	-1.117E-02	 7.005E-02	 1.521E+00	 2.120E+01	-1.794E+00	 5.279E+01	 5.278E+01	 1.188E+03	 2.332E+00	-3.166E+00	-9.954E+00	 1.731E+01	-7.864E+00	-3.495E-01	-4.348E+01	-4.347E+01	 2.980E+01	-2.273E+00	-6.669E+01	-1.006E+00	-1.345E+02
    7.5600	 1.200E+01	-0.000E+00	 0.000E+00	 1.199E-01	-7.507E-03	 4.240E-02	 9.549E-01	 2.067E+01	 8.339E-02	 5.295E+01	 5.294E+01	 1.191E+03	 8.550E-01	-2.767E+00	-7.543E+00	 1.246E+01	-5.297E+00	-2.354E-01	-2.937E+01	-2.937E+01	 2.940E+01	-1.870E+00	-6.561E+01	-7.165E-01	-9.733E+01
    7.6000	 1.200E+01	-0.000E+00	 0.000E+00	 7.362E-02	-4.319E-03	 1.920E-02	 4.667E-01	 2.149E+01	 1.247E+00	 5.308E+01	 5.306E+01	 1.194E+03	-4.381E-01	-2.387E+00	-5.460E+00	 8.190E+00	-2.596E+00	-1.154E-01	-1.443E+01	-1.442E+01	 2.781E+01	-8.894E-01	-6.578E+01	-4.964E-01	-6.927E+01
    7.6400	 1.200E+01	-0.000E+00	 0.000E+00	 4.741E-02	-2.129E-03	 3.530E-03	 2.016E-01	 2.212E+01	 1.098E+00	 5.319E+01	 5.317E+01	 1.196E+03	-1.023E+00	-2.378E+00	-4.642E+00	 5.860E+00	 1.888E+00	 8.393E-02	 1.052E+01	 1.051E+01	 2.663E+01	 2.904E-01	-6.729E+01	-3.010E-01	-4.448E+01
    7.6800	 1.200E+01	-0.000E+00	 0.000E+00	 4.601E-02	-3.786E-03	 1.578E-02	 1.714E-01	 2.183E+01	 1.181E+00	 5.332E+01	 5.329E+01	 1.199E+03	-8.102E-01	-2.312E+00	-3.164E+00	 6.064E+00	 8.435E+00	 3.749E-01	 4.710E+01	 4.707E+01	 2.670E+01	 1.878E+00	-6.898E+01	-8.028E-02	-1.661E+01
    7.7200	 1.200E+01	-0.000E+00	 0.000E+00	 6.812E-02	-9.761E-03	 5.994E-02	 3.700E-01	 2.151E+01	 1.808E+00	 5.346E+01	 5.343E+01	 1.202E+03	 2.443E-02	-1.922E+00	-7.541E-01	 8.612E+00	 1.493E+01	 6.637E-01	 8.359E+01	 8.354E+01	 2.684E+01	 3.672E+00	-7.057E+01	 1.735E-01	 1.525E+01
    7.7600	 1.200E+01	-0.000E+00	 0.000E+00	 1.069E-01	-1.752E-02	 1.175E-01	 7.479E-01	 2.211E+01	 2.021E+00	 5.359E+01	 5.357E+01	 1.205E+03	 1.317E+00	-1.462E+00	 1.217E+00	 1.270E+01	 2.047E+01	 9.097E-01	 1.149E+02	 1.148E+02	 2.665E+01	 5.295E+00	-7.215E+01	 4.335E-01	 4.769E+01
    7.8000	 1.200E+01	-0.000E+00	 0.000E+00	 1.496E-01	-2.523E-02	 1.751E-01	 1.182E+00	 2.438E+01	 1.900E+00	 5.372E+01	 5.370E+01	 1.208E+03	 2.734E+00	-9.798E-01	 2.851E+00	 1.698E+01	 2.543E+01	 1.130E+00	 1.431E+02	 1.430E+02	 2.683E+01	 6.778E+00	-7.336E+01	 6.838E-01	 7.872E+01
    7.8400	 1.200E+01	-0.000E+00	 0.000E+00	 1.809E-01	-3.191E-02	 2.251E-01	 1.496E+00	 2.735E+01	 2.047E+00	 5.383E+01	 5.382E+01	 1.211E+03	 3.841E+00	-3.082E-01	 4.873E+00	 2.006E+01	 2.925E+01	 1.300E+00	 1.649E+02	 1.649E+02	 2.701E+01	 8.053E+00	-7.411E+01	 9.129E-01	 1.070E+02
    7.8800	 1.200E+01	-0.000E+00	 0.000E+00	 1.910E-01	-3.582E-02	 2.539E-01	 1.574E+00	 3.022E+01	 2.089E+00	 5.393E+01	 5.391E+01	 1.213E+03	 4.407E+00	 4.039E-01	 6.648E+00	 2.112E+01	 3.146E+01	 1.398E+00	 1.777E+02	 1.776E+02	 2.649E+01	 8.849E+00	-7.426E+01	 1.102E+00	 1.301E+02
    7.9200	 1.200E+01	-0.000E+00	 0.000E+00	 1.811E-01	-3.625E-02	 2.564E-01	 1.440E+00	 3.280E+01	 1.595E+00	 5.399E+01	 5.399E+01	 1.215E+03	 4.494E+00	 9.468E-01	 7.631E+00	 2.026E+01	 3.238E+01	 1.439E+00	 1.831E+02	 1.831E+02	 2.568E+01	 9.113E+00	-7.356E+01	 1.238E+00	 1.468E+02
    7.9600	 1.200E+01	-0.000E+00	 0.000E+00	 1.611E-01	-3.494E-02	 2.463E-01	 1.212E+00	 3.516E+01	 1.070E+00	 5.403E+01	 5.403E+01	 1.216E+03	 4.330E+00	 1.397E+00	 8.444E+00	 1.849E+01	 3.246E+01	 1.443E+00	 1.837E+02	 1.837E+02	 2.512E+01	 8.844E+00	-7.237E+01	 1.326E+00	 1.575E+02
    8.0000	 1.200E+01	-0.000E+00	 0.000E+00	 1.425E-01	-3.385E-02	 2.384E-01	 1.014E+00	 3.707E+01	 9.771E-01	 5.405E+01	 5.405E+01	 1.216E+03	 4.125E+00	 1.838E+00	 9.467E+00	 1.693E+01	 3.197E+01	 1.421E+00	 1.810E+02	 1.810E+02	 2.474E+01	 7.889E+00	-7.124E+01	 1.371E+00	 1.630E+02
    8.0400	 1.200E+01	-0.000E+00	 0.000E+00	 1.326E-01	-3.326E-02	 2.348E-01	 9.282E-01	 3.867E+01	 9.488E-01	 5.406E+01	 5.406E+01	 1.216E+03	 4.008E+00	 2.072E+00	 1.007E+01	 1.611E+01	 3.142E+01	 1.396E+00	 1.779E+02	 1.779E+02	 2.453E+01	 6.341E+00	-7.020E+01	 1.386E+00	 1.648E+02
    8.0800	 1.200E+01	-0.000E+00	 0.000E+00	 1.315E-01	-3.277E-02	 2.320E-01	 9.415E-01	 3.954E+01	 6.904E-01	 5.406E+01	 5.406E+01	 1.216E+03	 4.061E+00	 1.964E+00	 9.851E+00	 1.603E+01	 3.119E+01	 1.386E+00	 1.766E+02	 1.766E+02	 2.478E+01	 4.531E+00	-6.925E+01	 1.387E+00	 1.650E+02
    8.1200	 1.200E+01	-0.000E+00	 0.000E+00	 1.360E-01	-3.245E-02	 2.300E-01	 1.003E+00	 3.951E+01	 4.475E-01	 5.406E+01	 5.406E+01	 1.216E+03	 4.243E+00	 1.592E+00	 9.220E+00	 1.647E+01	 3.139E+01	 1.395E+00	 1.777E+02	 1.777E+02	 2.549E+01	 2.592E+00	-6.867E+01	 1.388E+00	 1.651E+02
    8.1600	 1.200E+01	-0.000E+00	 0.000E+00	 1.428E-01	-3.216E-02	 2.279E-01	 1.084E+00	 3.920E+01	 3.431E-01	 5.407E+01	 5.407E+01	 1.216E+03	 4.449E+00	 1.012E+00	 8.386E+00	 1.708E+01	 3.192E+01	 1.419E+00	 1.807E+02	 1.807E+02	 2.636E+01	 5.241E-01	-6.857E+01	 1.396E+00	 1.661E+02
    8.2000	 1.200E+01	-0.000E+00	 0.000E+00	 1.489E-01	-3.133E-02	 2.217E-01	 1.160E+00	 3.900E+01	 2.270E-01	 5.408E+01	 5.407E+01	 1.217E+03	 4.620E+00	 2.091E-01	 7.185E+00	 1.757E+01	 3.263E+01	 1.450E+00	 1.848E+02	 1.847E+02	 2.720E+01	-1.491E+00	-6.883E+01	 1.413E+00	 1.681E+02
    8.2400	 1.200E+01	-0.000E+00	 0.000E+00	 1.515E-01	-2.970E-02	 2.095E-01	 1.198E+00	 3.890E+01	 1.410E-01	 5.409E+01	 5.409E+01	 1.217E+03	 4.706E+00	-7.501E-01	 5.731E+00	 1.771E+01	 3.336E+01	 1.483E+00	 1.890E+02	 1.890E+02	 2.800E+01	-3.208E+00	-6.942E+01	 1.437E+00	 1.710E+02
    8.2800	 1.200E+01	-0.000E+00	 0.000E+00	 1.495E-01	-2.750E-02	 1.926E-01	 1.180E+00	 3.877E+01	 2.072E-01	 5.410E+01	 5.410E+01	 1.217E+03	 4.681E+00	-1.768E+00	 4.275E+00	 1.744E+01	 3.404E+01	 1.513E+00	 1.929E+02	 1.929E+02	 2.876E+01	-4.526E+00	-7.023E+01	 1.464E+00	 1.743E+02
    8.3200	 1.200E+01	-0.000E+00	 0.000E+00	 1.446E-01	-2.492E-02	 1.726E-01	 1.124E+00	 3.848E+01	 3.359E-01	 5.412E+01	 5.412E+01	 1.218E+03	 4.590E+00	-2.820E+00	 2.771E+00	 1.694E+01	 3.469E+01	 1.542E+00	 1.966E+02	 1.966E+02	 2.942E+01	-5.436E+00	-7.103E+01	 1.492E+00	 1.778E+02
    8.3600	 1.200E+01	-0.000E+00	 0.000E+00	 1.403E-01	-2.234E-02	 1.526E-01	 1.072E+00	 3.804E+01	 4.737E-01	 5.413E+01	 5.413E+01	 1.218E+03	 4.509E+00	-3.869E+00	 1.192E+00	 1.653E+01	 3.535E+01	 1.571E+00	 2.004E+02	 2.004E+02	 2.998E+01	-5.908E+00	-7.170E+01	 1.521E+00	 1.812E+02
    8.4000	 1.200E+01	-0.000E+00	 0.000E+00	 1.395E-01	-2.035E-02	 1.370E-01	 1.058E+00	 3.746E+01	 7.406E-01	 5.415E+01	 5.414E+01	 1.218E+03	 4.490E+00	-4.821E+00	-2.452E-01	 1.645E+01	 3.599E+01	 1.600E+00	 2.041E+02	 2.041E+02	 3.056E+01	-5.906E+00	-7.218E+01	 1.550E+00	 1.847E+02
    8.4400	 1.200E+01	-0.000E+00	 0.000E+00	 1.428E-01	-1.919E-02	 1.279E-01	 1.090E+00	 3.671E+01	 1.155E+00	 5.416E+01	 5.416E+01	 1.219E+03	 4.534E+00	-5.612E+00	-1.424E+00	 1.674E+01	 3.659E+01	 1.626E+00	 2.075E+02	 2.075E+02	 3.111E+01	-5.452E+00	-7.235E+01	 1.578E+00	 1.882E+02
    8.4800	 1.200E+01	-0.000E+00	 0.000E+00	 1.485E-01	-1.865E-02	 1.234E-01	 1.149E+00	 3.587E+01	 1.598E+00	 5.418E+01	 5.417E+01	 1.219E+03	 4.601E+00	-6.229E+00	-2.392E+00	 1.723E+01	 3.710E+01	 1.649E+00	 2.105E+02	 2.104E+02	 3.153E+01	-4.644E+00	-7.221E+01	 1.605E+00	 1.914E+02
    8.5200	 1.200E+01	-0.000E+00	 0.000E+00	 1.542E-01	-1.843E-02	 1.215E-01	 1.207E+00	 3.503E+01	 2.027E+00	 5.419E+01	 5.418E+01	 1.219E+03	 4.636E+00	-6.650E+00	-3.094E+00	 1.769E+01	 3.744E+01	 1.664E+00	 2.124E+02	 2.124E+02	 3.177E+01	-3.585E+00	-7.183E+01	 1.629E+00	 1.942E+02
    8.5600	 1.200E+01	-0.000E+00	 0.000E+00	 1.578E-01	-1.840E-02	 1.211E-01	 1.243E+00	 3.432E+01	 2.450E+00	 5.419E+01	 5.419E+01	 1.219E+03	 4.598E+00	-6.847E+00	-3.428E+00	 1.796E+01	 3.755E+01	 1.669E+00	 2.131E+02	 2.131E+02	 3.182E+01	-2.346E+00	-7.127E+01	 1.646E+00	 1.963E+02
    8.6000	 1.200E+01	-0.000E+00	 0.000E+00	 1.582E-01	-1.843E-02	 1.213E-01	 1.247E+00	 3.389E+01	 2.808E+00	 5.420E+01	 5.420E+01	 1.219E+03	 4.471E+00	-6.821E+00	-3.412E+00	 1.793E+01	 3.740E+01	 1.662E+00	 2.123E+02	 2.123E+02	 3.161E+01	-1.004E+00	-7.064E+01	 1.655E+00	 1.975E+02
    8.6400	 1.200E+01	-0.000E+00	 0.000E+00	 1.556E-01	-1.844E-02	 1.215E-01	 1.221E+00	 3.373E+01	 3.032E+00	 5.420E+01	 5.420E+01	 1.219E+03	 4.267E+00	-6.600E+00	-3.113E+00	 1.763E+01	 3.704E+01	 1.646E+00	 2.102E+02	 2.102E+02	 3.115E+01	 3.410E-01	-7.009E+01	 1.655E+00	 1.974E+02
    8.6800	 1.200E+01	-0.000E+00	 0.000E+00	 1.509E-01	-1.853E-02	 1.223E-01	 1.170E+00	 3.370E+01	 3.101E+00	 5.419E+01	 5.419E+01	 1.219E+03	 4.030E+00	-6.213E+00	-2.557E+00	 1.716E+01	 3.657E+01	 1.625E+00	 2.075E+02	 2.075E+02	 3.052E+01	 1.616E+00	-6.971E+01	 1.646E+00	 1.964E+02
    8.7200	 1.200E+01	-0.000E+00	 0.000E+00	 1.458E-01	-1.891E-02	 1.253E-01	 1.114E+00	 3.371E+01	 3.028E+00	 5.418E+01	 5.419E+01	 1.219E+03	 3.817E+00	-5.683E+00	-1.765E+00	 1.670E+01	 3.613E+01	 1.606E+00	 2.050E+02	 2.050E+02	 2.984E+01	 2.793E+00	-6.957E+01	 1.632E+00	 1.947E+02
    8.7600	 1.200E+01	-0.000E+00	 0.000E+00	 1.425E-01	-1.980E-02	 1.322E-01	 1.075E+00	 3.374E+01	 2.855E+00	 5.418E+01	 5.418E+01	 1.219E+03	 3.675E+00	-5.027E+00	-7.603E-01	 1.643E+01	 3.581E+01	 1.592E+00	 2.032E+02	 2.032E+02	 2.915E+01	 3.840E+00	-6.967E+01	 1.617E+00	 1.928E+02
    8.8000	 1.200E+01	-0.000E+00	 0.000E+00	 1.420E-01	-2.134E-02	 1.438E-01	 1.065E+00	 3.382E+01	 2.655E+00	 5.417E+01	 5.417E+01	 1.219E+03	 3.626E+00	-4.256E+00	 4.526E-01	 1.645E+01	 3.565E+01	 1.584E+00	 2.022E+02	 2.022E+02	 2.848E+01	 4.699E+00	-6.994E+01	 1.604E+00	 1.912E+02
    8.8400	 1.200E+01	-0.000E+00	 0.000E+00	 1.441E-01	-2.346E-02	 1.600E-01	 1.081E+00	 3.393E+01	 2.489E+00	 5.417E+01	 5.417E+01	 1.219E+03	 3.660E+00	-3.387E+00	 1.854E+00	 1.672E+01	 3.564E+01	 1.584E+00	 2.022E+02	 2.022E+02	 2.790E+01	 5.323E+00	-7.033E+01	 1.594E+00	 1.901E+02
    8.8800	 1.200E+01	-0.000E+00	 0.000E+00	 1.476E-01	-2.596E-02	 1.789E-01	 1.110E+00	 3.409E+01	 2.381E+00	 5.417E+01	 5.417E+01	 1.219E+03	 3.747E+00	-2.453E+00	 3.380E+00	 1.712E+01	 3.574E+01	 1.589E+00	 2.027E+02	 2.027E+02	 2.740E+01	 5.689E+00	-7.076E+01	 1.590E+00	 1.896E+02
    8.9200	 1.200E+01	-0.000E+00	 0.000E+00	 1.511E-01	-2.855E-02	 1.984E-01	 1.138E+00	 3.432E+01	 2.336E+00	 5.417E+01	 5.417E+01	 1.219E+03	 3.850E+00	-1.496E+00	 4.953E+00	 1.753E+01	 3.588E+01	 1.595E+00	 2.035E+02	 2.035E+02	 2.699E+01	 5.785E+00	-7.115E+01	 1.590E+00	 1.896E+02
    8.9600	 1.200E+01	-0.000E+00	 0.000E+00	 1.537E-01	-3.100E-02	 2.169E-01	 1.155E+00	 3.462E+01	 2.355E+00	 5.417E+01	 5.417E+01	 1.219E+03	 3.945E+00	-5.624E-01	 6.499E+00	 1.785E+01	 3.602E+01	 1.601E+00	 2.043E+02	 2.043E+02	 2.667E+01	 5.592E+00	-7.144E+01	 1.593E+00	 1.899E+02
    9.0000	 1.200E+01	-0.000E+00	 0.000E+00	 1.551E-01	-3.316E-02	 2.331E-01	 1.160E+00	 3.496E+01	 2.415E+00	 5.417E+01	 5.417E+01	 1.219E+03	 4.023E+00	 2.891E-01	 7.926E+00	 1.806E+01	 3.613E+01	 1.606E+00	 2.049E+02	 2.049E+02	 2.647E+01	 5.108E+00	-7.157E+01	 1.597E+00	 1.904E+02