
Predictions were generated on 31-May-2023 at 21:33:44 using HydroDyn Driver, compiled on May 31 2023 at 15:45:05 as a 64-bit application using double precision at commit v3.5.0-439-g03d62244-dirty
 linked with  NWTC Subroutine Library

Description from the driver input file: NREL 5.0 MW offshore baseline floating platform HydroDyn input properties for the OC4 Semi-submersible.

Time	Wave1Elev	HydroFxi	HydroFyi	HydroFzi	HydroMxi	HydroMyi	HydroMzi	B1Surge	B1Sway	B1Heave	B1Roll	B1Pitch	B1Yaw	B1TVxi	B1TVyi	B1TVzi	B1RVxi	B1RVyi	B1RVzi	B1TAxi	B1TAyi	B1TAzi	B1RAxi	B1RAyi	B1RAzi	B1WvsFxi	B1WvsFzi	B1WvsMyi	B1HDSFxi	B1HDSFyi	B1HDSFzi	B1HDSMxi	B1HDSMyi	B1HDSMzi	B1RdtFxi	B1RdtFyi	B1RdtFzi	B1RdtMxi	B1RdtMyi	B1RdtMzi
(s)	(m)	(N)	(N)	(N)	(N-m)	(N-m)	(N-m)	(m)	(m)	(m)	(rad)	(rad)	(rad)	(m/s)	(m/s)	(m/s)	(rad/s)	(rad/s)	(rad/s)	(m/s^2)	(m/s^2)	(m/s^2)	(rad/s^2)	(rad/s^2)	(rad/s^2)	(N)	(N)	(N-m)	(N)	(N)	(N)	(N-m)	(N-m)	(N-m)	(N)	(N)	(N)	(N-m)	(N-m)	(N-m)
    0.0000	   1.119191E-01	  -8.766909E+05	   7.324547E+02	   4.536314E+07	  -2.400521E+04	   5.342924E+07	   7.857404E+02	   5.000000E+00	   0.000000E+00	   0.000000E+00	   0.000000E+00	   3.316126E-02	   0.000000E+00	   0.000000E+00	   0.000000E+00	   0.000000E+00	   0.000000E+00	   0.000000E+00	   0.000000E+00	  -2.481871E-02	  -9.563637E-05	   2.403348E-02	   3.466277E-06	  -6.628965E-03	  -1.166936E-07	   2.718885E+05	   4.153677E+05	   4.506832E+06	   0.000000E+00	   0.000000E+00	   1.398911E+08	   0.000000E+00	   1.262500E+07	   0.000000E+00	  -4.031732E+05	   3.254285E+02	  -3.532728E+05	  -1.685846E+04	   4.569188E+07	   5.681098E+02
    0.0125	   1.104162E-01	  -8.720141E+05	   2.928824E+03	   4.536230E+07	  -9.498552E+04	   5.337503E+07	   1.039402E+04	   4.999998E+00	  -3.154100E-08	   1.874298E-06	   1.226017E-09	   3.316074E-02	  -4.079264E-11	  -3.042399E-04	  -7.373193E-06	   2.994401E-04	   2.882012E-07	  -8.258713E-05	  -9.578910E-09	  -2.388590E-02	  -3.811643E-04	   2.388595E-02	   1.376143E-05	  -6.619827E-03	  -1.052926E-06	   2.894641E+05	   4.111679E+05	   4.343974E+06	   0.000000E+00	   0.000000E+00	   1.398911E+08	   4.667661E-01	   1.262480E+07	   0.000000E+00	  -4.084471E+05	   1.301577E+03	  -3.511043E+05	  -6.680375E+04	   4.570538E+07	   5.126487E+03
    0.0250	   1.089133E-01	  -8.710886E+05	   6.386245E+03	   4.536239E+07	  -2.038622E+05	   5.314976E+07	   3.025555E+04	   4.999992E+00	  -1.592447E-07	   7.474097E-06	   6.075032E-09	   3.315919E-02	  -2.755810E-10	  -5.873662E-04	  -1.318142E-05	   5.956476E-04	   4.865223E-07	  -1.650151E-04	  -3.042856E-08	  -2.239293E-02	  -8.267439E-04	   2.369358E-02	   2.969104E-05	  -6.588035E-03	  -2.907516E-06	   3.070396E+05	   4.069682E+05	   4.181117E+06	   0.000000E+00	   0.000000E+00	   1.398911E+08	   2.312871E+00	   1.262421E+07	   0.000000E+00	  -4.154309E+05	   2.836641E+03	  -3.482772E+05	  -1.437612E+05	   4.560329E+07	   1.415649E+04
    0.0375	   1.074105E-01	  -8.737363E+05	   9.980154E+03	   4.536369E+07	  -3.105438E+05	   5.277034E+07	   5.645013E+04	   4.999983E+00	  -3.947286E-07	   1.676519E-05	   1.464377E-08	   3.315661E-02	  -9.374693E-10	  -8.563845E-04	  -2.442014E-05	   8.904906E-04	   8.738307E-07	  -2.471076E-04	  -7.940763E-08	  -2.037922E-02	  -1.280636E-03	   2.344590E-02	   4.560029E-05	  -6.535530E-03	  -5.278280E-06	   3.246152E+05	   4.027684E+05	   4.018260E+06	   0.000000E+00	   0.000000E+00	   1.398911E+08	   5.575139E+00	   1.262323E+07	   0.000000E+00	  -4.240391E+05	   4.427595E+03	  -3.446380E+05	  -2.198635E+05	   4.539640E+07	   2.570032E+04
    0.0500	   1.059076E-01	  -8.789822E+05	   1.250234E+04	   4.536594E+07	  -3.715840E+05	   5.227175E+07	   8.408438E+04	   4.999971E+00	  -8.055729E-07	   2.972125E-05	   2.928349E-08	   3.315302E-02	  -2.403738E-09	  -1.097950E-03	  -3.996007E-05	   1.181957E-03	   1.403896E-06	  -3.284578E-04	  -1.582735E-07	  -1.797662E-02	  -1.579365E-03	   2.315413E-02	   5.538283E-05	  -6.467239E-03	  -7.677489E-06	   3.421908E+05	   3.985687E+05	   3.855403E+06	   0.000000E+00	   0.000000E+00	   1.398910E+08	   1.114874E+01	   1.262186E+07	   0.000000E+00	  -4.338361E+05	   5.533662E+03	  -3.403517E+05	  -2.649862E+05	   4.510902E+07	   3.738396E+04
    0.0625	   1.044047E-01	  -8.857571E+05	   1.278689E+04	   4.536904E+07	  -3.454779E+05	   5.169571E+07	   1.080024E+05	   4.999956E+00	  -1.425508E-06	   4.629667E-05	   5.098270E-08	   3.314841E-02	  -5.031064E-09	  -1.308404E-03	  -5.780160E-05	   1.469460E-03	   2.002426E-06	  -4.089099E-04	  -2.653073E-07	  -1.533455E-02	  -1.565773E-03	   2.282408E-02	   5.318845E-05	  -6.388898E-03	  -9.599781E-06	   3.597663E+05	   3.943689E+05	   3.692546E+06	   0.000000E+00	   0.000000E+00	   1.398910E+08	   1.941001E+01	   1.262010E+07	   0.000000E+00	  -4.443417E+05	   5.633376E+03	  -3.355035E+05	  -2.503137E+05	   4.476980E+07	   4.674789E+04
    0.0750	   1.029018E-01	  -8.928822E+05	   9.960236E+03	   4.537284E+07	  -2.015519E+05	   5.108816E+07	   1.240684E+05	   4.999938E+00	  -2.257372E-06	   6.643895E-05	   7.961516E-08	   3.314280E-02	  -9.125365E-09	  -1.485340E-03	  -7.322551E-05	   1.752755E-03	   2.490704E-06	  -4.883599E-04	  -3.915043E-07	  -1.261754E-02	  -1.122763E-03	   2.246323E-02	   3.467899E-05	  -6.306820E-03	  -1.064488E-05	   3.773419E+05	   3.901691E+05	   3.529689E+06	   0.000000E+00	   0.000000E+00	   1.398909E+08	   3.031089E+01	   1.261797E+07	   0.000000E+00	  -4.550269E+05	   4.336389E+03	  -3.302036E+05	  -1.545259E+05	   4.441027E+07	   5.184419E+04
    0.0875	   1.013989E-01	  -8.991846E+05	   3.640362E+03	   4.537718E+07	   7.260484E+04	   5.049492E+07	   1.295238E+05	   4.999919E+00	  -3.235283E-06	   9.009390E-05	   1.124505E-07	   3.313620E-02	  -1.485046E-08	  -1.628720E-03	  -8.120779E-05	   2.031363E-03	   2.681698E-06	  -5.667942E-04	  -5.251439E-07	  -9.989581E-03	  -2.005916E-04	   2.207936E-02	  -1.940217E-06	  -6.227301E-03	  -1.056186E-05	   3.949174E+05	   3.859694E+05	   3.366832E+06	   0.000000E+00	   0.000000E+00	   1.398908E+08	   4.281190E+01	   1.261546E+07	   0.000000E+00	  -4.653648E+05	   1.472745E+03	  -3.245662E+05	   3.108653E+04	   4.406187E+07	   5.145192E+04
    0.1000	   9.989601E-02	  -9.036004E+05	  -6.008371E+03	   4.538190E+07	   4.691819E+05	   4.995754E+07	   1.234815E+05	   4.999898E+00	  -4.230922E-06	   1.172009E-04	   1.444473E-07	   3.312863E-02	  -2.221081E-08	  -1.740385E-03	  -7.579214E-05	   2.305070E-03	   2.350872E-06	  -6.442713E-04	  -6.513285E-07	  -7.599310E-03	   1.175701E-03	   2.168005E-02	  -5.564353E-05	  -6.156049E-03	  -9.293331E-06	   4.124930E+05	   3.817696E+05	   3.203974E+06	   0.000000E+00	   0.000000E+00	   1.398907E+08	   5.499361E+01	   1.261258E+07	   0.000000E+00	  -4.748781E+05	  -2.882570E+03	  -3.187027E+05	   3.012574E+05	   4.375313E+07	   4.529204E+04
    0.1125	   9.839311E-02	  -9.052991E+05	  -1.824710E+04	   4.538685E+07	   9.591413E+05	   4.950866E+07	   1.070756E+05	   4.999876E+00	  -5.043137E-06	   1.476978E-04	   1.678162E-07	   3.312010E-02	  -3.102287E-08	  -1.823904E-03	  -5.200386E-05	   2.573701E-03	   1.312250E-06	  -7.209163E-04	  -7.561019E-07	  -5.563109E-03	   2.902521E-03	   2.127229E-02	  -1.224450E-04	  -6.097540E-03	  -6.989596E-06	   4.300686E+05	   3.775699E+05	   3.041117E+06	   0.000000E+00	   0.000000E+00	   1.398906E+08	   6.389058E+01	   1.260933E+07	   0.000000E+00	  -4.831940E+05	  -8.397084E+03	  -3.127161E+05	   6.360568E+05	   4.350641E+07	   3.409632E+04
    0.1250	   9.689023E-02	  -9.036439E+05	  -3.187368E+04	   4.539192E+07	   1.496408E+06	   4.917277E+07	   8.334805E+04	   4.999853E+00	  -5.419506E-06	   1.815206E-04	   1.728641E-07	   3.311061E-02	  -4.094681E-08	  -1.884065E-03	  -6.205437E-06	   2.837181E-03	  -5.708457E-07	  -7.969015E-04	  -8.281046E-07	  -3.969429E-03	   4.813036E-03	   2.086190E-02	  -1.959797E-04	  -6.055152E-03	  -3.990851E-06	   4.476442E+05	   3.733701E+05	   2.878260E+06	   0.000000E+00	   0.000000E+00	   1.398904E+08	   6.581239E+01	   1.260572E+07	   0.000000E+00	  -4.900272E+05	  -1.453074E+04	  -3.066916E+05	   1.003779E+06	   4.333857E+07	   1.952056E+04
    0.1375	   9.538734E-02	  -8.983646E+05	  -4.538932E+04	   4.539704E+07	   2.024090E+06	   4.896024E+07	   5.674981E+04	   4.999829E+00	  -5.075245E-06	   2.186047E-04	   1.486843E-07	   3.310018E-02	  -5.153008E-08	  -1.926703E-03	   6.293433E-05	   3.095492E-03	  -3.347711E-06	  -8.724392E-04	  -8.611887E-07	  -2.855755E-03	   6.700073E-03	   2.045165E-02	  -2.683699E-04	  -6.030314E-03	  -7.739399E-07	   4.652197E+05	   3.691704E+05	   2.715403E+06	   0.000000E+00	   0.000000E+00	   1.398903E+08	   5.660672E+01	   1.260174E+07	   0.000000E+00	  -4.952573E+05	  -2.061065E+04	  -3.006700E+05	   1.365243E+06	   4.325672E+07	   3.885469E+03
    0.1500	   9.388445E-02	  -8.896799E+05	  -5.722578E+04	   4.540219E+07	   2.482971E+06	   4.886318E+07	   3.241585E+04	   4.999804E+00	  -3.725637E-06	   2.588857E-04	   8.438896E-08	   3.308880E-02	  -6.228267E-08	  -1.957623E-03	   1.542263E-04	   3.348628E-03	  -6.972743E-06	  -9.477406E-04	  -8.554617E-07	  -2.192544E-03	   8.347319E-03	   2.004201E-02	  -3.314057E-04	  -6.021921E-03	   2.123941E-06	   4.827953E+05	   3.649706E+05	   2.552546E+06	   0.000000E+00	   0.000000E+00	   1.398901E+08	   3.212836E+01	   1.259741E+07	   0.000000E+00	  -4.989824E+05	  -2.593300E+04	  -2.946582E+05	   1.679647E+06	   4.325540E+07	  -1.019471E+04
    0.1625	   9.238155E-02	  -8.780588E+05	  -6.598436E+04	   4.540736E+07	   2.820398E+06	   4.886334E+07	   1.533346E+04	   4.999780E+00	  -1.116875E-06	   3.022988E-04	  -2.973248E-08	   3.307649E-02	  -7.275708E-08	  -1.982026E-03	   2.638900E-04	   3.596602E-03	  -1.130210E-05	  -1.022996E-03	  -8.177155E-07	  -1.914429E-03	   9.562102E-03	   1.963333E-02	  -3.777832E-04	  -6.027463E-03	   4.190964E-06	   5.003708E+05	   3.607709E+05	   2.389689E+06	   0.000000E+00	   0.000000E+00	   1.398900E+08	  -1.131968E+01	   1.259272E+07	   0.000000E+00	  -5.014138E+05	  -2.987027E+04	  -2.886616E+05	   1.910712E+06	   4.332208E+07	  -2.022933E+04
    0.1750	   9.087867E-02	  -8.642314E+05	  -7.065739E+04	   4.541254E+07	   2.998521E+06	   4.893252E+07	   9.608927E+03	   4.999755E+00	   2.943746E-06	   3.487795E-04	  -2.010675E-07	   3.306323E-02	  -8.262834E-08	  -2.004359E-03	   3.860288E-04	   3.839433E-03	  -1.611160E-05	  -1.098365E-03	  -7.605745E-07	  -1.919348E-03	   1.020575E-02	   1.922497E-02	  -4.022508E-04	  -6.043019E-03	   5.017054E-06	   5.179464E+05	   3.565711E+05	   2.226832E+06	   0.000000E+00	   0.000000E+00	   1.398898E+08	  -7.654993E+01	   1.258768E+07	   0.000000E+00	  -5.028798E+05	  -3.197045E+04	  -2.826702E+05	   2.032366E+06	   4.343718E+07	  -2.422301E+04
    0.1875	   8.937578E-02	  -8.491618E+05	  -7.078511E+04	   4.541780E+07	   3.000139E+06	   4.903352E+07	   1.802684E+04	   4.999730E+00	   8.566305E-06	   3.982637E-04	  -4.338634E-07	   3.304902E-02	  -9.175731E-08	  -2.027395E-03	   5.133464E-04	   4.077117E-03	  -2.112335E-05	  -1.173946E-03	  -7.009829E-07	  -2.072606E-03	   1.021511E-02	   1.881456E-02	  -4.024224E-04	  -6.063413E-03	   4.341594E-06	   5.355220E+05	   3.523713E+05	   2.063975E+06	   0.000000E+00	   0.000000E+00	   1.398896E+08	  -1.651794E+02	   1.258227E+07	   0.000000E+00	  -5.038143E+05	  -3.202744E+04	  -2.766496E+05	   2.032775E+06	   4.357482E+07	  -2.090772E+04
    0.2000	   8.787289E-02	  -8.339279E+05	  -6.653349E+04	   4.542316E+07	   2.831568E+06	   4.912416E+07	   4.146068E+04	   4.999704E+00	   1.576671E-05	   4.506866E-04	  -7.287804E-07	   3.303388E-02	  -1.002330E-07	  -2.052247E-03	   6.381258E-04	   4.309623E-03	  -2.604265E-05	  -1.249770E-03	  -6.582639E-07	  -2.223548E-03	   9.613179E-03	   1.839920E-02	  -3.791771E-04	  -6.082855E-03	   2.107042E-06	   5.530976E+05	   3.481716E+05	   1.901117E+06	   0.000000E+00	   0.000000E+00	   1.398894E+08	  -2.774595E+02	   1.257650E+07	   0.000000E+00	  -5.047017E+05	  -3.011589E+04	  -2.705568E+05	   1.916319E+06	   4.370609E+07	  -1.000365E+04
    0.2125	   8.573646E-02	  -8.216742E+05	  -5.867596E+04	   4.542846E+07	   2.521930E+06	   4.912297E+07	   7.874562E+04	   4.999678E+00	   2.446815E-05	   5.059832E-04	  -1.082936E-06	   3.301778E-02	  -1.083846E-07	  -2.078129E-03	   7.532852E-04	   4.536883E-03	  -3.059784E-05	  -1.325799E-03	  -6.512580E-07	  -2.280765E-03	   8.506535E-03	   1.795638E-02	  -3.365607E-04	  -6.091744E-03	  -1.532315E-06	   5.667546E+05	   3.432980E+05	   1.763565E+06	   0.000000E+00	   0.000000E+00	   1.398892E+08	  -4.122927E+02	   1.257037E+07	   0.000000E+00	  -5.053179E+05	  -2.658296E+04	  -2.640614E+05	   1.703104E+06	   4.376951E+07	   7.738281E+03
    0.2250	   8.360003E-02	  -8.113612E+05	  -4.848233E+04	   4.543396E+07	   2.118966E+06	   4.902877E+07	   1.269066E+05	   4.999652E+00	   3.451516E-05	   5.640846E-04	  -1.490424E-06	   3.300073E-02	  -1.167602E-07	  -2.103854E-03	   8.533400E-04	   4.758331E-03	  -3.457674E-05	  -1.401831E-03	  -6.958518E-07	  -2.041141E-03	   7.070045E-03	   1.750257E-02	  -2.812042E-04	  -6.088353E-03	  -6.237418E-06	   5.804117E+05	   3.384244E+05	   1.626012E+06	   0.000000E+00	   0.000000E+00	   1.398890E+08	  -5.674307E+02	   1.256388E+07	   0.000000E+00	  -5.068337E+05	  -2.199851E+04	  -2.574048E+05	   1.426071E+06	   4.376992E+07	   3.066820E+04
    0.2375	   8.146361E-02	  -8.038451E+05	  -3.753216E+04	   4.543968E+07	   1.682041E+06	   4.880793E+07	   1.814047E+05	   4.999626E+00	   4.569835E-05	   6.249191E-04	  -1.943240E-06	   3.298273E-02	  -1.260767E-07	  -2.124119E-03	   9.351350E-04	   4.974153E-03	  -3.785457E-05	  -1.477754E-03	  -8.029644E-07	  -1.384865E-03	   5.521186E-03	   1.703615E-02	  -2.213517E-04	  -6.068073E-03	  -1.151888E-05	   5.940688E+05	   3.335508E+05	   1.488459E+06	   0.000000E+00	   0.000000E+00	   1.398888E+08	  -7.398257E+02	   1.255703E+07	   0.000000E+00	  -5.096339E+05	  -1.707132E+04	  -2.505637E+05	   1.126165E+06	   4.368430E+07	   5.640487E+04
    0.2500	   7.932718E-02	  -7.997395E+05	  -2.748328E+04	   4.544562E+07	   1.273459E+06	   4.843632E+07	   2.368258E+05	   4.999599E+00	   5.778600E-05	   6.884145E-04	  -2.432467E-06	   3.296379E-02	  -1.371465E-07	  -2.133555E-03	   9.982414E-04	   5.184102E-03	  -4.040934E-05	  -1.553320E-03	  -9.768131E-07	  -2.261123E-04	   4.088202E-03	   1.655698E-02	  -1.656535E-04	  -6.027604E-03	  -1.681063E-05	   6.077258E+05	   3.286773E+05	   1.350906E+06	   0.000000E+00	   0.000000E+00	   1.398885E+08	  -9.260827E+02	   1.254982E+07	   0.000000E+00	  -5.139945E+05	  -1.254531E+04	  -2.435359E+05	   8.463482E+05	   4.349612E+07	   8.219416E+04
    0.2625	   7.719076E-02	  -7.993268E+05	  -1.982929E+04	   4.545175E+07	   9.493638E+05	   4.790263E+07	   2.876727E+05	   4.999572E+00	   7.055829E-05	   7.544965E-04	  -2.949565E-06	   3.294390E-02	  -1.507908E-07	  -2.125708E-03	   1.044953E-03	   5.388035E-03	  -4.232207E-05	  -1.628272E-03	  -1.214487E-06	   1.474854E-03	   2.976731E-03	   1.606607E-02	  -1.219024E-04	  -5.965407E-03	  -2.155267E-05	   6.213828E+05	   3.238037E+05	   1.213354E+06	   0.000000E+00	   0.000000E+00	   1.398883E+08	  -1.122951E+03	   1.254225E+07	   0.000000E+00	  -5.200426E+05	  -9.090681E+03	  -2.363360E+05	   6.253188E+05	   4.319768E+07	   1.053118E+05
    0.2750	   7.505433E-02	  -8.025991E+05	  -1.567914E+04	   4.545798E+07	   7.514796E+05	   4.720700E+07	   3.291412E+05	   4.999546E+00	   8.383887E-05	   8.230892E-04	  -3.487568E-06	   3.292309E-02	  -1.677524E-07	  -2.093844E-03	   1.079874E-03	   5.585815E-03	  -4.376159E-05	  -1.702339E-03	  -1.506466E-06	   3.717006E-03	   2.339506E-03	   1.556642E-02	  -9.588617E-05	  -5.881516E-03	  -2.527090E-05	   6.350399E+05	   3.189301E+05	   1.075801E+06	   0.000000E+00	   0.000000E+00	   1.398880E+08	  -1.327779E+03	   1.253432E+07	   0.000000E+00	  -5.277749E+05	  -7.205063E+03	  -2.290082E+05	   4.918208E+05	   4.278916E+07	   1.234515E+05
    0.2875	   7.291790E-02	  -8.092061E+05	  -1.559996E+04	   4.546423E+07	   7.011939E+05	   4.636291E+07	   3.578540E+05	   4.999520E+00	   9.751907E-05	   8.941150E-04	  -4.042007E-06	   3.290135E-02	  -1.886218E-07	  -2.031379E-03	   1.109181E-03	   5.777360E-03	  -4.495702E-05	  -1.775256E-03	  -1.838043E-06	   6.451563E-03	   2.254700E-03	   1.506262E-02	  -9.056717E-05	  -5.777798E-03	  -2.764851E-05	   6.486969E+05	   3.140565E+05	   9.382480E+05	   0.000000E+00	   0.000000E+00	   1.398877E+08	  -1.538863E+03	   1.252605E+07	   0.000000E+00	  -5.370344E+05	  -7.142977E+03	  -2.216201E+05	   4.605668E+05	   4.227984E+07	   1.350728E+05
    0.3000	   7.078148E-02	  -8.185378E+05	  -1.953620E+04	   4.547036E+07	   7.965186E+05	   4.539416E+07	   3.723522E+05	   4.999496E+00	   1.115715E-04	   9.674959E-04	  -4.611432E-06	   3.287871E-02	  -2.137860E-07	  -1.932672E-03	   1.139662E-03	   5.962649E-03	  -4.616162E-05	  -1.846796E-03	  -2.191604E-06	   9.593156E-03	   2.714793E-03	   1.456039E-02	  -1.056610E-04	  -5.657531E-03	  -2.857189E-05	   6.623541E+05	   3.091829E+05	   8.006949E+05	   0.000000E+00	   0.000000E+00	   1.398874E+08	  -1.755653E+03	   1.251743E+07	   0.000000E+00	  -5.475474E+05	  -8.879538E+03	  -2.142555E+05	   5.301462E+05	   4.168611E+07	   1.396242E+05
    0.3125	   6.864505E-02	  -8.297416E+05	  -2.682256E+04	   4.547625E+07	   1.012550E+06	   4.433398E+07	   3.732277E+05	   4.999472E+00	   1.260512E-04	   1.043154E-03	  -5.197465E-06	   3.285519E-02	  -2.434082E-07	  -1.793165E-03	   1.177650E-03	   6.141730E-03	  -4.761244E-05	  -1.916771E-03	  -2.549299E-06	   1.302261E-02	   3.628330E-03	   1.406646E-02	  -1.377022E-04	  -5.525290E-03	  -2.814029E-05	   6.760111E+05	   3.043094E+05	   6.631424E+05	   0.000000E+00	   0.000000E+00	   1.398872E+08	  -1.978766E+03	   1.250847E+07	   0.000000E+00	  -5.589308E+05	  -1.211626E+04	  -2.070135E+05	   6.833516E+05	   4.103082E+07	   1.375898E+05
    0.3250	   6.650862E-02	  -8.418219E+05	  -3.628427E+04	   4.548174E+07	   1.305221E+06	   4.322120E+07	   3.630112E+05	   4.999451E+00	   1.410836E-04	   1.121012E-03	  -5.804360E-06	   3.283080E-02	  -2.774410E-07	  -1.610011E-03	   1.228058E-03	   6.314746E-03	  -4.949396E-05	  -1.985059E-03	  -2.895558E-06	   1.660075E-02	   4.833695E-03	   1.358806E-02	  -1.805667E-04	  -5.386418E-03	  -2.664891E-05	   6.896681E+05	   2.994358E+05	   5.255897E+05	   0.000000E+00	   0.000000E+00	   1.398868E+08	  -2.209822E+03	   1.249919E+07	   0.000000E+00	  -5.707380E+05	  -1.632604E+04	  -2.000003E+05	   8.897706E+05	   4.034067E+07	   1.304072E+05
    0.3375	   6.437220E-02	  -8.537357E+05	  -4.640906E+04	   4.548667E+07	   1.617746E+06	   4.209670E+07	   3.457842E+05	   4.999432E+00	   1.568416E-04	   1.200996E-03	  -6.438164E-06	   3.280557E-02	  -3.156691E-07	  -1.382056E-03	   1.293601E-03	   6.481923E-03	  -5.190811E-05	  -2.051604E-03	  -3.219375E-06	   2.018151E-02	   6.122780E-03	   1.313258E-02	  -2.263678E-04	  -5.246531E-03	  -2.454416E-05	   7.033252E+05	   2.945622E+05	   3.880368E+05	   0.000000E+00	   0.000000E+00	   1.398865E+08	  -2.451122E+03	   1.248958E+07	   0.000000E+00	  -5.825007E+05	  -2.083032E+04	  -1.933244E+05	   1.110238E+06	   3.964372E+07	   1.202497E+05
    0.3500	   6.223577E-02	  -8.644850E+05	  -5.556535E+04	   4.549091E+07	   1.888818E+06	   4.099959E+07	   3.265015E+05	   4.999416E+00	   1.735159E-04	   1.283035E-03	  -7.105569E-06	   3.277952E-02	  -3.577772E-07	  -1.109981E-03	   1.374353E-03	   6.643577E-03	  -5.485738E-05	  -2.116418E-03	  -3.515858E-06	   2.362516E-02	   7.271010E-03	   1.270705E-02	  -2.665947E-04	  -5.111002E-03	  -2.235206E-05	   7.169822E+05	   2.896887E+05	   2.504840E+05	   0.000000E+00	   0.000000E+00	   1.398862E+08	  -2.705215E+03	   1.247966E+07	   0.000000E+00	  -5.937709E+05	  -2.489698E+04	  -1.870893E+05	   1.302487E+06	   3.896683E+07	   1.096779E+05
    0.3625	   6.009934E-02	  -8.732109E+05	  -6.223269E+04	   4.549432E+07	   2.061272E+06	   3.996367E+07	   3.101865E+05	   4.999404E+00	   1.912807E-04	   1.367063E-03	  -7.812650E-06	   3.275267E-02	  -4.034297E-07	  -7.960962E-04	   1.467669E-03	   6.800108E-03	  -5.824146E-05	  -2.179579E-03	  -3.786760E-06	   2.681118E-02	   8.069088E-03	   1.231757E-02	  -2.933156E-04	  -4.984469E-03	  -2.059538E-05	   7.306393E+05	   2.848151E+05	   1.129311E+05	   0.000000E+00	   0.000000E+00	   1.398859E+08	  -2.974413E+03	   1.246944E+07	   0.000000E+00	  -6.041632E+05	  -2.784378E+04	  -1.813844E+05	   1.427127E+06	   3.833320E+07	   1.012359E+05
    0.3750	   5.796292E-02	  -8.792701E+05	  -6.521215E+04	   4.549682E+07	   2.090036E+06	   3.901438E+07	   3.011288E+05	   4.999397E+00	   2.102620E-04	   1.453017E-03	  -8.563647E-06	   3.272504E-02	  -4.523518E-07	  -4.440712E-04	   1.568504E-03	   6.951979E-03	  -6.186873E-05	  -2.241215E-03	  -4.039985E-06	   2.964917E-02	   8.352011E-03	   1.196879E-02	  -3.002790E-04	  -4.870417E-03	  -1.971256E-05	   7.442964E+05	   2.799415E+05	  -2.462154E+04	   0.000000E+00	   0.000000E+00	   1.398856E+08	  -3.260331E+03	   1.245892E+07	   0.000000E+00	  -6.133889E+05	  -2.913278E+04	  -1.762784E+05	   1.453115E+06	   3.776026E+07	   9.705754E+04
    0.3875	   5.582649E-02	  -8.822998E+05	  -6.378529E+04	   4.549834E+07	   1.948141E+06	   3.816630E+07	   3.022757E+05	   4.999393E+00	   2.305112E-04	   1.540844E-03	  -9.359979E-06	   3.269664E-02	  -5.043984E-07	  -5.851036E-05	   1.670044E-03	   7.099706E-03	  -6.548021E-05	  -2.301490E-03	  -4.288153E-06	   3.208775E-02	   8.021018E-03	   1.166306E-02	  -2.837474E-04	  -4.770836E-03	  -1.999632E-05	   7.579534E+05	   2.750679E+05	  -1.621742E+05	   0.000000E+00	   0.000000E+00	   1.398852E+08	  -3.563509E+03	   1.244811E+07	   0.000000E+00	  -6.212853E+05	  -2.844171E+04	  -1.718055E+05	   1.361900E+06	   3.725801E+07	   9.856726E+04
    0.4000	   5.369006E-02	  -8.822326E+05	  -5.780371E+04	   4.549889E+07	   1.630158E+06	   3.742246E+07	   3.146535E+05	   4.999395E+00	   2.519889E-04	   1.630495E-03	  -1.019960E-05	   3.266750E-02	  -5.596005E-07	   3.555592E-04	   1.764587E-03	   7.243820E-03	  -6.878236E-05	  -2.360587E-03	  -4.546573E-06	   3.411689E-02	   7.056009E-03	   1.140055E-02	  -2.429693E-04	  -4.686128E-03	  -2.154009E-05	   7.716105E+05	   2.701943E+05	  -2.997273E+05	   0.000000E+00	   0.000000E+00	   1.398849E+08	  -3.883168E+03	   1.243702E+07	   0.000000E+00	  -6.278226E+05	  -2.570422E+04	  -1.679683E+05	   1.149774E+06	   3.682848E+07	   1.062194E+05
    0.4125	   5.099309E-02	  -8.820558E+05	  -4.769404E+04	   4.549841E+07	   1.152472E+06	   3.673572E+07	   3.372581E+05	   4.999403E+00	   2.745596E-04	   1.721927E-03	  -1.107681E-05	   3.263763E-02	  -6.181818E-07	   7.931833E-04	   1.844520E-03	   7.384850E-03	  -7.148421E-05	  -2.418686E-03	  -4.830499E-06	   3.572348E-02	   5.516345E-03	   1.116464E-02	  -1.802142E-04	  -4.610715E-03	  -2.422886E-05	   7.807634E+05	   2.649018E+05	  -4.069671E+05	   0.000000E+00	   0.000000E+00	   1.398846E+08	  -4.217138E+03	   1.242564E+07	   0.000000E+00	  -6.324419E+05	  -2.111216E+04	  -1.645224E+05	   8.280517E+05	   3.643033E+07	   1.194542E+05
    0.4250	   4.829612E-02	  -8.795878E+05	  -3.438612E+04	   4.549707E+07	   5.505784E+05	   3.612299E+07	   3.673790E+05	   4.999415E+00	   2.979987E-04	   1.815104E-03	  -1.198251E-05	   3.260704E-02	  -6.805437E-07	   1.248933E-03	   1.903259E-03	   7.522949E-03	  -7.333318E-05	  -2.475838E-03	  -5.152701E-06	   3.703124E-02	   3.530957E-03	   1.096643E-02	  -1.003969E-04	  -4.545981E-03	  -2.777093E-05	   7.899162E+05	   2.596093E+05	  -5.142072E+05	   0.000000E+00	   0.000000E+00	   1.398842E+08	  -4.561952E+03	   1.241400E+07	   0.000000E+00	  -6.360643E+05	  -1.508328E+04	  -1.616310E+05	   4.212052E+05	   3.608408E+07	   1.368519E+05
    0.4375	   4.559915E-02	  -8.756092E+05	  -1.917125E+04	   4.549499E+07	  -1.261176E+05	   3.555441E+07	   4.010646E+05	   4.999434E+00	   3.220109E-04	   1.909993E-03	  -1.290485E-05	   3.257574E-02	  -7.472209E-07	   1.720385E-03	   1.936041E-03	   7.658815E-03	  -7.414522E-05	  -2.532230E-03	  -5.521609E-06	   3.814828E-02	   1.278984E-03	   1.080019E-02	  -1.034833E-05	  -4.487799E-03	  -3.174659E-05	   7.990692E+05	   2.543168E+05	  -6.214470E+05	   0.000000E+00	   0.000000E+00	   1.398838E+08	  -4.913105E+03	   1.240208E+07	   0.000000E+00	  -6.390404E+05	  -8.197708E+03	  -1.592100E+05	  -3.674652E+04	   3.576918E+07	   1.563700E+05
    0.4500	   4.290218E-02	  -8.710391E+05	  -3.517925E+03	   4.549230E+07	  -8.212332E+05	   3.499474E+07	   4.337907E+05	   4.999458E+00	   3.462555E-04	   2.006568E-03	  -1.383027E-05	   3.254373E-02	  -8.188193E-07	   2.205610E-03	   1.940429E-03	   7.792749E-03	  -7.382447E-05	  -2.587896E-03	  -5.940039E-06	   3.920195E-02	  -1.035610E-03	   1.065942E-02	   8.214645E-05	  -4.431310E-03	  -3.567635E-05	   8.082221E+05	   2.490243E+05	  -7.286869E+05	   0.000000E+00	   0.000000E+00	   1.398835E+08	  -5.265426E+03	   1.238990E+07	   0.000000E+00	  -6.417832E+05	  -1.115258E+03	  -1.571637E+05	  -5.070160E+05	   3.546140E+07	   1.756753E+05
    0.4625	   4.020520E-02	  -8.668924E+05	   1.112692E+04	   4.548912E+07	  -1.478894E+06	   3.440514E+07	   4.610165E+05	   4.999489E+00	   3.703774E-04	   2.104806E-03	  -1.474457E-05	   3.251104E-02	  -8.959428E-07	   2.704440E-03	   1.916519E-03	   7.925046E-03	  -7.237166E-05	  -2.642833E-03	  -6.404849E-06	   4.033279E-02	  -3.211424E-03	   1.053835E-02	   1.693872E-04	  -4.371149E-03	  -3.908112E-05	   8.173749E+05	   2.437318E+05	  -8.359269E+05	   0.000000E+00	   0.000000E+00	   1.398831E+08	  -5.613517E+03	   1.237745E+07	   0.000000E+00	  -6.447481E+05	   5.513797E+03	  -1.554073E+05	  -9.512091E+05	   3.513404E+07	   1.924369E+05
    0.4750	   3.750823E-02	  -8.641601E+05	   2.352404E+04	   4.548556E+07	  -2.050772E+06	   3.374778E+07	   4.791390E+05	   4.999526E+00	   3.940377E-04	   2.204690E-03	  -1.563417E-05	   3.247767E-02	  -9.791197E-07	   3.218581E-03	   1.866797E-03	   8.055931E-03	  -6.987902E-05	  -2.696970E-03	  -6.907184E-06	   4.167788E-02	  -5.075315E-03	   1.043099E-02	   2.447342E-04	  -4.302096E-03	  -4.157370E-05	   8.265278E+05	   2.384393E+05	  -9.431668E+05	   0.000000E+00	   0.000000E+00	   1.398827E+08	  -5.952205E+03	   1.236474E+07	   0.000000E+00	  -6.483801E+05	   1.113229E+04	  -1.538525E+05	  -1.336175E+06	   3.476108E+07	   2.047711E+05
    0.4875	   3.481125E-02	  -8.637398E+05	   3.279267E+04	   4.548178E+07	  -2.501811E+06	   3.298862E+07	   4.863316E+05	   4.999569E+00	   4.169410E-04	   2.306201E-03	  -1.648711E-05	   3.244362E-02	  -1.068742E-06	   3.751276E-03	   1.795701E-03	   8.185553E-03	  -6.651431E-05	  -2.750173E-03	  -7.434260E-06	   4.336100E-02	  -6.503257E-03	   1.033071E-02	   3.034010E-04	  -4.219439E-03	  -4.293809E-05	   8.356808E+05	   2.331468E+05	  -1.050407E+06	   0.000000E+00	   0.000000E+00	   1.398823E+08	  -6.276934E+03	   1.235178E+07	   0.000000E+00	  -6.530816E+05	   1.534394E+04	  -1.524022E+05	  -1.637946E+06	   3.431913E+07	   2.116276E+05
    0.5000	   3.211428E-02	  -8.662192E+05	   3.849589E+04	   4.547784E+07	  -2.813590E+06	   3.210500E+07	   4.821161E+05	   4.999620E+00	   4.388555E-04	   2.409325E-03	  -1.729385E-05	   3.240892E-02	  -1.165030E-06	   4.307241E-03	   1.708958E-03	   8.313969E-03	  -6.249577E-05	  -2.802257E-03	  -7.971864E-06	   4.546370E-02	  -7.432275E-03	   1.023355E-02	   3.429133E-04	  -4.120064E-03	  -4.310128E-05	   8.448336E+05	   2.278543E+05	  -1.157647E+06	   0.000000E+00	   0.000000E+00	   1.398819E+08	  -6.584071E+03	   1.233857E+07	   0.000000E+00	  -6.591167E+05	   1.795159E+04	  -1.509980E+05	  -1.844037E+06	   3.379263E+07	   2.126520E+05
    0.5125	   2.941731E-02	  -8.718908E+05	   4.065982E+04	   4.547380E+07	  -2.985180E+06	   3.108553E+07	   4.671837E+05	   4.999677E+00	   4.596246E-04	   2.514046E-03	  -1.804770E-05	   3.237357E-02	  -1.268023E-06	   4.891807E-03	   1.612828E-03	   8.441212E-03	  -5.806392E-05	  -2.853010E-03	  -8.505344E-06	   4.802661E-02	  -7.863274E-03	   1.013685E-02	   3.632226E-04	  -4.002414E-03	  -4.212019E-05	   8.539865E+05	   2.225618E+05	  -1.264886E+06	   0.000000E+00	   0.000000E+00	   1.398815E+08	  -6.871075E+03	   1.232511E+07	   0.000000E+00	  -6.666169E+05	   1.896591E+04	  -1.496008E+05	  -1.954019E+06	   3.317382E+07	   2.081218E+05
    0.5250	   2.672034E-02	  -8.808373E+05	   3.972910E+04	   4.546972E+07	  -3.031598E+06	   2.992745E+07	   4.433386E+05	   4.999743E+00	   4.791687E-04	   2.620351E-03	  -1.874495E-05	   3.233760E-02	  -1.377584E-06	   5.510822E-03	   1.513313E-03	   8.567275E-03	  -5.345115E-05	  -2.902199E-03	  -9.021275E-06	   5.106042E-02	  -7.855077E-03	   1.003888E-02	   3.664850E-04	  -3.866101E-03	  -4.017363E-05	   8.631394E+05	   2.172693E+05	  -1.372126E+06	   0.000000E+00	   0.000000E+00	   1.398811E+08	  -7.136531E+03	   1.231142E+07	   0.000000E+00	  -6.756192E+05	   1.858545E+04	  -1.481851E+05	  -1.978433E+06	   3.246082E+07	   1.989076E+05
    0.5375	   2.402337E-02	  -8.929389E+05	   3.646129E+04	   4.546557E+07	  -2.979965E+06	   2.863653E+07	   4.131500E+05	   4.999815E+00	   4.974772E-04	   2.728223E-03	  -1.938458E-05	   3.230102E-02	  -1.493424E-06	   6.170065E-03	   1.415500E-03	   8.692138E-03	  -4.885673E-05	  -2.949595E-03	  -9.508968E-06	   5.454665E-02	  -7.510074E-03	   9.940199E-03	   3.565231E-04	  -3.711886E-03	  -3.752619E-05	   8.722924E+05	   2.119768E+05	  -1.479367E+06	   0.000000E+00	   0.000000E+00	   1.398807E+08	  -7.380052E+03	   1.229749E+07	   0.000000E+00	  -6.860690E+05	   1.714934E+04	  -1.467593E+05	  -1.936132E+06	   3.165754E+07	   1.862972E+05