
Predictions were generated on 19-Jun-2024 at 13:54:33 using HydroDyn Driver, compiled on Jun 19 2024 at 12:41:58 as a 64-bit application using double precision at commit v3.5.3-1370-g042b249a-dirty
 linked with  NWTC Subroutine Library

Description from the driver input file: NREL 5.0 MW offshore baseline floating platform HydroDyn input properties for the OC4 Semi-submersible.

Time	Wave1Elev	HydroFxi	HydroFyi	HydroFzi	HydroMxi	HydroMyi	HydroMzi	B1Surge	B1Sway	B1Heave	B1Roll	B1Pitch	B1Yaw	B1TVxi	B1TVyi	B1TVzi	B1RVxi	B1RVyi	B1RVzi	B1TAxi	B1TAyi	B1TAzi	B1RAxi	B1RAyi	B1RAzi	B1WvsFxi	B1WvsFzi	B1WvsMyi	B1HDSFxi	B1HDSFyi	B1HDSFzi	B1HDSMxi	B1HDSMyi	B1HDSMzi	B1RdtFxi	B1RdtFyi	B1RdtFzi	B1RdtMxi	B1RdtMyi	B1RdtMzi
(s)	(m)	(N)	(N)	(N)	(N-m)	(N-m)	(N-m)	(m)	(m)	(m)	(rad)	(rad)	(rad)	(m/s)	(m/s)	(m/s)	(rad/s)	(rad/s)	(rad/s)	(m/s^2)	(m/s^2)	(m/s^2)	(rad/s^2)	(rad/s^2)	(rad/s^2)	(N)	(N)	(N-m)	(N)	(N)	(N)	(N-m)	(N-m)	(N-m)	(N)	(N)	(N)	(N-m)	(N-m)	(N-m)
    0.0000	   1.119191E-01	  -8.766906E+05	   7.323347E+02	   4.536316E+07	  -2.397472E+04	   5.341216E+07	   2.235415E+03	   5.000000E+00	   0.000000E+00	   0.000000E+00	   0.000000E+00	   3.316126E-02	   0.000000E+00	   0.000000E+00	   0.000000E+00	   0.000000E+00	   0.000000E+00	   0.000000E+00	   0.000000E+00	  -2.481871E-02	  -9.563637E-05	   2.403348E-02	   3.464371E-06	  -6.628965E-03	  -2.316186E-07	   2.718884E+05	   4.153675E+05	   4.506832E+06	   0.000000E+00	   0.000000E+00	   1.398911E+08	   0.000000E+00	   1.262500E+07	   0.000000E+00	  -4.031732E+05	   3.255906E+02	  -3.532728E+05	  -1.684472E+04	   4.569188E+07	   1.127695E+03
    0.0125	   1.104162E-01	  -8.720139E+05	   2.928344E+03	   4.536231E+07	  -9.486975E+04	   5.335795E+07	   1.614908E+04	   4.999998E+00	  -3.154100E-08	   1.874298E-06	   1.226017E-09	   3.316074E-02	  -4.079264E-11	  -3.042399E-04	  -7.373193E-06	   2.994401E-04	   2.880428E-07	  -8.258713E-05	  -1.913412E-08	  -2.388590E-02	  -3.811643E-04	   2.388595E-02	   1.375387E-05	  -6.619827E-03	  -1.509157E-06	   2.894639E+05	   4.111677E+05	   4.343976E+06	   0.000000E+00	   0.000000E+00	   1.398911E+08	   4.672811E-01	   1.262480E+07	   0.000000E+00	  -4.084471E+05	   1.302220E+03	  -3.511043E+05	  -6.674920E+04	   4.570538E+07	   7.347940E+03
    0.0250	   1.089133E-01	  -8.710884E+05	   6.385210E+03	   4.536240E+07	  -2.036182E+05	   5.313268E+07	   4.267129E+04	   4.999992E+00	  -1.592447E-07	   7.474097E-06	   6.075032E-09	   3.315919E-02	  -2.755810E-10	  -5.873662E-04	  -1.318142E-05	   5.956476E-04	   4.862547E-07	  -1.650151E-04	  -4.655828E-08	  -2.239293E-02	  -8.267439E-04	   2.369358E-02	   2.967472E-05	  -6.588035E-03	  -3.891786E-06	   3.070395E+05	   4.069680E+05	   4.181118E+06	   0.000000E+00	   0.000000E+00	   1.398911E+08	   2.316350E+00	   1.262421E+07	   0.000000E+00	  -4.154309E+05	   2.838030E+03	  -3.482772E+05	  -1.436435E+05	   4.560329E+07	   1.894919E+04
    0.0375	   1.074104E-01	  -8.737360E+05	   9.978567E+03	   4.536370E+07	  -3.101761E+05	   5.275327E+07	   7.551613E+04	   4.999983E+00	  -3.947286E-07	   1.676519E-05	   1.464377E-08	   3.315661E-02	  -9.374693E-10	  -8.563845E-04	  -2.442014E-05	   8.904906E-04	   8.733502E-07	  -2.471076E-04	  -1.083756E-07	  -2.037922E-02	  -1.280636E-03	   2.344590E-02	   4.557521E-05	  -6.535530E-03	  -6.789739E-06	   3.246151E+05	   4.027682E+05	   4.018260E+06	   0.000000E+00	   0.000000E+00	   1.398911E+08	   5.586973E+00	   1.262323E+07	   0.000000E+00	  -4.240391E+05	   4.429729E+03	  -3.446380E+05	  -2.196827E+05	   4.539640E+07	   3.306041E+04
    0.0500	   1.059075E-01	  -8.789820E+05	   1.250041E+04	   4.536595E+07	  -3.711485E+05	   5.225468E+07	   1.072362E+05	   4.999971E+00	  -8.055729E-07	   2.972125E-05	   2.928349E-08	   3.315302E-02	  -2.403738E-09	  -1.097950E-03	  -3.996007E-05	   1.181957E-03	   1.403124E-06	  -3.284578E-04	  -2.048084E-07	  -1.797662E-02	  -1.579365E-03	   2.315413E-02	   5.535234E-05	  -6.467239E-03	  -9.512799E-06	   3.421906E+05	   3.985685E+05	   3.855404E+06	   0.000000E+00	   0.000000E+00	   1.398910E+08	   1.117908E+01	   1.262186E+07	   0.000000E+00	  -4.338361E+05	   5.536256E+03	  -3.403517E+05	  -2.647664E+05	   4.510902E+07	   4.632170E+04
    0.0625	   1.044046E-01	  -8.857568E+05	   1.278505E+04	   4.536905E+07	  -3.450789E+05	   5.167865E+07	   1.302304E+05	   4.999956E+00	  -1.425508E-06	   4.629667E-05	   5.098270E-08	   3.314841E-02	  -5.031064E-09	  -1.308404E-03	  -5.780160E-05	   1.469460E-03	   2.001324E-06	  -4.089099E-04	  -3.316724E-07	  -1.533455E-02	  -1.565773E-03	   2.282408E-02	   5.315911E-05	  -6.388898E-03	  -1.136175E-05	   3.597662E+05	   3.943688E+05	   3.692546E+06	   0.000000E+00	   0.000000E+00	   1.398910E+08	   1.947350E+01	   1.262010E+07	   0.000000E+00	  -4.443417E+05	   5.635872E+03	  -3.355035E+05	  -2.501022E+05	   4.476980E+07	   5.532981E+04
    0.0750	   1.029017E-01	  -8.928821E+05	   9.959057E+03	   4.537285E+07	  -2.013295E+05	   5.107110E+07	   1.385528E+05	   4.999938E+00	  -2.257372E-06	   6.643895E-05	   7.961516E-08	   3.314280E-02	  -9.125365E-09	  -1.485340E-03	  -7.322551E-05	   1.752755E-03	   2.489332E-06	  -4.883599E-04	  -4.740380E-07	  -1.261754E-02	  -1.122763E-03	   2.246323E-02	   3.465974E-05	  -6.306820E-03	  -1.179281E-05	   3.773418E+05	   3.901690E+05	   3.529689E+06	   0.000000E+00	   0.000000E+00	   1.398909E+08	   3.042603E+01	   1.261797E+07	   0.000000E+00	  -4.550269E+05	   4.338027E+03	  -3.302036E+05	  -1.543871E+05	   4.441027E+07	   5.743818E+04
    0.0875	   1.013989E-01	  -8.991844E+05	   3.640478E+03	   4.537718E+07	   7.249681E+04	   5.047787E+07	   1.287003E+05	   4.999919E+00	  -3.235283E-06	   9.009390E-05	   1.124505E-07	   3.313620E-02	  -1.485046E-08	  -1.628720E-03	  -8.120779E-05	   2.031363E-03	   2.680217E-06	  -5.667942E-04	  -6.139890E-07	  -9.989581E-03	  -2.005916E-04	   2.207936E-02	  -1.939492E-06	  -6.227301E-03	  -1.049606E-05	   3.949173E+05	   3.859692E+05	   3.366832E+06	   0.000000E+00	   0.000000E+00	   1.398908E+08	   4.299924E+01	   1.261546E+07	   0.000000E+00	  -4.653648E+05	   1.472684E+03	  -3.245662E+05	   3.108131E+04	   4.406187E+07	   5.113862E+04
    0.1000	   9.989595E-02	  -9.036002E+05	  -6.006358E+03	   4.538190E+07	   4.685997E+05	   4.994050E+07	   1.002227E+05	   4.999898E+00	  -4.230922E-06	   1.172009E-04	   1.444473E-07	   3.312863E-02	  -2.221081E-08	  -1.740385E-03	  -7.579214E-05	   2.305070E-03	   2.349568E-06	  -6.442713E-04	  -7.291954E-07	  -7.599310E-03	   1.175701E-03	   2.168005E-02	  -5.561351E-05	  -6.156049E-03	  -7.448760E-06	   4.124928E+05	   3.817696E+05	   3.203974E+06	   0.000000E+00	   0.000000E+00	   1.398907E+08	   5.527375E+01	   1.261258E+07	   0.000000E+00	  -4.748781E+05	  -2.885124E+03	  -3.187027E+05	   3.010410E+05	   4.375313E+07	   3.632057E+04
    0.1125	   9.839307E-02	  -9.052989E+05	  -1.824273E+04	   4.538686E+07	   9.579763E+05	   4.949164E+07	   5.592829E+04	   4.999876E+00	  -5.043137E-06	   1.476978E-04	   1.678162E-07	   3.312010E-02	  -3.102287E-08	  -1.823904E-03	  -5.200386E-05	   2.573701E-03	   1.311508E-06	  -7.209163E-04	  -7.995558E-07	  -5.563109E-03	   2.902521E-03	   2.127229E-02	  -1.223786E-04	  -6.097540E-03	  -2.934001E-06	   4.300684E+05	   3.775698E+05	   3.041117E+06	   0.000000E+00	   0.000000E+00	   1.398906E+08	   6.428175E+01	   1.260933E+07	   0.000000E+00	  -4.831940E+05	  -8.402735E+03	  -3.127161E+05	   6.355778E+05	   4.350641E+07	   1.436190E+04
    0.1250	   9.689017E-02	  -9.036437E+05	  -3.186671E+04	   4.539193E+07	   1.494606E+06	   4.915577E+07	   1.525755E+03	   4.999853E+00	  -5.419506E-06	   1.815206E-04	   1.728641E-07	   3.311061E-02	  -4.094681E-08	  -1.884065E-03	  -6.205437E-06	   2.837181E-03	  -5.705654E-07	  -7.969015E-04	  -8.092070E-07	  -3.969429E-03	   4.813036E-03	   2.086190E-02	  -1.958732E-04	  -6.055152E-03	   2.496517E-06	   4.476440E+05	   3.733701E+05	   2.878260E+06	   0.000000E+00	   0.000000E+00	   1.398904E+08	   6.632854E+01	   1.260572E+07	   0.000000E+00	  -4.900272E+05	  -1.453980E+04	  -3.066916E+05	   1.003011E+06	   4.333857E+07	  -1.205243E+04
    0.1375	   9.538728E-02	  -8.983644E+05	  -4.537981E+04	   4.539705E+07	   2.021665E+06	   4.894325E+07	  -5.523826E+04	   4.999829E+00	  -5.075245E-06	   2.186047E-04	   1.486843E-07	   3.310018E-02	  -5.153008E-08	  -1.926703E-03	   6.293433E-05	   3.095492E-03	  -3.345922E-06	  -8.724392E-04	  -7.503991E-07	  -2.855755E-03	   6.700073E-03	   2.045165E-02	  -2.682241E-04	  -6.030314E-03	   8.104611E-06	   4.652195E+05	   3.691703E+05	   2.715402E+06	   0.000000E+00	   0.000000E+00	   1.398903E+08	   5.725609E+01	   1.260174E+07	   0.000000E+00	  -4.952573E+05	  -2.062305E+04	  -3.006700E+05	   1.364191E+06	   4.325672E+07	  -3.933013E+04
    0.1500	   9.388439E-02	  -8.896798E+05	  -5.721404E+04	   4.540220E+07	   2.480006E+06	   4.884621E+07	  -1.057997E+05	   4.999804E+00	  -3.725637E-06	   2.588857E-04	   8.438896E-08	   3.308880E-02	  -6.228267E-08	  -1.957623E-03	   1.542263E-04	   3.348628E-03	  -6.968985E-06	  -9.477406E-04	  -6.247841E-07	  -2.192544E-03	   8.347319E-03	   2.004201E-02	  -3.312257E-04	  -6.021921E-03	   1.308115E-05	   4.827951E+05	   3.649706E+05	   2.552545E+06	   0.000000E+00	   0.000000E+00	   1.398901E+08	   3.291296E+01	   1.259741E+07	   0.000000E+00	  -4.989824E+05	  -2.594831E+04	  -2.946582E+05	   1.678349E+06	   4.325540E+07	  -6.353382E+04
    0.1625	   9.238149E-02	  -8.780586E+05	  -6.597098E+04	   4.540736E+07	   2.817038E+06	   4.884639E+07	  -1.421266E+05	   4.999780E+00	  -1.116875E-06	   3.022988E-04	  -2.973248E-08	   3.307649E-02	  -7.275708E-08	  -1.982026E-03	   2.638900E-04	   3.596602E-03	  -1.129600E-05	  -1.022996E-03	  -4.439498E-07	  -1.914429E-03	   9.562102E-03	   1.963333E-02	  -3.775782E-04	  -6.027463E-03	   1.667287E-05	   5.003707E+05	   3.607708E+05	   2.389688E+06	   0.000000E+00	   0.000000E+00	   1.398900E+08	  -1.040347E+01	   1.259272E+07	   0.000000E+00	  -5.014137E+05	  -2.988771E+04	  -2.886616E+05	   1.909234E+06	   4.332208E+07	  -8.099821E+04
    0.1750	   9.087860E-02	  -8.642311E+05	  -7.064313E+04	   4.541255E+07	   2.994953E+06	   4.891559E+07	  -1.579308E+05	   4.999755E+00	   2.943746E-06	   3.487795E-04	  -2.010675E-07	   3.306323E-02	  -8.262834E-08	  -2.004359E-03	   3.860288E-04	   3.839433E-03	  -1.610289E-05	  -1.098365E-03	  -2.279699E-07	  -1.919348E-03	   1.020575E-02	   1.922497E-02	  -4.020328E-04	  -6.043019E-03	   1.829665E-05	   5.179462E+05	   3.565711E+05	   2.226830E+06	   0.000000E+00	   0.000000E+00	   1.398898E+08	  -7.550983E+01	   1.258768E+07	   0.000000E+00	  -5.028798E+05	  -3.198900E+04	  -2.826702E+05	   2.030795E+06	   4.343718E+07	  -8.888628E+04
    0.1875	   8.937570E-02	  -8.491616E+05	  -7.077080E+04	   4.541780E+07	   2.996571E+06	   4.901662E+07	  -1.494462E+05	   4.999730E+00	   8.566305E-06	   3.982637E-04	  -4.338634E-07	   3.304902E-02	  -9.175731E-08	  -2.027395E-03	   5.133464E-04	   4.077117E-03	  -2.111193E-05	  -1.173946E-03	  -3.003725E-09	  -2.072606E-03	   1.021511E-02	   1.881456E-02	  -4.022048E-04	  -6.063413E-03	   1.761406E-05	   5.355218E+05	   3.523713E+05	   2.063973E+06	   0.000000E+00	   0.000000E+00	   1.398896E+08	  -1.640249E+02	   1.258227E+07	   0.000000E+00	  -5.038143E+05	  -3.204596E+04	  -2.766496E+05	   2.031206E+06	   4.357482E+07	  -8.555170E+04
    0.2000	   8.787281E-02	  -8.339278E+05	  -6.651996E+04	   4.542317E+07	   2.828198E+06	   4.910727E+07	  -1.161827E+05	   4.999704E+00	   1.576671E-05	   4.506866E-04	  -7.287804E-07	   3.303388E-02	  -1.002330E-07	  -2.052247E-03	   6.381258E-04	   4.309623E-03	  -2.602857E-05	  -1.249770E-03	   2.018694E-07	  -2.223548E-03	   9.613179E-03	   1.839920E-02	  -3.789727E-04	  -6.082855E-03	   1.459792E-05	   5.530974E+05	   3.481716E+05	   1.901116E+06	   0.000000E+00	   0.000000E+00	   1.398894E+08	  -2.761989E+02	   1.257650E+07	   0.000000E+00	  -5.047017E+05	  -3.013328E+04	  -2.705568E+05	   1.914846E+06	   4.370608E+07	  -7.086295E+04
    0.2125	   8.573638E-02	  -8.216741E+05	  -5.866386E+04	   4.542847E+07	   2.518920E+06	   4.910611E+07	  -6.100836E+04	   4.999678E+00	   2.446815E-05	   5.059832E-04	  -1.082936E-06	   3.301778E-02	  -1.083846E-07	  -2.078129E-03	   7.532852E-04	   4.536883E-03	  -3.058131E-05	  -1.325799E-03	   3.588313E-07	  -2.280765E-03	   8.506535E-03	   1.795638E-02	  -3.363801E-04	  -6.091744E-03	   9.537607E-06	   5.667544E+05	   3.432980E+05	   1.763563E+06	   0.000000E+00	   0.000000E+00	   1.398892E+08	  -4.109302E+02	   1.257037E+07	   0.000000E+00	  -5.053179E+05	  -2.659834E+04	  -2.640614E+05	   1.701802E+06	   4.376950E+07	  -4.622865E+04
    0.2250	   8.359996E-02	  -8.113610E+05	  -4.847209E+04	   4.543397E+07	   2.116423E+06	   4.901194E+07	   1.032426E+04	   4.999652E+00	   3.451516E-05	   5.640846E-04	  -1.490424E-06	   3.300073E-02	  -1.167602E-07	  -2.103854E-03	   8.533400E-04	   4.758331E-03	  -3.455807E-05	  -1.401831E-03	   4.449988E-07	  -2.041141E-03	   7.070045E-03	   1.750257E-02	  -2.810544E-04	  -6.088353E-03	   2.992399E-06	   5.804115E+05	   3.384244E+05	   1.626010E+06	   0.000000E+00	   0.000000E+00	   1.398890E+08	  -5.659638E+02	   1.256388E+07	   0.000000E+00	  -5.068337E+05	  -2.201127E+04	  -2.574048E+05	   1.424991E+06	   4.376992E+07	  -1.437077E+04
    0.2375	   8.146353E-02	  -8.038449E+05	  -3.752390E+04	   4.543970E+07	   1.679999E+06	   4.879112E+07	   8.983356E+04	   4.999626E+00	   4.569835E-05	   6.249191E-04	  -1.943240E-06	   3.298273E-02	  -1.260767E-07	  -2.124119E-03	   9.351350E-04	   4.974153E-03	  -3.783417E-05	  -1.477754E-03	   4.453566E-07	  -1.384865E-03	   5.521186E-03	   1.703615E-02	  -2.212351E-04	  -6.068073E-03	  -4.275329E-06	   5.940686E+05	   3.335508E+05	   1.488457E+06	   0.000000E+00	   0.000000E+00	   1.398888E+08	  -7.382426E+02	   1.255703E+07	   0.000000E+00	  -5.096339E+05	  -1.708126E+04	  -2.505637E+05	   1.125324E+06	   4.368429E+07	   2.100083E+04
    0.2500	   7.932711E-02	  -7.997393E+05	  -2.747685E+04	   4.544564E+07	   1.271882E+06	   4.841955E+07	   1.685024E+05	   4.999599E+00	   5.778600E-05	   6.884145E-04	  -2.432467E-06	   3.296379E-02	  -1.371465E-07	  -2.133555E-03	   9.982414E-04	   5.184102E-03	  -4.038760E-05	  -1.553320E-03	   3.549906E-07	  -2.261123E-04	   4.088202E-03	   1.655698E-02	  -1.655680E-04	  -6.027604E-03	  -1.141378E-05	   6.077256E+05	   3.286772E+05	   1.350904E+06	   0.000000E+00	   0.000000E+00	   1.398885E+08	  -9.243616E+02	   1.254982E+07	   0.000000E+00	  -5.139945E+05	  -1.255261E+04	  -2.435359E+05	   8.457309E+05	   4.349612E+07	   5.574152E+04
    0.2625	   7.719068E-02	  -7.993265E+05	  -1.982425E+04	   4.545176E+07	   9.481498E+05	   4.788588E+07	   2.375970E+05	   4.999572E+00	   7.055829E-05	   7.544965E-04	  -2.949565E-06	   3.294390E-02	  -1.507908E-07	  -2.125708E-03	   1.044953E-03	   5.388035E-03	  -4.229935E-05	  -1.628272E-03	   1.795149E-07	   1.474854E-03	   2.976731E-03	   1.606607E-02	  -1.218414E-04	  -5.965407E-03	  -1.760633E-05	   6.213827E+05	   3.238037E+05	   1.213351E+06	   0.000000E+00	   0.000000E+00	   1.398883E+08	  -1.121060E+03	   1.254225E+07	   0.000000E+00	  -5.200426E+05	  -9.095898E+03	  -2.363360E+05	   6.248786E+05	   4.319768E+07	   8.587823E+04
    0.2750	   7.505426E-02	  -8.025989E+05	  -1.567483E+04	   4.545799E+07	   7.504792E+05	   4.719029E+07	   2.899196E+05	   4.999546E+00	   8.383887E-05	   8.230892E-04	  -3.487568E-06	   3.292309E-02	  -1.677524E-07	  -2.093844E-03	   1.079874E-03	   5.585815E-03	  -4.373816E-05	  -1.702339E-03	  -6.595987E-08	   3.717006E-03	   2.339506E-03	   1.556642E-02	  -9.584021E-05	  -5.881516E-03	  -2.218906E-05	   6.350398E+05	   3.189301E+05	   1.075798E+06	   0.000000E+00	   0.000000E+00	   1.398880E+08	  -1.325676E+03	   1.253432E+07	   0.000000E+00	  -5.277749E+05	  -7.209007E+03	  -2.290082E+05	   4.914890E+05	   4.278916E+07	   1.081813E+05
    0.2875	   7.291783E-02	  -8.092058E+05	  -1.559566E+04	   4.546424E+07	   7.002349E+05	   4.634623E+07	   3.208809E+05	   4.999520E+00	   9.751907E-05	   8.941150E-04	  -4.042007E-06	   3.290135E-02	  -1.886218E-07	  -2.031379E-03	   1.109181E-03	   5.777360E-03	  -4.493302E-05	  -1.775256E-03	  -3.591634E-07	   6.451563E-03	   2.254700E-03	   1.506262E-02	  -9.052514E-05	  -5.777798E-03	  -2.474903E-05	   6.486968E+05	   3.140565E+05	   9.382446E+05	   0.000000E+00	   0.000000E+00	   1.398877E+08	  -1.536500E+03	   1.252605E+07	   0.000000E+00	  -5.370344E+05	  -7.146593E+03	  -2.216201E+05	   4.602632E+05	   4.227983E+07	   1.206430E+05
    0.3000	   7.078141E-02	  -8.185376E+05	  -1.953119E+04	   4.547037E+07	   7.954324E+05	   4.537752E+07	   3.291617E+05	   4.999496E+00	   1.115715E-04	   9.674959E-04	  -4.611432E-06	   3.287871E-02	  -2.137860E-07	  -1.932672E-03	   1.139662E-03	   5.962649E-03	  -4.613707E-05	  -1.846796E-03	  -6.741431E-07	   9.593156E-03	   2.714793E-03	   1.456039E-02	  -1.056119E-04	  -5.657531E-03	  -2.518373E-05	   6.623539E+05	   3.091829E+05	   8.006916E+05	   0.000000E+00	   0.000000E+00	   1.398874E+08	  -1.752977E+03	   1.251743E+07	   0.000000E+00	  -5.475473E+05	  -8.883758E+03	  -2.142555E+05	   5.297919E+05	   4.168611E+07	   1.227660E+05
    0.3125	   6.864499E-02	  -8.297413E+05	  -2.681625E+04	   4.547626E+07	   1.011199E+06	   4.431737E+07	   3.168132E+05	   4.999472E+00	   1.260512E-04	   1.043154E-03	  -5.197465E-06	   3.285519E-02	  -2.434082E-07	  -1.793165E-03	   1.177650E-03	   6.141730E-03	  -4.758721E-05	  -1.916771E-03	  -9.852647E-07	   1.302261E-02	   3.628330E-03	   1.406646E-02	  -1.376371E-04	  -5.525290E-03	  -2.370809E-05	   6.760109E+05	   3.043093E+05	   6.631385E+05	   0.000000E+00	   0.000000E+00	   1.398872E+08	  -1.975721E+03	   1.250847E+07	   0.000000E+00	  -5.589308E+05	  -1.212185E+04	  -2.070135E+05	   6.828816E+05	   4.103082E+07	   1.155980E+05
    0.3250	   6.650856E-02	  -8.418217E+05	  -3.627627E+04	   4.548174E+07	   1.303520E+06	   4.320463E+07	   2.889227E+05	   4.999451E+00	   1.410836E-04	   1.121012E-03	  -5.804360E-06	   3.283080E-02	  -2.774410E-07	  -1.610011E-03	   1.228058E-03	   6.314746E-03	  -4.946784E-05	  -1.985059E-03	  -1.270923E-06	   1.660075E-02	   4.833695E-03	   1.358806E-02	  -1.804798E-04	  -5.386418E-03	  -2.082002E-05	   6.896680E+05	   2.994357E+05	   5.255854E+05	   0.000000E+00	   0.000000E+00	   1.398868E+08	  -2.206354E+03	   1.249919E+07	   0.000000E+00	  -5.707380E+05	  -1.633349E+04	  -2.000003E+05	   8.891437E+05	   4.034067E+07	   1.015634E+05
    0.3375	   6.437213E-02	  -8.537354E+05	  -4.639929E+04	   4.548668E+07	   1.615677E+06	   4.208016E+07	   2.528488E+05	   4.999432E+00	   1.568416E-04	   1.200996E-03	  -6.438164E-06	   3.280557E-02	  -3.156691E-07	  -1.382056E-03	   1.293601E-03	   6.481923E-03	  -5.188083E-05	  -2.051604E-03	  -1.516806E-06	   2.018151E-02	   6.122780E-03	   1.313258E-02	  -2.262578E-04	  -5.246531E-03	  -1.722580E-05	   7.033251E+05	   2.945621E+05	   3.880325E+05	   0.000000E+00	   0.000000E+00	   1.398865E+08	  -2.447180E+03	   1.248958E+07	   0.000000E+00	  -5.825007E+05	  -2.083975E+04	  -1.933244E+05	   1.109444E+06	   3.964372E+07	   8.410073E+04
    0.3500	   6.223571E-02	  -8.644848E+05	  -5.555399E+04	   4.549092E+07	   1.886432E+06	   4.098309E+07	   2.170700E+05	   4.999416E+00	   1.735159E-04	   1.283035E-03	  -7.105569E-06	   3.277952E-02	  -3.577772E-07	  -1.109981E-03	   1.374353E-03	   6.643577E-03	  -5.482867E-05	  -2.116418E-03	  -1.717982E-06	   2.362516E-02	   7.271010E-03	   1.270705E-02	  -2.664646E-04	  -5.111001E-03	  -1.373082E-05	   7.169821E+05	   2.896885E+05	   2.504794E+05	   0.000000E+00	   0.000000E+00	   1.398862E+08	  -2.700750E+03	   1.247966E+07	   0.000000E+00	  -5.937709E+05	  -2.490813E+04	  -1.870893E+05	   1.301548E+06	   3.896683E+07	   6.713002E+04
    0.3625	   6.009928E-02	  -8.732107E+05	  -6.222020E+04	   4.549433E+07	   2.058687E+06	   3.994722E+07	   1.898792E+05	   4.999404E+00	   1.912807E-04	   1.367063E-03	  -7.812650E-06	   3.275267E-02	  -4.034297E-07	  -7.960962E-04	   1.467669E-03	   6.800108E-03	  -5.821110E-05	  -2.179579E-03	  -1.879538E-06	   2.681118E-02	   8.069088E-03	   1.231757E-02	  -2.931727E-04	  -4.984469E-03	  -1.111710E-05	   7.306392E+05	   2.848149E+05	   1.129263E+05	   0.000000E+00	   0.000000E+00	   1.398859E+08	  -2.969382E+03	   1.246944E+07	   0.000000E+00	  -6.041632E+05	  -2.785601E+04	  -1.813844E+05	   1.426096E+06	   3.833320E+07	   5.445743E+04
    0.3750	   5.796285E-02	  -8.792699E+05	  -6.519921E+04	   4.549682E+07	   2.087420E+06	   3.899796E+07	   1.781288E+05	   4.999397E+00	   2.102620E-04	   1.453017E-03	  -8.563647E-06	   3.272504E-02	  -4.523518E-07	  -4.440712E-04	   1.568504E-03	   6.951979E-03	  -6.183662E-05	  -2.241215E-03	  -2.015690E-06	   2.964917E-02	   8.352011E-03	   1.196879E-02	  -3.001340E-04	  -4.870416E-03	  -1.002626E-05	   7.442962E+05	   2.799413E+05	  -2.462670E+04	   0.000000E+00	   0.000000E+00	   1.398856E+08	  -3.254695E+03	   1.245892E+07	   0.000000E+00	  -6.133889E+05	  -2.914520E+04	  -1.762784E+05	   1.452068E+06	   3.776026E+07	   4.920546E+04
    0.3875	   5.582643E-02	  -8.822995E+05	  -6.377268E+04	   4.549835E+07	   1.945694E+06	   3.814992E+07	   1.862797E+05	   4.999393E+00	   2.305112E-04	   1.540844E-03	  -9.359979E-06	   3.269664E-02	  -5.043984E-07	  -5.851036E-05	   1.670044E-03	   7.099706E-03	  -6.544637E-05	  -2.301490E-03	  -2.147552E-06	   3.208775E-02	   8.021018E-03	   1.166306E-02	  -2.836129E-04	  -4.770835E-03	  -1.087101E-05	   7.579533E+05	   2.750678E+05	  -1.621797E+05	   0.000000E+00	   0.000000E+00	   1.398852E+08	  -3.557230E+03	   1.244811E+07	   0.000000E+00	  -6.212852E+05	  -2.845325E+04	  -1.718055E+05	   1.360929E+06	   3.725800E+07	   5.338251E+04
    0.4000	   5.369000E-02	  -8.822323E+05	  -5.779224E+04	   4.549890E+07	   1.628081E+06	   3.740612E+07	   2.156336E+05	   4.999395E+00	   2.519889E-04	   1.630495E-03	  -1.019960E-05	   3.266750E-02	  -5.596005E-07	   3.555592E-04	   1.764587E-03	   7.243820E-03	  -6.874698E-05	  -2.360587E-03	  -2.300025E-06	   3.411689E-02	   7.056009E-03	   1.140055E-02	  -2.428583E-04	  -4.686127E-03	  -1.376658E-05	   7.716104E+05	   2.701942E+05	  -2.997328E+05	   0.000000E+00	   0.000000E+00	   1.398849E+08	  -3.876208E+03	   1.243702E+07	   0.000000E+00	  -6.278225E+05	  -2.571377E+04	  -1.679683E+05	   1.148972E+06	   3.682847E+07	   6.754900E+04
    0.4125	   5.099303E-02	  -8.820555E+05	  -4.768442E+04	   4.549842E+07	   1.150950E+06	   3.671944E+07	   2.642157E+05	   4.999403E+00	   2.745596E-04	   1.721927E-03	  -1.107681E-05	   3.263763E-02	  -6.181818E-07	   7.931833E-04	   1.844520E-03	   7.384850E-03	  -7.144763E-05	  -2.418686E-03	  -2.497838E-06	   3.572348E-02	   5.516345E-03	   1.116464E-02	  -1.801384E-04	  -4.610715E-03	  -1.852094E-05	   7.807632E+05	   2.649017E+05	  -4.069726E+05	   0.000000E+00	   0.000000E+00	   1.398846E+08	  -4.209457E+03	   1.242564E+07	   0.000000E+00	  -6.324418E+05	  -2.111873E+04	  -1.645224E+05	   8.275036E+05	   3.643033E+07	   9.077028E+04
    0.4250	   4.829606E-02	  -8.795876E+05	  -3.437888E+04	   4.549708E+07	   5.497522E+05	   3.610675E+07	   3.272597E+05	   4.999415E+00	   2.979987E-04	   1.815104E-03	  -1.198251E-05	   3.260704E-02	  -6.805437E-07	   1.248933E-03	   1.903259E-03	   7.522949E-03	  -7.329588E-05	  -2.475838E-03	  -2.761947E-06	   3.703124E-02	   3.530957E-03	   1.096643E-02	  -1.003653E-04	  -4.545980E-03	  -2.467933E-05	   7.899162E+05	   2.596092E+05	  -5.142124E+05	   0.000000E+00	   0.000000E+00	   1.398842E+08	  -4.553504E+03	   1.241400E+07	   0.000000E+00	  -6.360642E+05	  -1.508609E+04	  -1.616310E+05	   4.209757E+05	   3.608408E+07	   1.208332E+05
    0.4375	   4.559910E-02	  -8.756089E+05	  -1.916670E+04	   4.549500E+07	  -1.261634E+05	   3.553822E+07	   3.979791E+05	   4.999434E+00	   3.220109E-04	   1.909993E-03	  -1.290485E-05	   3.257574E-02	  -7.472209E-07	   1.720385E-03	   1.936041E-03	   7.658815E-03	  -7.410778E-05	  -2.532230E-03	  -3.106701E-06	   3.814828E-02	   1.278984E-03	   1.080019E-02	  -1.036629E-05	  -4.487799E-03	  -3.159720E-05	   7.990691E+05	   2.543167E+05	  -6.214522E+05	   0.000000E+00	   0.000000E+00	   1.398838E+08	  -4.903838E+03	   1.240208E+07	   0.000000E+00	  -6.390404E+05	  -8.196312E+03	  -1.592100E+05	  -3.661896E+04	   3.576918E+07	   1.546014E+05
    0.4500	   4.290212E-02	  -8.710389E+05	  -3.516094E+03	   4.549231E+07	  -8.204790E+05	   3.497860E+07	   4.686360E+05	   4.999458E+00	   3.462555E-04	   2.006568E-03	  -1.383027E-05	   3.254373E-02	  -8.188193E-07	   2.205610E-03	   1.940429E-03	   7.792749E-03	  -7.378750E-05	  -2.587896E-03	  -3.537939E-06	   3.920195E-02	  -1.035610E-03	   1.065942E-02	   8.207773E-05	  -4.431309E-03	  -3.854018E-05	   8.082220E+05	   2.490242E+05	  -7.286921E+05	   0.000000E+00	   0.000000E+00	   1.398835E+08	  -5.255281E+03	   1.238990E+07	   0.000000E+00	  -6.417831E+05	  -1.109553E+03	  -1.571637E+05	  -5.065227E+05	   3.546140E+07	   1.885018E+05
    0.4625	   4.020515E-02	  -8.668921E+05	   1.112626E+04	   4.548913E+07	  -1.477383E+06	   3.438904E+07	   5.315262E+05	   4.999489E+00	   3.703774E-04	   2.104806E-03	  -1.474457E-05	   3.251104E-02	  -8.959428E-07	   2.704440E-03	   1.916519E-03	   7.925046E-03	  -7.233578E-05	  -2.642833E-03	  -4.052386E-06	   4.033279E-02	  -3.211424E-03	   1.053835E-02	   1.692706E-04	  -4.371149E-03	  -4.477827E-05	   8.173749E+05	   2.437317E+05	  -8.359318E+05	   0.000000E+00	   0.000000E+00	   1.398831E+08	  -5.602428E+03	   1.237745E+07	   0.000000E+00	  -6.447481E+05	   5.523564E+03	  -1.554073E+05	  -9.503708E+05	   3.513403E+07	   2.189829E+05
    0.4750	   3.750819E-02	  -8.641598E+05	   2.352132E+04	   4.548557E+07	  -2.048603E+06	   3.373174E+07	   5.803331E+05	   4.999526E+00	   3.940377E-04	   2.204690E-03	  -1.563417E-05	   3.247767E-02	  -9.791197E-07	   3.218581E-03	   1.866797E-03	   8.055931E-03	  -6.984481E-05	  -2.696970E-03	  -4.638076E-06	   4.167788E-02	  -5.075315E-03	   1.043099E-02	   2.445762E-04	  -4.302095E-03	  -4.970907E-05	   8.265279E+05	   2.384392E+05	  -9.431718E+05	   0.000000E+00	   0.000000E+00	   1.398827E+08	  -5.940098E+03	   1.236474E+07	   0.000000E+00	  -6.483800E+05	   1.114558E+04	  -1.538525E+05	  -1.335038E+06	   3.476108E+07	   2.431144E+05
    0.4875	   3.481122E-02	  -8.637395E+05	   3.278849E+04	   4.548178E+07	  -2.499122E+06	   3.297263E+07	   6.112892E+05	   4.999569E+00	   4.169410E-04	   2.306201E-03	  -1.648711E-05	   3.244362E-02	  -1.068742E-06	   3.751276E-03	   1.795701E-03	   8.185553E-03	  -6.648224E-05	  -2.750173E-03	  -5.276674E-06	   4.336100E-02	  -6.503257E-03	   1.033071E-02	   3.032105E-04	  -4.219439E-03	  -5.296262E-05	   8.356808E+05	   2.331467E+05	  -1.050412E+06	   0.000000E+00	   0.000000E+00	   1.398823E+08	  -6.263733E+03	   1.235178E+07	   0.000000E+00	  -6.530815E+05	   1.535998E+04	  -1.524022E+05	  -1.636575E+06	   3.431913E+07	   2.590977E+05
    0.5000	   3.211424E-02	  -8.662189E+05	   3.849090E+04	   4.547784E+07	  -2.810539E+06	   3.208906E+07	   6.229320E+05	   4.999620E+00	   4.388555E-04	   2.409325E-03	  -1.729385E-05	   3.240892E-02	  -1.165030E-06	   4.307241E-03	   1.708958E-03	   8.313969E-03	  -6.246621E-05	  -2.802257E-03	  -5.946798E-06	   4.546370E-02	  -7.432275E-03	   1.023355E-02	   3.427004E-04	  -4.120064E-03	  -5.438782E-05	   8.448336E+05	   2.278542E+05	  -1.157651E+06	   0.000000E+00	   0.000000E+00	   1.398819E+08	  -6.569697E+03	   1.233857E+07	   0.000000E+00	  -6.591167E+05	   1.796953E+04	  -1.509980E+05	  -1.842505E+06	   3.379263E+07	   2.661992E+05
    0.5125	   2.941728E-02	  -8.718906E+05	   4.065467E+04	   4.547381E+07	  -2.981927E+06	   3.106964E+07	   6.159648E+05	   4.999677E+00	   4.596246E-04	   2.514046E-03	  -1.804770E-05	   3.237357E-02	  -1.268023E-06	   4.891807E-03	   1.612828E-03	   8.441212E-03	  -5.803712E-05	  -2.853010E-03	  -6.625936E-06	   4.802661E-02	  -7.863274E-03	   1.013685E-02	   3.629975E-04	  -4.002414E-03	  -5.404251E-05	   8.539866E+05	   2.225617E+05	  -1.264891E+06	   0.000000E+00	   0.000000E+00	   1.398815E+08	  -6.855446E+03	   1.232511E+07	   0.000000E+00	  -6.666169E+05	   1.898487E+04	  -1.496008E+05	  -1.952399E+06	   3.317382E+07	   2.647018E+05
    0.5250	   2.672031E-02	  -8.808371E+05	   3.972434E+04	   4.546972E+07	  -3.028283E+06	   2.991162E+07	   5.931041E+05	   4.999743E+00	   4.791687E-04	   2.620351E-03	  -1.874495E-05	   3.233760E-02	  -1.377584E-06	   5.510822E-03	   1.513313E-03	   8.567275E-03	  -5.342720E-05	  -2.902199E-03	  -7.293095E-06	   5.106042E-02	  -7.855077E-03	   1.003888E-02	   3.662569E-04	  -3.866101E-03	  -5.217785E-05	   8.631394E+05	   2.172692E+05	  -1.372131E+06	   0.000000E+00	   0.000000E+00	   1.398811E+08	  -7.119571E+03	   1.231142E+07	   0.000000E+00	  -6.756192E+05	   1.860466E+04	  -1.481851E+05	  -1.976791E+06	   3.246082E+07	   2.558290E+05
    0.5375	   2.402334E-02	  -8.929386E+05	   3.645735E+04	   4.546558E+07	  -2.976698E+06	   2.862075E+07	   5.585071E+05	   4.999815E+00	   4.974772E-04	   2.728223E-03	  -1.938458E-05	   3.230102E-02	  -1.493424E-06	   6.170065E-03	   1.415500E-03	   8.692138E-03	  -4.883566E-05	  -2.949595E-03	  -7.931120E-06	   5.454665E-02	  -7.510074E-03	   9.940199E-03	   3.562989E-04	  -3.711886E-03	  -4.918428E-05	   8.722924E+05	   2.119767E+05	  -1.479371E+06	   0.000000E+00	   0.000000E+00	   1.398807E+08	  -7.361687E+03	   1.229749E+07	   0.000000E+00	  -6.860690E+05	   1.716822E+04	  -1.467593E+05	  -1.934518E+06	   3.165754E+07	   2.414816E+05