
Predictions were generated on 02-Aug-2024 at 17:09:23 using HydroDyn Driver, compiled on Aug 02 2024 at 15:40:18 as a 64-bit application using double precision at commit v3.5.3-1521-g907819f3-dirty
 linked with  NWTC Subroutine Library

Description from the driver input file: NREL 5.0 MW offshore baseline floating platform HydroDyn input properties for the OC4 Semi-submersible.

Time	Wave1Elev	HydroFxi	HydroFyi	HydroFzi	HydroMxi	HydroMyi	HydroMzi	B1Surge	B1Sway	B1Heave	B1Roll	B1Pitch	B1Yaw	B1TVxi	B1TVyi	B1TVzi	B1RVxi	B1RVyi	B1RVzi	B1TAxi	B1TAyi	B1TAzi	B1RAxi	B1RAyi	B1RAzi	B1WvsFxi	B1WvsFzi	B1WvsMyi	B1HDSFxi	B1HDSFyi	B1HDSFzi	B1HDSMxi	B1HDSMyi	B1HDSMzi	B1RdtFxi	B1RdtFyi	B1RdtFzi	B1RdtMxi	B1RdtMyi	B1RdtMzi
(s)	(m)	(N)	(N)	(N)	(N-m)	(N-m)	(N-m)	(m)	(m)	(m)	(rad)	(rad)	(rad)	(m/s)	(m/s)	(m/s)	(rad/s)	(rad/s)	(rad/s)	(m/s^2)	(m/s^2)	(m/s^2)	(rad/s^2)	(rad/s^2)	(rad/s^2)	(N)	(N)	(N-m)	(N)	(N)	(N)	(N-m)	(N-m)	(N-m)	(N)	(N)	(N)	(N-m)	(N-m)	(N-m)
    0.0000	   1.119191E-01	  -8.766907E+05	   7.324548E+02	   4.536316E+07	  -2.400523E+04	   5.341216E+07	   8.166161E+02	   5.000000E+00	   0.000000E+00	   0.000000E+00	   0.000000E+00	   3.316126E-02	   0.000000E+00	   0.000000E+00	   0.000000E+00	   0.000000E+00	   0.000000E+00	   0.000000E+00	   0.000000E+00	  -2.481871E-02	  -9.563637E-05	   2.403348E-02	   3.466276E-06	  -6.628965E-03	  -1.166936E-07	   2.718884E+05	   4.153675E+05	   4.506832E+06	   0.000000E+00	   0.000000E+00	   1.398911E+08	   0.000000E+00	   1.262500E+07	   0.000000E+00	  -4.031732E+05	   3.254285E+02	  -3.532729E+05	  -1.685846E+04	   4.569188E+07	   5.681098E+02
    0.0125	   1.104162E-01	  -8.720138E+05	   2.928825E+03	   4.536231E+07	  -9.499086E+04	   5.335794E+07	   1.051641E+04	   4.999998E+00	  -3.154100E-08	   1.874298E-06	   1.226017E-09	   3.316074E-02	  -4.079264E-11	  -3.042399E-04	  -7.373193E-06	   2.994401E-04	   2.882013E-07	  -8.258713E-05	  -9.578912E-09	  -2.388590E-02	  -3.811643E-04	   2.388595E-02	   1.376143E-05	  -6.619827E-03	  -1.052925E-06	   2.894639E+05	   4.111677E+05	   4.343976E+06	   0.000000E+00	   0.000000E+00	   1.398911E+08	   4.672812E-01	   1.262480E+07	   0.000000E+00	  -4.084470E+05	   1.301577E+03	  -3.511044E+05	  -6.680373E+04	   4.570538E+07	   5.126487E+03
    0.0250	   1.089133E-01	  -8.710884E+05	   6.386242E+03	   4.536240E+07	  -2.038795E+05	   5.313268E+07	   3.051939E+04	   4.999992E+00	  -1.592447E-07	   7.474097E-06	   6.075032E-09	   3.315919E-02	  -2.755810E-10	  -5.873662E-04	  -1.318142E-05	   5.956476E-04	   4.865223E-07	  -1.650151E-04	  -3.042856E-08	  -2.239293E-02	  -8.267439E-04	   2.369358E-02	   2.969104E-05	  -6.588035E-03	  -2.907516E-06	   3.070395E+05	   4.069680E+05	   4.181118E+06	   0.000000E+00	   0.000000E+00	   1.398911E+08	   2.316350E+00	   1.262421E+07	   0.000000E+00	  -4.154309E+05	   2.836642E+03	  -3.482772E+05	  -1.437611E+05	   4.560329E+07	   1.415649E+04
    0.0375	   1.074104E-01	  -8.737359E+05	   9.980144E+03	   4.536370E+07	  -3.105777E+05	   5.275326E+07	   5.685505E+04	   4.999983E+00	  -3.947286E-07	   1.676518E-05	   1.464376E-08	   3.315662E-02	  -9.374693E-10	  -8.563845E-04	  -2.442014E-05	   8.904906E-04	   8.738307E-07	  -2.471076E-04	  -7.940763E-08	  -2.037923E-02	  -1.280636E-03	   2.344590E-02	   4.560029E-05	  -6.535530E-03	  -5.278280E-06	   3.246151E+05	   4.027682E+05	   4.018260E+06	   0.000000E+00	   0.000000E+00	   1.398911E+08	   5.586971E+00	   1.262323E+07	   0.000000E+00	  -4.240390E+05	   4.427593E+03	  -3.446380E+05	  -2.198635E+05	   4.539640E+07	   2.570032E+04
    0.0500	   1.059075E-01	  -8.789821E+05	   1.250232E+04	   4.536595E+07	  -3.716367E+05	   5.225468E+07	   8.457569E+04	   4.999971E+00	  -8.055729E-07	   2.972125E-05	   2.928349E-08	   3.315302E-02	  -2.403738E-09	  -1.097950E-03	  -3.996007E-05	   1.181957E-03	   1.403896E-06	  -3.284578E-04	  -1.582736E-07	  -1.797662E-02	  -1.579364E-03	   2.315413E-02	   5.538283E-05	  -6.467239E-03	  -7.677490E-06	   3.421906E+05	   3.985685E+05	   3.855404E+06	   0.000000E+00	   0.000000E+00	   1.398910E+08	   1.117908E+01	   1.262186E+07	   0.000000E+00	  -4.338361E+05	   5.533659E+03	  -3.403516E+05	  -2.649863E+05	   4.510902E+07	   3.738397E+04
    0.0625	   1.044046E-01	  -8.857568E+05	   1.278687E+04	   4.536905E+07	  -3.455483E+05	   5.167865E+07	   1.084735E+05	   4.999956E+00	  -1.425508E-06	   4.629667E-05	   5.098270E-08	   3.314841E-02	  -5.031064E-09	  -1.308404E-03	  -5.780160E-05	   1.469460E-03	   2.002426E-06	  -4.089099E-04	  -2.653072E-07	  -1.533455E-02	  -1.565773E-03	   2.282408E-02	   5.318845E-05	  -6.388898E-03	  -9.599781E-06	   3.597662E+05	   3.943688E+05	   3.692546E+06	   0.000000E+00	   0.000000E+00	   1.398910E+08	   1.947350E+01	   1.262011E+07	   0.000000E+00	  -4.443417E+05	   5.633375E+03	  -3.355035E+05	  -2.503137E+05	   4.476980E+07	   4.674790E+04
    0.0750	   1.029017E-01	  -8.928821E+05	   9.960221E+03	   4.537285E+07	  -2.016373E+05	   5.107110E+07	   1.243740E+05	   4.999938E+00	  -2.257372E-06	   6.643895E-05	   7.961516E-08	   3.314280E-02	  -9.125365E-09	  -1.485340E-03	  -7.322551E-05	   1.752755E-03	   2.490704E-06	  -4.883599E-04	  -3.915043E-07	  -1.261754E-02	  -1.122763E-03	   2.246323E-02	   3.467900E-05	  -6.306820E-03	  -1.064488E-05	   3.773418E+05	   3.901690E+05	   3.529689E+06	   0.000000E+00	   0.000000E+00	   1.398909E+08	   3.042603E+01	   1.261797E+07	   0.000000E+00	  -4.550269E+05	   4.336389E+03	  -3.302036E+05	  -1.545259E+05	   4.441027E+07	   5.184419E+04
    0.0875	   1.013989E-01	  -8.991843E+05	   3.640343E+03	   4.537718E+07	   7.250935E+04	   5.047787E+07	   1.295029E+05	   4.999919E+00	  -3.235283E-06	   9.009390E-05	   1.124505E-07	   3.313620E-02	  -1.485046E-08	  -1.628720E-03	  -8.120779E-05	   2.031363E-03	   2.681698E-06	  -5.667942E-04	  -5.251440E-07	  -9.989581E-03	  -2.005916E-04	   2.207936E-02	  -1.940217E-06	  -6.227301E-03	  -1.056186E-05	   3.949173E+05	   3.859692E+05	   3.366832E+06	   0.000000E+00	   0.000000E+00	   1.398908E+08	   4.299923E+01	   1.261546E+07	   0.000000E+00	  -4.653648E+05	   1.472745E+03	  -3.245662E+05	   3.108653E+04	   4.406187E+07	   5.145193E+04
    0.1000	   9.989595E-02	  -9.036002E+05	  -6.008387E+03	   4.538190E+07	   4.690819E+05	   4.994051E+07	   1.229823E+05	   4.999898E+00	  -4.230922E-06	   1.172009E-04	   1.444473E-07	   3.312863E-02	  -2.221082E-08	  -1.740385E-03	  -7.579214E-05	   2.305070E-03	   2.350872E-06	  -6.442713E-04	  -6.513284E-07	  -7.599310E-03	   1.175701E-03	   2.168005E-02	  -5.564353E-05	  -6.156049E-03	  -9.293332E-06	   4.124928E+05	   3.817696E+05	   3.203974E+06	   0.000000E+00	   0.000000E+00	   1.398907E+08	   5.527376E+01	   1.261258E+07	   0.000000E+00	  -4.748781E+05	  -2.882568E+03	  -3.187028E+05	   3.012574E+05	   4.375312E+07	   4.529205E+04
    0.1125	   9.839307E-02	  -9.052990E+05	  -1.824712E+04	   4.538686E+07	   9.590419E+05	   4.949164E+07	   1.059821E+05	   4.999875E+00	  -5.043137E-06	   1.476978E-04	   1.678162E-07	   3.312010E-02	  -3.102287E-08	  -1.823904E-03	  -5.200386E-05	   2.573701E-03	   1.312251E-06	  -7.209163E-04	  -7.561019E-07	  -5.563109E-03	   2.902521E-03	   2.127229E-02	  -1.224450E-04	  -6.097540E-03	  -6.989593E-06	   4.300684E+05	   3.775698E+05	   3.041117E+06	   0.000000E+00	   0.000000E+00	   1.398906E+08	   6.428175E+01	   1.260933E+07	   0.000000E+00	  -4.831940E+05	  -8.397085E+03	  -3.127161E+05	   6.360567E+05	   4.350641E+07	   3.409630E+04
    0.1250	   9.689017E-02	  -9.036438E+05	  -3.187369E+04	   4.539193E+07	   1.496313E+06	   4.915577E+07	   8.160088E+04	   4.999853E+00	  -5.419506E-06	   1.815206E-04	   1.728641E-07	   3.311062E-02	  -4.094681E-08	  -1.884065E-03	  -6.205437E-06	   2.837181E-03	  -5.708457E-07	  -7.969015E-04	  -8.281046E-07	  -3.969429E-03	   4.813036E-03	   2.086190E-02	  -1.959797E-04	  -6.055152E-03	  -3.990855E-06	   4.476440E+05	   3.733701E+05	   2.878260E+06	   0.000000E+00	   0.000000E+00	   1.398904E+08	   6.632857E+01	   1.260572E+07	   0.000000E+00	  -4.900273E+05	  -1.453074E+04	  -3.066916E+05	   1.003779E+06	   4.333857E+07	   1.952059E+04
    0.1375	   9.538728E-02	  -8.983644E+05	  -4.538934E+04	   4.539705E+07	   2.024003E+06	   4.894325E+07	   5.435950E+04	   4.999829E+00	  -5.075245E-06	   2.186047E-04	   1.486843E-07	   3.310018E-02	  -5.153008E-08	  -1.926703E-03	   6.293433E-05	   3.095492E-03	  -3.347711E-06	  -8.724392E-04	  -8.611887E-07	  -2.855755E-03	   6.700073E-03	   2.045165E-02	  -2.683699E-04	  -6.030314E-03	  -7.739415E-07	   4.652195E+05	   3.691703E+05	   2.715402E+06	   0.000000E+00	   0.000000E+00	   1.398903E+08	   5.725609E+01	   1.260174E+07	   0.000000E+00	  -4.952573E+05	  -2.061065E+04	  -3.006700E+05	   1.365242E+06	   4.325672E+07	   3.885477E+03
    0.1500	   9.388439E-02	  -8.896798E+05	  -5.722579E+04	   4.540220E+07	   2.482892E+06	   4.884622E+07	   2.946603E+04	   4.999804E+00	  -3.725637E-06	   2.588857E-04	   8.438896E-08	   3.308880E-02	  -6.228267E-08	  -1.957623E-03	   1.542263E-04	   3.348628E-03	  -6.972743E-06	  -9.477406E-04	  -8.554620E-07	  -2.192544E-03	   8.347318E-03	   2.004201E-02	  -3.314057E-04	  -6.021921E-03	   2.123940E-06	   4.827951E+05	   3.649706E+05	   2.552545E+06	   0.000000E+00	   0.000000E+00	   1.398901E+08	   3.291296E+01	   1.259741E+07	   0.000000E+00	  -4.989824E+05	  -2.593300E+04	  -2.946583E+05	   1.679647E+06	   4.325540E+07	  -1.019471E+04
    0.1625	   9.238149E-02	  -8.780585E+05	  -6.598437E+04	   4.540736E+07	   2.820324E+06	   4.884638E+07	   1.197248E+04	   4.999780E+00	  -1.116875E-06	   3.022987E-04	  -2.973248E-08	   3.307649E-02	  -7.275708E-08	  -1.982026E-03	   2.638900E-04	   3.596602E-03	  -1.130210E-05	  -1.022996E-03	  -8.177153E-07	  -1.914429E-03	   9.562102E-03	   1.963333E-02	  -3.777832E-04	  -6.027463E-03	   4.190967E-06	   5.003707E+05	   3.607708E+05	   2.389688E+06	   0.000000E+00	   0.000000E+00	   1.398900E+08	  -1.040347E+01	   1.259272E+07	   0.000000E+00	  -5.014137E+05	  -2.987027E+04	  -2.886615E+05	   1.910712E+06	   4.332208E+07	  -2.022934E+04
    0.1750	   9.087860E-02	  -8.642312E+05	  -7.065738E+04	   4.541255E+07	   2.998447E+06	   4.891559E+07	   6.031648E+03	   4.999755E+00	   2.943746E-06	   3.487795E-04	  -2.010675E-07	   3.306323E-02	  -8.262834E-08	  -2.004359E-03	   3.860288E-04	   3.839433E-03	  -1.611160E-05	  -1.098365E-03	  -7.605743E-07	  -1.919348E-03	   1.020575E-02	   1.922497E-02	  -4.022507E-04	  -6.043019E-03	   5.017054E-06	   5.179462E+05	   3.565711E+05	   2.226830E+06	   0.000000E+00	   0.000000E+00	   1.398898E+08	  -7.550983E+01	   1.258768E+07	   0.000000E+00	  -5.028798E+05	  -3.197044E+04	  -2.826702E+05	   2.032367E+06	   4.343718E+07	  -2.422301E+04
    0.1875	   8.937570E-02	  -8.491616E+05	  -7.078509E+04	   4.541780E+07	   3.000059E+06	   4.901661E+07	   1.444895E+04	   4.999730E+00	   8.566305E-06	   3.982637E-04	  -4.338634E-07	   3.304903E-02	  -9.175731E-08	  -2.027395E-03	   5.133464E-04	   4.077117E-03	  -2.112336E-05	  -1.173946E-03	  -7.009828E-07	  -2.072606E-03	   1.021511E-02	   1.881456E-02	  -4.024224E-04	  -6.063413E-03	   4.341595E-06	   5.355218E+05	   3.523713E+05	   2.063973E+06	   0.000000E+00	   0.000000E+00	   1.398896E+08	  -1.640249E+02	   1.258227E+07	   0.000000E+00	  -5.038143E+05	  -3.202743E+04	  -2.766496E+05	   2.032775E+06	   4.357482E+07	  -2.090773E+04
    0.2000	   8.787281E-02	  -8.339277E+05	  -6.653352E+04	   4.542317E+07	   2.831474E+06	   4.910727E+07	   3.808980E+04	   4.999704E+00	   1.576671E-05	   4.506866E-04	  -7.287804E-07	   3.303388E-02	  -1.002330E-07	  -2.052247E-03	   6.381258E-04	   4.309623E-03	  -2.604265E-05	  -1.249770E-03	  -6.582643E-07	  -2.223548E-03	   9.613179E-03	   1.839920E-02	  -3.791771E-04	  -6.082855E-03	   2.107044E-06	   5.530974E+05	   3.481716E+05	   1.901116E+06	   0.000000E+00	   0.000000E+00	   1.398894E+08	  -2.761989E+02	   1.257650E+07	   0.000000E+00	  -5.047017E+05	  -3.011589E+04	  -2.705569E+05	   1.916319E+06	   4.370608E+07	  -1.000366E+04
    0.2125	   8.573638E-02	  -8.216741E+05	  -5.867599E+04	   4.542847E+07	   2.521817E+06	   4.910611E+07	   7.575324E+04	   4.999678E+00	   2.446815E-05	   5.059832E-04	  -1.082936E-06	   3.301778E-02	  -1.083846E-07	  -2.078129E-03	   7.532852E-04	   4.536882E-03	  -3.059785E-05	  -1.325799E-03	  -6.512574E-07	  -2.280765E-03	   8.506535E-03	   1.795638E-02	  -3.365607E-04	  -6.091744E-03	  -1.532319E-06	   5.667544E+05	   3.432980E+05	   1.763563E+06	   0.000000E+00	   0.000000E+00	   1.398892E+08	  -4.109303E+02	   1.257037E+07	   0.000000E+00	  -5.053179E+05	  -2.658297E+04	  -2.640613E+05	   1.703104E+06	   4.376951E+07	   7.738302E+03
    0.2250	   8.359996E-02	  -8.113610E+05	  -4.848238E+04	   4.543397E+07	   2.118827E+06	   4.901194E+07	   1.244050E+05	   4.999652E+00	   3.451516E-05	   5.640846E-04	  -1.490424E-06	   3.300073E-02	  -1.167603E-07	  -2.103854E-03	   8.533400E-04	   4.758331E-03	  -3.457674E-05	  -1.401831E-03	  -6.958524E-07	  -2.041141E-03	   7.070046E-03	   1.750257E-02	  -2.812042E-04	  -6.088353E-03	  -6.237418E-06	   5.804115E+05	   3.384244E+05	   1.626010E+06	   0.000000E+00	   0.000000E+00	   1.398890E+08	  -5.659636E+02	   1.256388E+07	   0.000000E+00	  -5.068337E+05	  -2.199852E+04	  -2.574049E+05	   1.426071E+06	   4.376992E+07	   3.066820E+04
    0.2375	   8.146353E-02	  -8.038448E+05	  -3.753219E+04	   4.543970E+07	   1.681872E+06	   4.879112E+07	   1.794332E+05	   4.999626E+00	   4.569835E-05	   6.249191E-04	  -1.943240E-06	   3.298273E-02	  -1.260767E-07	  -2.124119E-03	   9.351350E-04	   4.974153E-03	  -3.785458E-05	  -1.477754E-03	  -8.029639E-07	  -1.384865E-03	   5.521186E-03	   1.703615E-02	  -2.213517E-04	  -6.068073E-03	  -1.151888E-05	   5.940686E+05	   3.335508E+05	   1.488457E+06	   0.000000E+00	   0.000000E+00	   1.398888E+08	  -7.382424E+02	   1.255703E+07	   0.000000E+00	  -5.096339E+05	  -1.707132E+04	  -2.505638E+05	   1.126165E+06	   4.368429E+07	   5.640489E+04
    0.2500	   7.932711E-02	  -7.997393E+05	  -2.748332E+04	   4.544564E+07	   1.273260E+06	   4.841955E+07	   2.353469E+05	   4.999599E+00	   5.778600E-05	   6.884145E-04	  -2.432467E-06	   3.296379E-02	  -1.371465E-07	  -2.133555E-03	   9.982414E-04	   5.184102E-03	  -4.040934E-05	  -1.553320E-03	  -9.768133E-07	  -2.261123E-04	   4.088202E-03	   1.655698E-02	  -1.656535E-04	  -6.027604E-03	  -1.681063E-05	   6.077256E+05	   3.286772E+05	   1.350904E+06	   0.000000E+00	   0.000000E+00	   1.398885E+08	  -9.243618E+02	   1.254982E+07	   0.000000E+00	  -5.139945E+05	  -1.254531E+04	  -2.435358E+05	   8.463481E+05	   4.349612E+07	   8.219414E+04
    0.2625	   7.719068E-02	  -7.993266E+05	  -1.982933E+04	   4.545176E+07	   9.491364E+05	   4.788589E+07	   2.865801E+05	   4.999572E+00	   7.055829E-05	   7.544965E-04	  -2.949565E-06	   3.294390E-02	  -1.507908E-07	  -2.125708E-03	   1.044953E-03	   5.388035E-03	  -4.232207E-05	  -1.628272E-03	  -1.214487E-06	   1.474854E-03	   2.976731E-03	   1.606607E-02	  -1.219024E-04	  -5.965407E-03	  -2.155267E-05	   6.213827E+05	   3.238037E+05	   1.213351E+06	   0.000000E+00	   0.000000E+00	   1.398883E+08	  -1.121060E+03	   1.254225E+07	   0.000000E+00	  -5.200426E+05	  -9.090677E+03	  -2.363360E+05	   6.253189E+05	   4.319768E+07	   1.053117E+05
    0.2750	   7.505426E-02	  -8.025988E+05	  -1.567918E+04	   4.545799E+07	   7.512267E+05	   4.719028E+07	   3.282778E+05	   4.999546E+00	   8.383887E-05	   8.230892E-04	  -3.487568E-06	   3.292309E-02	  -1.677524E-07	  -2.093844E-03	   1.079874E-03	   5.585815E-03	  -4.376159E-05	  -1.702339E-03	  -1.506466E-06	   3.717006E-03	   2.339506E-03	   1.556642E-02	  -9.588617E-05	  -5.881516E-03	  -2.527089E-05	   6.350398E+05	   3.189301E+05	   1.075798E+06	   0.000000E+00	   0.000000E+00	   1.398880E+08	  -1.325676E+03	   1.253432E+07	   0.000000E+00	  -5.277749E+05	  -7.205062E+03	  -2.290082E+05	   4.918209E+05	   4.278915E+07	   1.234514E+05
    0.2875	   7.291783E-02	  -8.092058E+05	  -1.560001E+04	   4.546424E+07	   7.009217E+05	   4.634623E+07	   3.570369E+05	   4.999520E+00	   9.751907E-05	   8.941150E-04	  -4.042007E-06	   3.290135E-02	  -1.886218E-07	  -2.031379E-03	   1.109181E-03	   5.777360E-03	  -4.495702E-05	  -1.775256E-03	  -1.838043E-06	   6.451562E-03	   2.254700E-03	   1.506262E-02	  -9.056717E-05	  -5.777798E-03	  -2.764851E-05	   6.486968E+05	   3.140565E+05	   9.382446E+05	   0.000000E+00	   0.000000E+00	   1.398877E+08	  -1.536500E+03	   1.252605E+07	   0.000000E+00	  -5.370345E+05	  -7.142978E+03	  -2.216201E+05	   4.605668E+05	   4.227984E+07	   1.350728E+05
    0.3000	   7.078141E-02	  -8.185376E+05	  -1.953626E+04	   4.547037E+07	   7.962336E+05	   4.537752E+07	   3.714012E+05	   4.999496E+00	   1.115715E-04	   9.674959E-04	  -4.611432E-06	   3.287871E-02	  -2.137860E-07	  -1.932672E-03	   1.139663E-03	   5.962649E-03	  -4.616161E-05	  -1.846796E-03	  -2.191605E-06	   9.593156E-03	   2.714793E-03	   1.456039E-02	  -1.056609E-04	  -5.657531E-03	  -2.857190E-05	   6.623539E+05	   3.091829E+05	   8.006916E+05	   0.000000E+00	   0.000000E+00	   1.398874E+08	  -1.752977E+03	   1.251743E+07	   0.000000E+00	  -5.475473E+05	  -8.879540E+03	  -2.142555E+05	   5.301459E+05	   4.168611E+07	   1.396242E+05
    0.3125	   6.864499E-02	  -8.297414E+05	  -2.682263E+04	   4.547626E+07	   1.012260E+06	   4.431737E+07	   3.719936E+05	   4.999472E+00	   1.260512E-04	   1.043154E-03	  -5.197465E-06	   3.285519E-02	  -2.434082E-07	  -1.793165E-03	   1.177650E-03	   6.141730E-03	  -4.761244E-05	  -1.916771E-03	  -2.549299E-06	   1.302261E-02	   3.628330E-03	   1.406646E-02	  -1.377022E-04	  -5.525290E-03	  -2.814029E-05	   6.760109E+05	   3.043093E+05	   6.631385E+05	   0.000000E+00	   0.000000E+00	   1.398872E+08	  -1.975722E+03	   1.250847E+07	   0.000000E+00	  -5.589308E+05	  -1.211627E+04	  -2.070135E+05	   6.833512E+05	   4.103082E+07	   1.375898E+05
    0.3250	   6.650856E-02	  -8.418216E+05	  -3.628434E+04	   4.548174E+07	   1.304932E+06	   4.320463E+07	   3.613993E+05	   4.999451E+00	   1.410835E-04	   1.121012E-03	  -5.804360E-06	   3.283080E-02	  -2.774410E-07	  -1.610011E-03	   1.228058E-03	   6.314746E-03	  -4.949397E-05	  -1.985059E-03	  -2.895558E-06	   1.660075E-02	   4.833695E-03	   1.358806E-02	  -1.805666E-04	  -5.386418E-03	  -2.664891E-05	   6.896680E+05	   2.994357E+05	   5.255854E+05	   0.000000E+00	   0.000000E+00	   1.398868E+08	  -2.206354E+03	   1.249919E+07	   0.000000E+00	  -5.707380E+05	  -1.632605E+04	  -2.000003E+05	   8.897704E+05	   4.034067E+07	   1.304072E+05
    0.3375	   6.437213E-02	  -8.537356E+05	  -4.640913E+04	   4.548668E+07	   1.617463E+06	   4.208018E+07	   3.437694E+05	   4.999432E+00	   1.568416E-04	   1.200996E-03	  -6.438164E-06	   3.280557E-02	  -3.156691E-07	  -1.382056E-03	   1.293601E-03	   6.481923E-03	  -5.190811E-05	  -2.051604E-03	  -3.219376E-06	   2.018151E-02	   6.122781E-03	   1.313258E-02	  -2.263678E-04	  -5.246532E-03	  -2.454416E-05	   7.033251E+05	   2.945621E+05	   3.880325E+05	   0.000000E+00	   0.000000E+00	   1.398865E+08	  -2.447180E+03	   1.248958E+07	   0.000000E+00	  -5.825007E+05	  -2.083033E+04	  -1.933244E+05	   1.110238E+06	   3.964372E+07	   1.202497E+05
    0.3500	   6.223571E-02	  -8.644848E+05	  -5.556540E+04	   4.549092E+07	   1.888543E+06	   4.098309E+07	   3.241338E+05	   4.999416E+00	   1.735159E-04	   1.283035E-03	  -7.105569E-06	   3.277952E-02	  -3.577772E-07	  -1.109981E-03	   1.374353E-03	   6.643578E-03	  -5.485738E-05	  -2.116418E-03	  -3.515858E-06	   2.362516E-02	   7.271010E-03	   1.270706E-02	  -2.665947E-04	  -5.111001E-03	  -2.235207E-05	   7.169821E+05	   2.896885E+05	   2.504794E+05	   0.000000E+00	   0.000000E+00	   1.398862E+08	  -2.700750E+03	   1.247966E+07	   0.000000E+00	  -5.937709E+05	  -2.489698E+04	  -1.870894E+05	   1.302487E+06	   3.896683E+07	   1.096779E+05
    0.3625	   6.009928E-02	  -8.732108E+05	  -6.223274E+04	   4.549433E+07	   2.061006E+06	   3.994722E+07	   3.075850E+05	   4.999404E+00	   1.912807E-04	   1.367063E-03	  -7.812650E-06	   3.275267E-02	  -4.034297E-07	  -7.960962E-04	   1.467669E-03	   6.800108E-03	  -5.824146E-05	  -2.179579E-03	  -3.786760E-06	   2.681117E-02	   8.069088E-03	   1.231757E-02	  -2.933156E-04	  -4.984470E-03	  -2.059537E-05	   7.306392E+05	   2.848149E+05	   1.129263E+05	   0.000000E+00	   0.000000E+00	   1.398859E+08	  -2.969383E+03	   1.246944E+07	   0.000000E+00	  -6.041632E+05	  -2.784378E+04	  -1.813845E+05	   1.427127E+06	   3.833320E+07	   1.012359E+05
    0.3750	   5.796285E-02	  -8.792699E+05	  -6.521220E+04	   4.549682E+07	   2.089774E+06	   3.899796E+07	   2.984680E+05	   4.999397E+00	   2.102620E-04	   1.453017E-03	  -8.563648E-06	   3.272504E-02	  -4.523518E-07	  -4.440712E-04	   1.568504E-03	   6.951979E-03	  -6.186873E-05	  -2.241215E-03	  -4.039985E-06	   2.964917E-02	   8.352010E-03	   1.196879E-02	  -3.002790E-04	  -4.870417E-03	  -1.971255E-05	   7.442962E+05	   2.799413E+05	  -2.462670E+04	   0.000000E+00	   0.000000E+00	   1.398856E+08	  -3.254695E+03	   1.245892E+07	   0.000000E+00	  -6.133889E+05	  -2.913278E+04	  -1.762784E+05	   1.453114E+06	   3.776026E+07	   9.705753E+04
    0.3875	   5.582643E-02	  -8.822994E+05	  -6.378532E+04	   4.549835E+07	   1.947883E+06	   3.814992E+07	   2.997619E+05	   4.999394E+00	   2.305112E-04	   1.540844E-03	  -9.359979E-06	   3.269664E-02	  -5.043984E-07	  -5.851036E-05	   1.670044E-03	   7.099706E-03	  -6.548021E-05	  -2.301490E-03	  -4.288154E-06	   3.208775E-02	   8.021018E-03	   1.166306E-02	  -2.837474E-04	  -4.770835E-03	  -1.999632E-05	   7.579533E+05	   2.750678E+05	  -1.621797E+05	   0.000000E+00	   0.000000E+00	   1.398852E+08	  -3.557230E+03	   1.244811E+07	   0.000000E+00	  -6.212852E+05	  -2.844170E+04	  -1.718055E+05	   1.361900E+06	   3.725800E+07	   9.856726E+04
    0.4000	   5.369000E-02	  -8.822326E+05	  -5.780377E+04	   4.549890E+07	   1.629897E+06	   3.740614E+07	   3.124991E+05	   4.999395E+00	   2.519889E-04	   1.630495E-03	  -1.019960E-05	   3.266750E-02	  -5.596005E-07	   3.555592E-04	   1.764587E-03	   7.243820E-03	  -6.878236E-05	  -2.360587E-03	  -4.546573E-06	   3.411689E-02	   7.056009E-03	   1.140055E-02	  -2.429693E-04	  -4.686128E-03	  -2.154008E-05	   7.716104E+05	   2.701942E+05	  -2.997328E+05	   0.000000E+00	   0.000000E+00	   1.398849E+08	  -3.876207E+03	   1.243702E+07	   0.000000E+00	  -6.278226E+05	  -2.570423E+04	  -1.679683E+05	   1.149774E+06	   3.682848E+07	   1.062194E+05
    0.4125	   5.099303E-02	  -8.820557E+05	  -4.769410E+04	   4.549842E+07	   1.152206E+06	   3.671945E+07	   3.356551E+05	   4.999403E+00	   2.745596E-04	   1.721927E-03	  -1.107681E-05	   3.263763E-02	  -6.181818E-07	   7.931833E-04	   1.844520E-03	   7.384850E-03	  -7.148420E-05	  -2.418686E-03	  -4.830499E-06	   3.572348E-02	   5.516345E-03	   1.116464E-02	  -1.802142E-04	  -4.610715E-03	  -2.422885E-05	   7.807632E+05	   2.649017E+05	  -4.069726E+05	   0.000000E+00	   0.000000E+00	   1.398846E+08	  -4.209455E+03	   1.242564E+07	   0.000000E+00	  -6.324419E+05	  -2.111216E+04	  -1.645224E+05	   8.280516E+05	   3.643034E+07	   1.194542E+05
    0.4250	   4.829606E-02	  -8.795875E+05	  -3.438616E+04	   4.549708E+07	   5.503046E+05	   3.610676E+07	   3.664760E+05	   4.999415E+00	   2.979987E-04	   1.815104E-03	  -1.198251E-05	   3.260704E-02	  -6.805437E-07	   1.248933E-03	   1.903259E-03	   7.522949E-03	  -7.333318E-05	  -2.475838E-03	  -5.152701E-06	   3.703124E-02	   3.530957E-03	   1.096643E-02	  -1.003969E-04	  -4.545981E-03	  -2.777093E-05	   7.899162E+05	   2.596092E+05	  -5.142124E+05	   0.000000E+00	   0.000000E+00	   1.398842E+08	  -4.553504E+03	   1.241400E+07	   0.000000E+00	  -6.360642E+05	  -1.508328E+04	  -1.616311E+05	   4.212053E+05	   3.608408E+07	   1.368519E+05
    0.4375	   4.559910E-02	  -8.756090E+05	  -1.917130E+04	   4.549500E+07	  -1.264008E+05	   3.553822E+07	   4.009497E+05	   4.999434E+00	   3.220109E-04	   1.909993E-03	  -1.290485E-05	   3.257574E-02	  -7.472209E-07	   1.720385E-03	   1.936041E-03	   7.658814E-03	  -7.414522E-05	  -2.532231E-03	  -5.521609E-06	   3.814828E-02	   1.278984E-03	   1.080019E-02	  -1.034832E-05	  -4.487799E-03	  -3.174660E-05	   7.990691E+05	   2.543167E+05	  -6.214522E+05	   0.000000E+00	   0.000000E+00	   1.398838E+08	  -4.903836E+03	   1.240208E+07	   0.000000E+00	  -6.390405E+05	  -8.197708E+03	  -1.592100E+05	  -3.674655E+04	   3.576918E+07	   1.563700E+05
    0.4500	   4.290212E-02	  -8.710389E+05	  -3.517984E+03	   4.549231E+07	  -8.215245E+05	   3.497860E+07	   4.344838E+05	   4.999458E+00	   3.462555E-04	   2.006568E-03	  -1.383027E-05	   3.254373E-02	  -8.188193E-07	   2.205610E-03	   1.940429E-03	   7.792749E-03	  -7.382447E-05	  -2.587896E-03	  -5.940039E-06	   3.920195E-02	  -1.035610E-03	   1.065942E-02	   8.214644E-05	  -4.431310E-03	  -3.567634E-05	   8.082220E+05	   2.490242E+05	  -7.286921E+05	   0.000000E+00	   0.000000E+00	   1.398835E+08	  -5.255282E+03	   1.238990E+07	   0.000000E+00	  -6.417832E+05	  -1.115259E+03	  -1.571637E+05	  -5.070160E+05	   3.546140E+07	   1.756753E+05
    0.4625	   4.020515E-02	  -8.668921E+05	   1.112688E+04	   4.548913E+07	  -1.479189E+06	   3.438905E+07	   4.624702E+05	   4.999489E+00	   3.703774E-04	   2.104807E-03	  -1.474457E-05	   3.251104E-02	  -8.959428E-07	   2.704440E-03	   1.916519E-03	   7.925046E-03	  -7.237166E-05	  -2.642833E-03	  -6.404849E-06	   4.033279E-02	  -3.211424E-03	   1.053835E-02	   1.693871E-04	  -4.371149E-03	  -3.908111E-05	   8.173749E+05	   2.437317E+05	  -8.359318E+05	   0.000000E+00	   0.000000E+00	   1.398831E+08	  -5.602427E+03	   1.237745E+07	   0.000000E+00	  -6.447481E+05	   5.513802E+03	  -1.554072E+05	  -9.512087E+05	   3.513403E+07	   1.924369E+05
    0.4750	   3.750819E-02	  -8.641599E+05	   2.352396E+04	   4.548557E+07	  -2.051069E+06	   3.373174E+07	   4.812485E+05	   4.999526E+00	   3.940377E-04	   2.204690E-03	  -1.563417E-05	   3.247767E-02	  -9.791197E-07	   3.218581E-03	   1.866796E-03	   8.055931E-03	  -6.987902E-05	  -2.696970E-03	  -6.907184E-06	   4.167788E-02	  -5.075314E-03	   1.043099E-02	   2.447343E-04	  -4.302096E-03	  -4.157371E-05	   8.265279E+05	   2.384392E+05	  -9.431718E+05	   0.000000E+00	   0.000000E+00	   1.398827E+08	  -5.940097E+03	   1.236474E+07	   0.000000E+00	  -6.483801E+05	   1.113228E+04	  -1.538525E+05	  -1.336175E+06	   3.476108E+07	   2.047712E+05
    0.4875	   3.481122E-02	  -8.637397E+05	   3.279262E+04	   4.548178E+07	  -2.502103E+06	   3.297264E+07	   4.889501E+05	   4.999569E+00	   4.169409E-04	   2.306201E-03	  -1.648711E-05	   3.244362E-02	  -1.068742E-06	   3.751276E-03	   1.795701E-03	   8.185553E-03	  -6.651431E-05	  -2.750173E-03	  -7.434260E-06	   4.336100E-02	  -6.503257E-03	   1.033071E-02	   3.034010E-04	  -4.219440E-03	  -4.293809E-05	   8.356808E+05	   2.331467E+05	  -1.050412E+06	   0.000000E+00	   0.000000E+00	   1.398823E+08	  -6.263731E+03	   1.235178E+07	   0.000000E+00	  -6.530816E+05	   1.534394E+04	  -1.524022E+05	  -1.637946E+06	   3.431913E+07	   2.116276E+05
    0.5000	   3.211424E-02	  -8.662189E+05	   3.849584E+04	   4.547784E+07	  -2.813872E+06	   3.208905E+07	   4.850760E+05	   4.999620E+00	   4.388555E-04	   2.409325E-03	  -1.729385E-05	   3.240892E-02	  -1.165030E-06	   4.307241E-03	   1.708958E-03	   8.313969E-03	  -6.249577E-05	  -2.802257E-03	  -7.971864E-06	   4.546370E-02	  -7.432274E-03	   1.023355E-02	   3.429132E-04	  -4.120064E-03	  -4.310128E-05	   8.448336E+05	   2.278542E+05	  -1.157651E+06	   0.000000E+00	   0.000000E+00	   1.398819E+08	  -6.569698E+03	   1.233857E+07	   0.000000E+00	  -6.591166E+05	   1.795160E+04	  -1.509980E+05	  -1.844037E+06	   3.379262E+07	   2.126520E+05
    0.5125	   2.941728E-02	  -8.718906E+05	   4.065977E+04	   4.547381E+07	  -2.985449E+06	   3.106964E+07	   4.703177E+05	   4.999677E+00	   4.596246E-04	   2.514046E-03	  -1.804770E-05	   3.237357E-02	  -1.268023E-06	   4.891807E-03	   1.612828E-03	   8.441212E-03	  -5.806392E-05	  -2.853010E-03	  -8.505343E-06	   4.802661E-02	  -7.863274E-03	   1.013685E-02	   3.632226E-04	  -4.002414E-03	  -4.212019E-05	   8.539866E+05	   2.225617E+05	  -1.264891E+06	   0.000000E+00	   0.000000E+00	   1.398815E+08	  -6.855448E+03	   1.232511E+07	   0.000000E+00	  -6.666169E+05	   1.896591E+04	  -1.496008E+05	  -1.954019E+06	   3.317382E+07	   2.081218E+05
    0.5250	   2.672031E-02	  -8.808370E+05	   3.972904E+04	   4.546972E+07	  -3.031849E+06	   2.991162E+07	   4.464982E+05	   4.999742E+00	   4.791687E-04	   2.620351E-03	  -1.874495E-05	   3.233760E-02	  -1.377584E-06	   5.510822E-03	   1.513313E-03	   8.567276E-03	  -5.345115E-05	  -2.902199E-03	  -9.021274E-06	   5.106042E-02	  -7.855077E-03	   1.003888E-02	   3.664850E-04	  -3.866101E-03	  -4.017363E-05	   8.631394E+05	   2.172692E+05	  -1.372131E+06	   0.000000E+00	   0.000000E+00	   1.398811E+08	  -7.119572E+03	   1.231142E+07	   0.000000E+00	  -6.756192E+05	   1.858544E+04	  -1.481851E+05	  -1.978433E+06	   3.246082E+07	   1.989076E+05
    0.5375	   2.402334E-02	  -8.929387E+05	   3.646125E+04	   4.546558E+07	  -2.980195E+06	   2.862075E+07	   4.162207E+05	   4.999816E+00	   4.974773E-04	   2.728223E-03	  -1.938458E-05	   3.230102E-02	  -1.493424E-06	   6.170065E-03	   1.415500E-03	   8.692138E-03	  -4.885674E-05	  -2.949595E-03	  -9.508971E-06	   5.454665E-02	  -7.510074E-03	   9.940199E-03	   3.565231E-04	  -3.711886E-03	  -3.752619E-05	   8.722924E+05	   2.119767E+05	  -1.479371E+06	   0.000000E+00	   0.000000E+00	   1.398807E+08	  -7.361685E+03	   1.229749E+07	   0.000000E+00	  -6.860690E+05	   1.714934E+04	  -1.467593E+05	  -1.936132E+06	   3.165754E+07	   1.862972E+05