
Predictions were generated on 19-Sep-2022 at 15:48:34 using OpenFAST, compiled as a 64-bit application using double precision at commit v3.2.1-281-g936f18e7
 linked with  NWTC Subroutine Library; ElastoDyn; InflowWind; AeroDyn; ServoDyn

Description from the FAST input file: FAST Certification Test #08: AOC 15/50 with many DOFs with fixed yaw error and steady wind. Many parameters are pure fiction.

Time	Wind1VelX	Wind1VelY	Wind1VelZ	LSSGagPxa	TipDxb1	TipDxb2	TipDyb1	TipDyb2	RollDefl1	RollDefl2	PtchDefl1	PtchDefl2	Spn1ALxb1	Spn1ALyb1	HSShftV	TTDspRoll	TTDspPtch	YawBrRVxp	YawBrRVyp	YawBrRAxp	YawBrRAyp	RootFxb1	RootFyb1	Spn2MLxb1	Spn2MLyb1	LSShftFya	LSShftFza	YawBrFxn	YawBrFyn	RtSpeed	RtSkew	B1N1Theta	B1N2Theta	B1N3Theta	B1N4Theta	B1N1AxInd	B1N2AxInd	B1N3AxInd	B1N4AxInd	B1N1Alpha	B1N2Alpha	B1N3Alpha	B1N4Alpha	B1N1Vrel	B1N2Vrel	B1N3Vrel	B1N4Vrel	B1N1Cl	B1N2Cl	B1N3Cl	B1N4Cl	B1N1Cd	B1N2Cd	B1N3Cd	B1N4Cd	B1N1Cm	B1N2Cm	B1N3Cm	B1N4Cm
(s)	(m/s)	(m/s)	(m/s)	(deg)	(m)	(m)	(m)	(m)	(deg)	(deg)	(deg)	(deg)	(m/s^2)	(m/s^2)	(rpm)	(deg)	(deg)	(deg/s)	(deg/s)	(deg/s^2)	(deg/s^2)	(kN)	(kN)	(kN-m)	(kN-m)	(kN)	(kN)	(kN)	(kN)	(rpm)	(deg)	(deg)	(deg)	(deg)	(deg)	(-)	(-)	(-)	(-)	(deg)	(deg)	(deg)	(deg)	(m/s)	(m/s)	(m/s)	(m/s)	(-)	(-)	(-)	(-)	(-)	(-)	(-)	(-)	(-)	(-)	(-)	(-)
   10.0000	 9.526E+00	-5.500E+00	 0.000E+00	 2.484E+02	-8.180E-04	-1.225E-02	 2.507E-03	-2.631E-03	-3.858E-02	 3.477E-02	-1.450E-01	-3.237E-01	 6.122E+00	 6.553E-01	 1.812E+03	 3.715E-02	 9.992E-02	-4.079E-03	-4.309E-02	-4.980E-01	-1.088E+00	 4.654E-02	 8.892E-01	-3.277E-01	-6.951E-03	 6.088E+00	 2.411E+00	 6.232E+00	-1.074E-01	 6.414E+01	 1.498E+01	 6.140E+00	 5.390E+00	 3.990E+00	 2.590E+00	 8.342E-02	 2.978E-01	 2.171E-01	 2.112E-01	 2.873E+01	 1.166E+01	 9.771E+00	 8.194E+00	 1.730E+01	 2.572E+01	 3.518E+01	 4.484E+01	 1.023E+00	 1.538E+00	 1.223E+00	 1.071E+00	 3.767E-01	 6.258E-02	 4.097E-02	 3.516E-02	 0.000E+00	 0.000E+00	 0.000E+00	 0.000E+00
   10.0500	 9.526E+00	-5.500E+00	 0.000E+00	 2.676E+02	-1.312E-03	-1.173E-02	 2.864E-03	-4.612E-03	-4.352E-02	 6.255E-02	-1.519E-01	-3.162E-01	 6.265E+00	 7.025E-01	 1.812E+03	 3.645E-02	 9.702E-02	-2.148E-02	-6.412E-02	-2.697E-01	-3.551E-01	 4.772E-02	 9.696E-01	-3.737E-01	-3.634E-02	 6.501E+00	 2.143E-01	 6.008E+00	-1.233E-01	 6.414E+01	 1.497E+01	 6.140E+00	 5.390E+00	 3.990E+00	 2.590E+00	 7.175E-02	 1.611E-01	 1.862E-01	 1.892E-01	 3.119E+01	 1.593E+01	 1.092E+01	 8.965E+00	 1.665E+01	 2.509E+01	 3.439E+01	 4.403E+01	 1.124E+00	 1.771E+00	 1.249E+00	 1.068E+00	 4.556E-01	 1.685E-01	 4.878E-02	 4.298E-02	 0.000E+00	 0.000E+00	 0.000E+00	 0.000E+00
   10.1000	 9.526E+00	-5.500E+00	 0.000E+00	 2.869E+02	-3.137E-03	-1.036E-02	 2.683E-03	-6.156E-03	-4.120E-02	 8.420E-02	-1.958E-01	-2.913E-01	 6.324E+00	 7.347E-01	 1.812E+03	 3.510E-02	 9.325E-02	-3.109E-02	-8.042E-02	-1.390E-01	 1.170E-01	 5.424E-02	 9.009E-01	-3.419E-01	-1.191E-01	 6.211E+00	-1.959E+00	 5.721E+00	-1.069E-01	 6.414E+01	 1.498E+01	 6.140E+00	 5.390E+00	 3.990E+00	 2.590E+00	 6.202E-02	 1.229E-01	 1.657E-01	 1.763E-01	 3.373E+01	 1.792E+01	 1.190E+01	 9.590E+00	 1.598E+01	 2.430E+01	 3.354E+01	 4.316E+01	 1.200E+00	 1.938E+00	 1.284E+00	 1.031E+00	 5.661E-01	 2.058E-01	 7.529E-02	 5.338E-02	 0.000E+00	 0.000E+00	 0.000E+00	 0.000E+00
   10.1500	 9.526E+00	-5.500E+00	 0.000E+00	 3.061E+02	-5.298E-03	-1.022E-02	 2.075E-03	-7.295E-03	-3.254E-02	 1.001E-01	-2.336E-01	-2.942E-01	 6.425E+00	 7.492E-01	 1.812E+03	 3.340E-02	 8.929E-02	-3.349E-02	-7.428E-02	 2.192E-01	 6.469E-01	-2.924E-02	 7.212E-01	-2.437E-01	-1.932E-01	 5.253E+00	-3.925E+00	 5.452E+00	-7.531E-02	 6.414E+01	 1.499E+01	 6.140E+00	 5.390E+00	 3.990E+00	 2.590E+00	 5.472E-02	 1.121E-01	 1.540E-01	 1.713E-01	 3.609E+01	 1.912E+01	 1.265E+01	 1.003E+01	 1.536E+01	 2.354E+01	 3.274E+01	 4.233E+01	 1.236E+00	 1.819E+00	 1.231E+00	 1.043E+00	 6.891E-01	 2.843E-01	 9.812E-02	 6.021E-02	 0.000E+00	 0.000E+00	 0.000E+00	 0.000E+00
   10.2000	 9.526E+00	-5.500E+00	 0.000E+00	 3.254E+02	-7.740E-03	-1.086E-02	 1.080E-03	-7.806E-03	-1.770E-02	 1.069E-01	-2.478E-01	-3.199E-01	 6.516E+00	 7.435E-01	 1.812E+03	 3.187E-02	 8.618E-02	-3.144E-02	-6.084E-02	-4.607E-03	 3.502E-02	-2.371E-01	 4.335E-01	-8.579E-02	-2.485E-01	 3.738E+00	-5.439E+00	 5.322E+00	-3.329E-02	 6.414E+01	 1.501E+01	 6.140E+00	 5.390E+00	 3.990E+00	 2.590E+00	 4.987E-02	 1.064E-01	 1.495E-01	 1.725E-01	 3.793E+01	 1.996E+01	 1.312E+01	 1.028E+01	 1.486E+01	 2.293E+01	 3.208E+01	 4.165E+01	 1.180E+00	 1.270E+00	 1.126E+00	 1.012E+00	 7.623E-01	 2.239E-01	 8.995E-02	 6.344E-02	 0.000E+00	 0.000E+00	 0.000E+00	 0.000E+00
   10.2500	 9.526E+00	-5.500E+00	 0.000E+00	 3.446E+02	-1.178E-02	-1.044E-02	-4.156E-04	-7.546E-03	 3.583E-03	 1.030E-01	-3.162E-01	-3.224E-01	 6.530E+00	 7.546E-01	 1.812E+03	 3.063E-02	 8.424E-02	-1.823E-02	-1.386E-02	 4.455E-02	 4.639E-01	-4.091E-01	 2.479E-02	 1.471E-01	-3.616E-01	 1.755E+00	-6.305E+00	 5.264E+00	 8.093E-03	 6.414E+01	 1.501E+01	 6.140E+00	 5.390E+00	 3.990E+00	 2.590E+00	 4.774E-02	 1.057E-01	 1.522E-01	 1.806E-01	 3.895E+01	 2.032E+01	 1.323E+01	 1.026E+01	 1.452E+01	 2.252E+01	 3.165E+01	 4.121E+01	 1.060E+00	 1.068E+00	 1.137E+00	 1.006E+00	 7.424E-01	 2.013E-01	 9.458E-02	 6.242E-02	 0.000E+00	 0.000E+00	 0.000E+00	 0.000E+00
   10.3000	 9.526E+00	-5.500E+00	 0.000E+00	 3.852E+00	-1.420E-02	-9.165E-03	-2.042E-03	-6.947E-03	 2.642E-02	 9.445E-02	-3.646E-01	-3.018E-01	 6.517E+00	 7.232E-01	 1.812E+03	 2.984E-02	 8.421E-02	-9.547E-03	 1.964E-02	 3.437E-01	 8.220E-01	-4.819E-01	-4.177E-01	 3.718E-01	-4.361E-01	-3.910E-01	-6.515E+00	 5.268E+00	 6.021E-02	 6.414E+01	 1.502E+01	 6.140E+00	 5.390E+00	 3.990E+00	 2.590E+00	 4.857E-02	 1.105E-01	 1.628E-01	 1.961E-01	 3.892E+01	 2.008E+01	 1.290E+01	 9.899E+00	 1.438E+01	 2.237E+01	 3.150E+01	 4.105E+01	 9.769E-01	 9.982E-01	 1.091E+00	 9.871E-01	 6.995E-01	 1.967E-01	 9.140E-02	 5.654E-02	 0.000E+00	 0.000E+00	 0.000E+00	 0.000E+00
   10.3500	 9.526E+00	-5.500E+00	 0.000E+00	 2.309E+01	-1.318E-02	-8.558E-03	-4.010E-03	-5.496E-03	 5.406E-02	 7.408E-02	-3.456E-01	-2.892E-01	 6.482E+00	 6.947E-01	 1.812E+03	 2.973E-02	 8.603E-02	 5.790E-03	 5.631E-02	 3.596E-01	 8.995E-01	-4.653E-01	-8.790E-01	 6.240E-01	-3.929E-01	-2.526E+00	-5.970E+00	 5.334E+00	 8.042E-02	 6.414E+01	 1.502E+01	 6.140E+00	 5.390E+00	 3.990E+00	 2.590E+00	 5.251E-02	 1.208E-01	 1.815E-01	 2.179E-01	 3.780E+01	 1.927E+01	 1.218E+01	 9.299E+00	 1.444E+01	 2.250E+01	 3.165E+01	 4.122E+01	 9.155E-01	 9.689E-01	 1.054E+00	 9.762E-01	 6.365E-01	 1.843E-01	 7.617E-02	 4.768E-02	 0.000E+00	 0.000E+00	 0.000E+00	 0.000E+00
   10.4000	 9.526E+00	-5.500E+00	 0.000E+00	 4.234E+01	-1.051E-02	-9.188E-03	-5.791E-03	-3.784E-03	 7.919E-02	 4.997E-02	-2.894E-01	-3.034E-01	 6.425E+00	 6.769E-01	 1.812E+03	 3.043E-02	 8.940E-02	 2.212E-02	 7.344E-02	 3.465E-01	 3.876E-01	-4.329E-01	-1.280E+00	 8.305E-01	-2.904E-01	-4.390E+00	-4.797E+00	 5.477E+00	 8.729E-02	 6.414E+01	 1.502E+01	 6.140E+00	 5.390E+00	 3.990E+00	 2.590E+00	 5.951E-02	 1.365E-01	 2.071E-01	 2.433E-01	 3.579E+01	 1.803E+01	 1.121E+01	 8.591E+00	 1.472E+01	 2.289E+01	 3.208E+01	 4.168E+01	 8.584E-01	 9.340E-01	 1.044E+00	 9.691E-01	 5.394E-01	 1.673E-01	 5.989E-02	 3.743E-02	 0.000E+00	 0.000E+00	 0.000E+00	 0.000E+00
   10.4500	 9.526E+00	-5.500E+00	 0.000E+00	 6.158E+01	-9.281E-03	-9.080E-03	-7.054E-03	-1.949E-03	 9.684E-02	 2.407E-02	-2.698E-01	-3.050E-01	 6.339E+00	 6.911E-01	 1.812E+03	 3.187E-02	 9.337E-02	 3.349E-02	 7.627E-02	 1.886E-01	-3.072E-01	-4.122E-01	-1.583E+00	 9.744E-01	-2.533E-01	-5.778E+00	-3.091E+00	 5.688E+00	 6.249E-02	 6.414E+01	 1.501E+01	 6.140E+00	 5.390E+00	 3.990E+00	 2.590E+00	 6.927E-02	 1.574E-01	 2.394E-01	 2.709E-01	 3.324E+01	 1.652E+01	 1.007E+01	 7.838E+00	 1.519E+01	 2.351E+01	 3.274E+01	 4.238E+01	 8.066E-01	 9.103E-01	 1.043E+00	 9.649E-01	 4.196E-01	 1.433E-01	 4.079E-02	 2.663E-02	 0.000E+00	 0.000E+00	 0.000E+00	 0.000E+00
   10.5000	 9.526E+00	-5.500E+00	 0.000E+00	 8.082E+01	-9.844E-03	-6.703E-03	-7.807E-03	-2.083E-04	 1.069E-01	-4.070E-04	-3.025E-01	-2.592E-01	 6.205E+00	 7.323E-01	 1.812E+03	 3.377E-02	 9.704E-02	 3.846E-02	 6.376E-02	-2.140E-01	-9.918E-01	-3.745E-01	-1.762E+00	 1.065E+00	-2.951E-01	-6.540E+00	-1.039E+00	 5.944E+00	 1.134E-02	 6.414E+01	 1.501E+01	 6.140E+00	 5.390E+00	 3.990E+00	 2.590E+00	 8.137E-02	 2.834E-01	 2.783E-01	 3.007E-01	 3.053E+01	 1.241E+01	 8.844E+00	 7.051E+00	 1.581E+01	 2.415E+01	 3.354E+01	 4.321E+01	 7.873E-01	 8.619E-01	 1.048E+00	 9.616E-01	 3.664E-01	 7.539E-02	 2.038E-02	 1.546E-02	 0.000E+00	 0.000E+00	 0.000E+00	 0.000E+00
   10.5500	 9.526E+00	-5.500E+00	 0.000E+00	 1.001E+02	-9.702E-03	-3.364E-03	-7.711E-03	 1.090E-03	 1.053E-01	-1.861E-02	-3.092E-01	-1.927E-01	 6.130E+00	 7.047E-01	 1.812E+03	 3.549E-02	 9.920E-02	 3.151E-02	 3.190E-02	-2.308E-01	-4.778E-01	-3.464E-01	-1.750E+00	 1.041E+00	-2.984E-01	-6.477E+00	 1.148E+00	 6.114E+00	-4.067E-02	 6.414E+01	 1.499E+01	 6.140E+00	 5.390E+00	 3.990E+00	 2.590E+00	 9.463E-02	 3.767E-01	 3.034E-01	 3.286E-01	 2.801E+01	 9.448E+00	 7.923E+00	 6.323E+00	 1.651E+01	 2.486E+01	 3.439E+01	 4.407E+01	 7.780E-01	 9.302E-01	 1.068E+00	 9.559E-01	 3.226E-01	 2.612E-02	 5.717E-03	 6.130E-03	 0.000E+00	 0.000E+00	 0.000E+00	 0.000E+00
   10.6000	 9.526E+00	-5.500E+00	 0.000E+00	 1.193E+02	-8.678E-03	-1.265E-03	-7.206E-03	 2.199E-03	 9.810E-02	-3.420E-02	-2.920E-01	-1.521E-01	 6.145E+00	 7.010E-01	 1.812E+03	 3.658E-02	 9.985E-02	 1.233E-02	-4.985E-03	-3.329E-01	-6.247E-01	-3.036E-01	-1.609E+00	 9.663E-01	-2.703E-01	-5.728E+00	 3.212E+00	 6.200E+00	-8.312E-02	 6.414E+01	 1.499E+01	 6.140E+00	 5.390E+00	 3.990E+00	 2.590E+00	 1.080E-01	 3.904E-01	 3.126E-01	 3.417E-01	 2.590E+01	 8.595E+00	 7.385E+00	 5.873E+00	 1.720E+01	 2.564E+01	 3.519E+01	 4.487E+01	 7.813E-01	 1.168E+00	 1.059E+00	 9.461E-01	 2.900E-01	-8.408E-03	 4.740E-03	 2.936E-03	 0.000E+00	 0.000E+00	 0.000E+00	 0.000E+00
   10.6500	 9.526E+00	-5.500E+00	 0.000E+00	 1.385E+02	-8.200E-03	-1.002E-03	-5.926E-03	 2.762E-03	 8.008E-02	-4.218E-02	-2.837E-01	-1.495E-01	 6.202E+00	 6.792E-01	 1.812E+03	 3.668E-02	 9.852E-02	-7.748E-03	-4.314E-02	-2.605E-01	-1.166E-01	-2.804E-01	-1.303E+00	 7.912E-01	-2.628E-01	-4.292E+00	 4.895E+00	 6.108E+00	-1.102E-01	 6.414E+01	 1.497E+01	 6.140E+00	 5.390E+00	 3.990E+00	 2.590E+00	 1.196E-01	 3.979E-01	 3.194E-01	 3.421E-01	 2.436E+01	 8.064E+00	 7.021E+00	 5.684E+00	 1.780E+01	 2.630E+01	 3.585E+01	 4.552E+01	 7.944E-01	 1.296E+00	 1.036E+00	 9.238E-01	 2.677E-01	-1.487E-02	 4.140E-03	 4.382E-03	 0.000E+00	 0.000E+00	 0.000E+00	 0.000E+00
   10.7000	 9.526E+00	-5.500E+00	 0.000E+00	 1.578E+02	-8.981E-03	-2.364E-03	-4.162E-03	 2.845E-03	 5.523E-02	-4.349E-02	-3.012E-01	-1.812E-01	 6.290E+00	 6.986E-01	 1.812E+03	 3.598E-02	 9.609E-02	-2.118E-02	-6.366E-02	-2.429E-01	-6.445E-01	-2.962E-01	-8.909E-01	 5.700E-01	-2.929E-01	-2.397E+00	 6.054E+00	 5.934E+00	-1.119E-01	 6.414E+01	 1.498E+01	 6.140E+00	 5.390E+00	 3.990E+00	 2.590E+00	 1.257E-01	 3.966E-01	 3.155E-01	 3.284E-01	 2.352E+01	 7.901E+00	 6.952E+00	 5.757E+00	 1.824E+01	 2.676E+01	 3.631E+01	 4.598E+01	 8.177E-01	 1.281E+00	 1.036E+00	 9.231E-01	 2.578E-01	-5.921E-03	 4.874E-03	 6.937E-03	 0.000E+00	 0.000E+00	 0.000E+00	 0.000E+00
   10.7500	 9.526E+00	-5.500E+00	 0.000E+00	 1.770E+02	-9.297E-03	-4.153E-03	-2.397E-03	 2.398E-03	 3.034E-02	-3.703E-02	-3.101E-01	-2.093E-01	 6.367E+00	 7.210E-01	 1.812E+03	 3.472E-02	 9.269E-02	-2.842E-02	-6.900E-02	-1.265E-01	-2.168E-01	-2.849E-01	-4.429E-01	 3.516E-01	-3.028E-01	-2.652E-01	 6.531E+00	 5.677E+00	-9.572E-02	 6.414E+01	 1.498E+01	 6.140E+00	 5.390E+00	 3.990E+00	 2.590E+00	 1.251E-01	 3.839E-01	 3.015E-01	 3.094E-01	 2.342E+01	 8.158E+00	 7.162E+00	 5.971E+00	 1.846E+01	 2.699E+01	 3.653E+01	 4.619E+01	 8.524E-01	 1.292E+00	 1.055E+00	 9.387E-01	 2.628E-01	 7.907E-03	 9.798E-03	 8.577E-03	 0.000E+00	 0.000E+00	 0.000E+00	 0.000E+00
   10.8000	 9.526E+00	-5.500E+00	 0.000E+00	 1.963E+02	-7.248E-03	-6.189E-03	-5.741E-04	 1.590E-03	 4.760E-03	-2.531E-02	-2.689E-01	-2.347E-01	 6.443E+00	 7.233E-01	 1.812E+03	 3.330E-02	 8.935E-02	-2.720E-02	-5.788E-02	-7.204E-02	 1.621E-01	-2.127E-01	 2.244E-02	 1.033E-01	-2.259E-01	 1.901E+00	 6.321E+00	 5.485E+00	-7.278E-02	 6.414E+01	 1.500E+01	 6.140E+00	 5.390E+00	 3.990E+00	 2.590E+00	 1.180E-01	 3.620E-01	 2.792E-01	 2.871E-01	 2.403E+01	 8.802E+00	 7.645E+00	 6.335E+00	 1.843E+01	 2.697E+01	 3.649E+01	 4.614E+01	 8.851E-01	 1.342E+00	 1.089E+00	 9.695E-01	 2.787E-01	 2.425E-02	 1.563E-02	 1.020E-02	 0.000E+00	 0.000E+00	 0.000E+00	 0.000E+00
   10.8500	 9.526E+00	-5.500E+00	 0.000E+00	 2.155E+02	-3.989E-03	-9.618E-03	 7.600E-04	 3.365E-04	-1.394E-02	-7.294E-03	-2.035E-01	-2.860E-01	 6.439E+00	 7.454E-01	 1.812E+03	 3.187E-02	 8.648E-02	-2.546E-02	-4.576E-02	 3.162E-01	 1.093E+00	-1.125E-01	 4.151E-01	-8.225E-02	-1.083E-01	 3.807E+00	 5.344E+00	 5.337E+00	-2.284E-02	 6.414E+01	 1.501E+01	 6.140E+00	 5.390E+00	 3.990E+00	 2.590E+00	 1.062E-01	 3.365E-01	 2.525E-01	 2.592E-01	 2.532E+01	 9.730E+00	 8.370E+00	 6.915E+00	 1.818E+01	 2.670E+01	 3.620E+01	 4.585E+01	 9.122E-01	 1.405E+00	 1.123E+00	 1.015E+00	 3.049E-01	 4.100E-02	 2.124E-02	 1.613E-02	 0.000E+00	 0.000E+00	 0.000E+00	 0.000E+00
   10.9000	 9.526E+00	-5.500E+00	 0.000E+00	 2.348E+02	-1.881E-03	-1.330E-02	 1.962E-03	-1.283E-03	-3.086E-02	 1.568E-02	-1.634E-01	-3.494E-01	 6.444E+00	 7.454E-01	 1.812E+03	 3.080E-02	 8.515E-02	-1.998E-02	-1.375E-02	 1.231E-01	 6.056E-01	-3.358E-02	 7.360E-01	-2.522E-01	-3.985E-02	 5.329E+00	 3.794E+00	 5.323E+00	 1.506E-02	 6.414E+01	 1.501E+01	 6.140E+00	 5.390E+00	 3.990E+00	 2.590E+00	 9.237E-02	 3.135E-01	 2.325E-01	 2.310E-01	 2.716E+01	 1.080E+01	 9.138E+00	 7.635E+00	 1.772E+01	 2.619E+01	 3.567E+01	 4.532E+01	 9.479E-01	 1.477E+00	 1.187E+00	 1.050E+00	 3.404E-01	 5.379E-02	 3.325E-02	 2.285E-02	 0.000E+00	 0.000E+00	 0.000E+00	 0.000E+00
   10.9500	 9.526E+00	-5.500E+00	 0.000E+00	 2.540E+02	-1.795E-03	-1.399E-02	 2.680E-03	-3.036E-03	-4.102E-02	 4.051E-02	-1.641E-01	-3.556E-01	 6.461E+00	 7.626E-01	 1.812E+03	 3.006E-02	 8.532E-02	-9.142E-03	 1.899E-02	 2.578E-01	 7.049E-01	 2.083E-03	 9.217E-01	-3.435E-01	-4.601E-02	 6.234E+00	 1.830E+00	 5.331E+00	 6.152E-02	 6.414E+01	 1.502E+01	 6.140E+00	 5.390E+00	 3.990E+00	 2.590E+00	 8.008E-02	 2.902E-01	 2.074E-01	 2.039E-01	 2.937E+01	 1.205E+01	 1.010E+01	 8.420E+00	 1.711E+01	 2.551E+01	 3.496E+01	 4.461E+01	 1.049E+00	 1.585E+00	 1.241E+00	 1.029E+00	 3.941E-01	 7.061E-02	 4.605E-02	 2.955E-02	 0.000E+00	 0.000E+00	 0.000E+00	 0.000E+00
   11.0000	 9.526E+00	-5.500E+00	 0.000E+00	 2.732E+02	-3.217E-03	-1.188E-02	 2.946E-03	-5.032E-03	-4.478E-02	 6.857E-02	-1.931E-01	-3.140E-01	 6.491E+00	 7.391E-01	 1.812E+03	 3.001E-02	 8.728E-02	 7.360E-03	 5.286E-02	 3.071E-01	 1.764E-01	 5.385E-03	 9.656E-01	-3.742E-01	-1.095E-01	 6.480E+00	-3.751E-01	 5.398E+00	 8.130E-02	 6.414E+01	 1.502E+01	 6.140E+00	 5.390E+00	 3.990E+00	 2.590E+00	 6.902E-02	 1.435E-01	 1.808E-01	 1.856E-01	 3.184E+01	 1.662E+01	 1.115E+01	 9.116E+00	 1.643E+01	 2.485E+01	 3.413E+01	 4.377E+01	 1.144E+00	 1.839E+00	 1.264E+00	 1.070E+00	 4.821E-01	 1.804E-01	 5.335E-02	 4.883E-02	 0.000E+00	 0.000E+00	 0.000E+00	 0.000E+00
   11.0500	 9.526E+00	-5.500E+00	 0.000E+00	 2.925E+02	-4.853E-03	-9.734E-03	 2.634E-03	-6.485E-03	-4.037E-02	 8.887E-02	-2.236E-01	-2.773E-01	 6.487E+00	 7.188E-01	 1.812E+03	 3.079E-02	 9.031E-02	 2.338E-02	 7.015E-02	 2.211E-01	 1.223E-01	-2.236E-02	 8.688E-01	-3.204E-01	-1.713E-01	 6.019E+00	-2.511E+00	 5.511E+00	 7.913E-02	 6.414E+01	 1.502E+01	 6.140E+00	 5.390E+00	 3.990E+00	 2.590E+00	 6.000E-02	 1.203E-01	 1.633E-01	 1.756E-01	 3.434E+01	 1.819E+01	 1.205E+01	 9.665E+00	 1.576E+01	 2.405E+01	 3.328E+01	 4.290E+01	 1.209E+00	 1.922E+00	 1.279E+00	 1.037E+00	 5.967E-01	 2.194E-01	 8.268E-02	 5.192E-02	 0.000E+00	 0.000E+00	 0.000E+00	 0.000E+00
   11.1000	 9.526E+00	-5.500E+00	 0.000E+00	 3.117E+02	-6.161E-03	-9.706E-03	 1.887E-03	-7.538E-03	-2.971E-02	 1.032E-01	-2.428E-01	-2.957E-01	 6.360E+00	 6.962E-01	 1.812E+03	 3.224E-02	 9.376E-02	 3.523E-02	 7.084E-02	 2.066E-01	 1.574E-01	-6.930E-02	 6.579E-01	-2.107E-01	-2.197E-01	 4.896E+00	-4.409E+00	 5.704E+00	 4.312E-02	 6.414E+01	 1.501E+01	 6.140E+00	 5.390E+00	 3.990E+00	 2.590E+00	 5.341E-02	 1.109E-01	 1.538E-01	 1.729E-01	 3.657E+01	 1.930E+01	 1.272E+01	 1.003E+01	 1.517E+01	 2.333E+01	 3.251E+01	 4.210E+01	 1.231E+00	 1.763E+00	 1.177E+00	 1.043E+00	 7.170E-01	 3.104E-01	 8.996E-02	 6.340E-02	 0.000E+00	 0.000E+00	 0.000E+00	 0.000E+00
   11.1500	 9.526E+00	-5.500E+00	 0.000E+00	 3.310E+02	-8.168E-03	-9.946E-03	 6.756E-04	-7.847E-03	-1.218E-02	 1.074E-01	-2.626E-01	-3.050E-01	 6.218E+00	 6.978E-01	 1.812E+03	 3.398E-02	 9.671E-02	 3.294E-02	 4.161E-02	 3.551E-02	-2.993E-01	-2.169E-01	 3.272E-01	-2.902E-02	-2.586E-01	 3.207E+00	-5.766E+00	 5.928E+00	 5.440E-03	 6.414E+01	 1.500E+01	 6.140E+00	 5.390E+00	 3.990E+00	 2.590E+00	 4.924E-02	 1.066E-01	 1.513E-01	 1.758E-01	 3.822E+01	 2.002E+01	 1.309E+01	 1.022E+01	 1.473E+01	 2.278E+01	 3.192E+01	 4.149E+01	 1.137E+00	 1.202E+00	 1.138E+00	 1.014E+00	 7.533E-01	 2.170E-01	 8.753E-02	 6.128E-02	 0.000E+00	 0.000E+00	 0.000E+00	 0.000E+00
   11.2000	 9.526E+00	-5.500E+00	 0.000E+00	 3.502E+02	-1.105E-02	-9.250E-03	-1.000E-03	-7.477E-03	 1.176E-02	 1.020E-01	-3.036E-01	-3.005E-01	 6.150E+00	 7.332E-01	 1.812E+03	 3.553E-02	 9.848E-02	 2.311E-02	 1.959E-02	-4.424E-01	-8.719E-01	-3.592E-01	-1.095E-01	 2.180E-01	-3.352E-01	 1.117E+00	-6.475E+00	 6.118E+00	-5.439E-02	 6.414E+01	 1.499E+01	 6.140E+00	 5.390E+00	 3.990E+00	 2.590E+00	 4.784E-02	 1.071E-01	 1.556E-01	 1.854E-01	 3.899E+01	 2.025E+01	 1.311E+01	 1.014E+01	 1.446E+01	 2.245E+01	 3.158E+01	 4.114E+01	 1.032E+00	 1.048E+00	 1.134E+00	 1.002E+00	 7.285E-01	 2.009E-01	 9.478E-02	 6.100E-02	 0.000E+00	 0.000E+00	 0.000E+00	 0.000E+00
   11.2500	 9.526E+00	-5.500E+00	 0.000E+00	 9.450E+00	-1.239E-02	-8.298E-03	-2.710E-03	-6.654E-03	 3.590E-02	 9.024E-02	-3.253E-01	-2.883E-01	 6.149E+00	 7.471E-01	 1.812E+03	 3.628E-02	 9.872E-02	 7.006E-03	-1.235E-02	-4.289E-01	-9.893E-01	-4.238E-01	-5.621E-01	 4.468E-01	-3.708E-01	-1.066E+00	-6.456E+00	 6.159E+00	-8.025E-02	 6.414E+01	 1.498E+01	 6.140E+00	 5.390E+00	 3.990E+00	 2.590E+00	 4.937E-02	 1.127E-01	 1.670E-01	 2.013E-01	 3.871E+01	 1.992E+01	 1.275E+01	 9.769E+00	 1.438E+01	 2.239E+01	 3.152E+01	 4.108E+01	 9.569E-01	 9.893E-01	 1.084E+00	 9.867E-01	 6.816E-01	 1.954E-01	 8.846E-02	 5.471E-02	 0.000E+00	 0.000E+00	 0.000E+00	 0.000E+00
   11.3000	 9.526E+00	-5.500E+00	 0.000E+00	 2.869E+01	-1.152E-02	-8.479E-03	-4.723E-03	-4.982E-03	 6.408E-02	 6.677E-02	-3.128E-01	-2.906E-01	 6.201E+00	 7.476E-01	 1.812E+03	 3.622E-02	 9.742E-02	-7.286E-03	-3.131E-02	-2.347E-01	-3.950E-01	-4.125E-01	-1.024E+00	 7.060E-01	-3.349E-01	-3.169E+00	-5.681E+00	 6.028E+00	-1.057E-01	 6.414E+01	 1.498E+01	 6.140E+00	 5.390E+00	 3.990E+00	 2.590E+00	 5.403E-02	 1.239E-01	 1.861E-01	 2.228E-01	 3.737E+01	 1.904E+01	 1.202E+01	 9.182E+00	 1.452E+01	 2.260E+01	 3.176E+01	 4.134E+01	 9.006E-01	 9.612E-01	 1.054E+00	 9.764E-01	 6.157E-01	 1.821E-01	 7.356E-02	 4.601E-02	 0.000E+00	 0.000E+00	 0.000E+00	 0.000E+00
   11.3500	 9.526E+00	-5.500E+00	 0.000E+00	 4.793E+01	-1.002E-02	-9.337E-03	-6.239E-03	-3.270E-03	 8.535E-02	 4.270E-02	-2.855E-01	-3.077E-01	 6.295E+00	 7.300E-01	 1.812E+03	 3.552E-02	 9.509E-02	-1.903E-02	-5.556E-02	-1.280E-01	 3.237E-02	-4.034E-01	-1.388E+00	 8.806E-01	-2.786E-01	-4.886E+00	-4.315E+00	 5.822E+00	-1.038E-01	 6.414E+01	 1.498E+01	 6.140E+00	 5.390E+00	 3.990E+00	 2.590E+00	 6.164E-02	 1.406E-01	 2.127E-01	 2.482E-01	 3.521E+01	 1.773E+01	 1.102E+01	 8.474E+00	 1.486E+01	 2.307E+01	 3.226E+01	 4.187E+01	 8.428E-01	 9.298E-01	 1.045E+00	 9.691E-01	 5.061E-01	 1.630E-01	 5.661E-02	 3.574E-02	 0.000E+00	 0.000E+00	 0.000E+00	 0.000E+00
   11.4000	 9.526E+00	-5.500E+00	 0.000E+00	 6.718E+01	-9.967E-03	-8.514E-03	-7.362E-03	-1.382E-03	 1.010E-01	 1.610E-02	-2.908E-01	-2.939E-01	 6.414E+00	 7.266E-01	 1.812E+03	 3.440E-02	 9.212E-02	-2.405E-02	-6.223E-02	 7.362E-02	 3.203E-01	-4.188E-01	-1.657E+00	 1.017E+00	-2.854E-01	-6.082E+00	-2.476E+00	 5.624E+00	-9.010E-02	 6.414E+01	 1.499E+01	 6.140E+00	 5.390E+00	 3.990E+00	 2.590E+00	 7.206E-02	 1.754E-01	 2.470E-01	 2.766E-01	 3.258E+01	 1.583E+01	 9.827E+00	 7.695E+00	 1.538E+01	 2.371E+01	 3.297E+01	 4.262E+01	 8.017E-01	 9.069E-01	 1.043E+00	 9.639E-01	 4.062E-01	 1.324E-01	 3.653E-02	 2.455E-02	 0.000E+00	 0.000E+00	 0.000E+00	 0.000E+00
   11.4500	 9.526E+00	-5.500E+00	 0.000E+00	 8.642E+01	-1.069E-02	-5.511E-03	-7.829E-03	 1.650E-04	 1.072E-01	-5.632E-03	-3.164E-01	-2.352E-01	 6.436E+00	 7.484E-01	 1.812E+03	 3.319E-02	 8.935E-02	-2.790E-02	-6.044E-02	-1.700E-01	-4.201E-01	-4.268E-01	-1.776E+00	 1.073E+00	-3.220E-01	-6.595E+00	-3.926E-01	 5.520E+00	-5.786E-02	 6.414E+01	 1.500E+01	 6.140E+00	 5.390E+00	 3.990E+00	 2.590E+00	 8.467E-02	 3.593E-01	 2.880E-01	 3.073E-01	 2.987E+01	 1.038E+01	 8.561E+00	 6.883E+00	 1.602E+01	 2.429E+01	 3.378E+01	 4.346E+01	 7.841E-01	 8.581E-01	 1.049E+00	 9.601E-01	 3.544E-01	 4.695E-02	 1.565E-02	 1.308E-02	 0.000E+00	 0.000E+00	 0.000E+00	 0.000E+00
   11.5000	 9.526E+00	-5.500E+00	 0.000E+00	 1.057E+02	-1.032E-02	-2.545E-03	-7.529E-03	 1.424E-03	 1.027E-01	-2.332E-02	-3.207E-01	-1.773E-01	 6.428E+00	 7.119E-01	 1.812E+03	 3.194E-02	 8.696E-02	-2.095E-02	-2.741E-02	 3.886E-03	 4.283E-01	-3.866E-01	-1.717E+00	 1.019E+00	-3.190E-01	-6.306E+00	 1.758E+00	 5.423E+00	-2.340E-02	 6.414E+01	 1.500E+01	 6.140E+00	 5.390E+00	 3.990E+00	 2.590E+00	 9.814E-02	 3.811E-01	 3.058E-01	 3.327E-01	 2.740E+01	 9.193E+00	 7.777E+00	 6.191E+00	 1.672E+01	 2.509E+01	 3.463E+01	 4.431E+01	 7.774E-01	 9.812E-01	 1.070E+00	 9.526E-01	 3.126E-01	 1.766E-02	 4.284E-03	 5.092E-03	 0.000E+00	 0.000E+00	 0.000E+00	 0.000E+00
   11.5500	 9.526E+00	-5.500E+00	 0.000E+00	 1.249E+02	-9.108E-03	-1.517E-03	-6.898E-03	 2.410E-03	 9.373E-02	-3.713E-02	-3.019E-01	-1.554E-01	 6.434E+00	 7.255E-01	 1.812E+03	 3.089E-02	 8.595E-02	-1.873E-02	-8.428E-03	 1.952E-01	 6.112E-01	-3.285E-01	-1.538E+00	 9.282E-01	-2.869E-01	-5.377E+00	 3.704E+00	 5.377E+00	 2.937E-02	 6.414E+01	 1.501E+01	 6.140E+00	 5.390E+00	 3.990E+00	 2.590E+00	 1.119E-01	 3.929E-01	 3.160E-01	 3.439E-01	 2.538E+01	 8.412E+00	 7.239E+00	 5.778E+00	 1.739E+01	 2.585E+01	 3.540E+01	 4.508E+01	 7.830E-01	 1.216E+00	 1.051E+00	 9.392E-01	 2.818E-01	-1.510E-02	 4.450E-03	 2.589E-03	 0.000E+00	 0.000E+00	 0.000E+00	 0.000E+00
   11.6000	 9.526E+00	-5.500E+00	 0.000E+00	 1.441E+02	-8.579E-03	-2.247E-03	-5.402E-03	 2.866E-03	 7.275E-02	-4.349E-02	-2.898E-01	-1.676E-01	 6.447E+00	 7.374E-01	 1.812E+03	 3.022E-02	 8.635E-02	-6.231E-03	 2.804E-02	 3.400E-01	 8.149E-01	-3.118E-01	-1.190E+00	 7.237E-01	-2.745E-01	-3.804E+00	 5.245E+00	 5.356E+00	 6.023E-02	 6.414E+01	 1.501E+01	 6.140E+00	 5.390E+00	 3.990E+00	 2.590E+00	 1.225E-01	 3.999E-01	 3.206E-01	 3.393E-01	 2.399E+01	 7.931E+00	 6.936E+00	 5.670E+00	 1.794E+01	 2.645E+01	 3.600E+01	 4.568E+01	 7.980E-01	 1.284E+00	 1.031E+00	 9.196E-01	 2.620E-01	-1.523E-02	 3.570E-03	 5.179E-03	 0.000E+00	 0.000E+00	 0.000E+00	 0.000E+00
   11.6500	 9.526E+00	-5.500E+00	 0.000E+00	 1.634E+02	-9.229E-03	-4.089E-03	-3.685E-03	 2.860E-03	 4.859E-02	-4.368E-02	-3.038E-01	-2.140E-01	 6.454E+00	 7.807E-01	 1.812E+03	 3.030E-02	 8.828E-02	 9.708E-03	 4.590E-02	 3.368E-01	 4.586E-01	-3.212E-01	-7.719E-01	 5.134E-01	-2.985E-01	-1.841E+00	 6.237E+00	 5.410E+00	 7.788E-02	 6.414E+01	 1.502E+01	 6.140E+00	 5.390E+00	 3.990E+00	 2.590E+00	 1.270E-01	 3.954E-01	 3.133E-01	 3.237E-01	 2.334E+01	 7.879E+00	 6.951E+00	 5.786E+00	 1.831E+01	 2.685E+01	 3.640E+01	 4.607E+01	 8.263E-01	 1.276E+00	 1.037E+00	 9.243E-01	 2.566E-01	-3.060E-03	 5.738E-03	 7.441E-03	 0.000E+00	 0.000E+00	 0.000E+00	 0.000E+00
   11.7000	 9.526E+00	-5.500E+00	 0.000E+00	 1.826E+02	-9.054E-03	-5.671E-03	-1.856E-03	 2.271E-03	 2.277E-02	-3.531E-02	-3.044E-01	-2.413E-01	 6.410E+00	 7.842E-01	 1.812E+03	 3.116E-02	 9.108E-02	 2.394E-02	 6.021E-02	 2.878E-01	 2.476E-02	-2.784E-01	-3.111E-01	 2.798E-01	-2.924E-01	 3.305E-01	 6.541E+00	 5.548E+00	 6.919E-02	 6.414E+01	 1.501E+01	 6.140E+00	 5.390E+00	 3.990E+00	 2.590E+00	 1.244E-01	 3.796E-01	 2.967E-01	 3.034E-01	 2.345E+01	 8.257E+00	 7.242E+00	 6.047E+00	 1.846E+01	 2.700E+01	 3.654E+01	 4.619E+01	 8.614E-01	 1.300E+00	 1.060E+00	 9.445E-01	 2.649E-01	 1.192E-02	 1.137E-02	 9.047E-03	 0.000E+00	 0.000E+00	 0.000E+00	 0.000E+00
   11.7500	 9.526E+00	-5.500E+00	 0.000E+00	 2.019E+02	-6.610E-03	-6.993E-03	-1.222E-04	 1.333E-03	-1.616E-03	-2.143E-02	-2.574E-01	-2.399E-01	 6.331E+00	 7.332E-01	 1.812E+03	 3.263E-02	 9.412E-02	 3.122E-02	 5.526E-02	-3.557E-02	-5.543E-01	-1.779E-01	 1.445E-01	 4.284E-02	-2.036E-01	 2.472E+00	 6.137E+00	 5.765E+00	 3.180E-02	 6.414E+01	 1.501E+01	 6.140E+00	 5.390E+00	 3.990E+00	 2.590E+00	 1.155E-01	 3.554E-01	 2.726E-01	 2.806E-01	 2.428E+01	 9.007E+00	 7.801E+00	 6.456E+00	 1.836E+01	 2.690E+01	 3.642E+01	 4.607E+01	 8.938E-01	 1.355E+00	 1.097E+00	 9.818E-01	 2.844E-01	 2.872E-02	 1.714E-02	 1.095E-02	 0.000E+00	 0.000E+00	 0.000E+00	 0.000E+00
   11.8000	 9.526E+00	-5.500E+00	 0.000E+00	 2.211E+02	-3.300E-03	-9.933E-03	 1.149E-03	-1.851E-04	-1.943E-02	 1.871E-04	-1.912E-01	-2.864E-01	 6.260E+00	 7.033E-01	 1.812E+03	 3.422E-02	 9.640E-02	 3.189E-02	 3.986E-02	-2.063E-01	-4.303E-01	-6.975E-02	 5.212E-01	-1.370E-01	-8.635E-02	 4.313E+00	 4.957E+00	 5.956E+00	-1.367E-02	 6.414E+01	 1.500E+01	 6.140E+00	 5.390E+00	 3.990E+00	 2.590E+00	 1.025E-01	 3.302E-01	 2.462E-01	 2.512E-01	 2.576E+01	 9.993E+00	 8.567E+00	 7.094E+00	 1.805E+01	 2.656E+01	 3.606E+01	 4.571E+01	 9.197E-01	 1.423E+00	 1.155E+00	 1.022E+00	 3.141E-01	 4.482E-02	 2.588E-02	 1.830E-02	 0.000E+00	 0.000E+00	 0.000E+00	 0.000E+00
   11.8500	 9.526E+00	-5.500E+00	 0.000E+00	 2.404E+02	-1.338E-03	-1.230E-02	 2.246E-03	-1.854E-03	-3.484E-02	 2.365E-02	-1.524E-01	-3.322E-01	 6.194E+00	 6.777E-01	 1.812E+03	 3.544E-02	 9.773E-02	 1.779E-02	 1.609E-02	-2.159E-01	-4.611E-01	 9.308E-03	 8.120E-01	-2.916E-01	-2.291E-02	 5.697E+00	 3.256E+00	 6.072E+00	-5.124E-02	 6.414E+01	 1.499E+01	 6.140E+00	 5.390E+00	 3.990E+00	 2.590E+00	 8.877E-02	 3.071E-01	 2.277E-01	 2.230E-01	 2.776E+01	 1.114E+01	 9.356E+00	 7.850E+00	 1.755E+01	 2.600E+01	 3.547E+01	 4.513E+01	 9.796E-01	 1.500E+00	 1.200E+00	 1.059E+00	 3.536E-01	 5.757E-02	 3.606E-02	 2.682E-02	 0.000E+00	 0.000E+00	 0.000E+00	 0.000E+00
   11.9000	 9.526E+00	-5.500E+00	 0.000E+00	 2.596E+02	-1.204E-03	-1.221E-02	 2.794E-03	-3.760E-03	-4.260E-02	 5.052E-02	-1.521E-01	-3.275E-01	 6.214E+00	 7.061E-01	 1.812E+03	 3.594E-02	 9.762E-02	 2.763E-03	-1.554E-02	-2.073E-01	-2.605E-02	 4.246E-02	 9.548E-01	-3.631E-01	-2.291E-02	 6.404E+00	 1.157E+00	 6.049E+00	-8.586E-02	 6.414E+01	 1.498E+01	 6.140E+00	 5.390E+00	 3.990E+00	 2.590E+00	 7.657E-02	 2.068E-01	 1.981E-01	 1.976E-01	 3.011E+01	 1.436E+01	 1.044E+01	 8.641E+00	 1.692E+01	 2.539E+01	 3.473E+01	 4.438E+01	 1.081E+00	 1.638E+00	 1.229E+00	 1.056E+00	 4.170E-01	 1.309E-01	 4.753E-02	 3.544E-02	 0.000E+00	 0.000E+00	 0.000E+00	 0.000E+00
   11.9500	 9.526E+00	-5.500E+00	 0.000E+00	 2.788E+02	-2.672E-03	-1.050E-02	 2.845E-03	-5.615E-03	-4.352E-02	 7.672E-02	-1.885E-01	-2.895E-01	 6.280E+00	 7.038E-01	 1.812E+03	 3.582E-02	 9.653E-02	-8.361E-03	-3.575E-02	-2.324E-01	-5.914E-01	 6.283E-02	 9.471E-01	-3.670E-01	-9.899E-02	 6.426E+00	-1.066E+00	 5.953E+00	-9.790E-02	 6.414E+01	 1.498E+01	 6.140E+00	 5.390E+00	 3.990E+00	 2.590E+00	 6.594E-02	 1.294E-01	 1.739E-01	 1.813E-01	 3.264E+01	 1.731E+01	 1.148E+01	 9.322E+00	 1.625E+01	 2.463E+01	 3.389E+01	 4.352E+01	 1.171E+00	 1.904E+00	 1.278E+00	 1.071E+00	 5.167E-01	 1.922E-01	 6.187E-02	 5.411E-02	 0.000E+00	 0.000E+00	 0.000E+00	 0.000E+00
   12.0000	 9.526E+00	-5.500E+00	 0.000E+00	 2.981E+02	-4.278E-03	-9.600E-03	 2.372E-03	-6.875E-03	-3.668E-02	 9.436E-02	-2.125E-01	-2.743E-01	 6.312E+00	 7.200E-01	 1.812E+03	 3.516E-02	 9.440E-02	-1.787E-02	-4.923E-02	-1.424E-01	-3.609E-01	 6.081E-03	 8.116E-01	-2.899E-01	-1.570E-01	 5.737E+00	-3.145E+00	 5.777E+00	-9.594E-02	 6.414E+01	 1.498E+01	 6.140E+00	 5.390E+00	 3.990E+00	 2.590E+00	 5.754E-02	 1.163E-01	 1.585E-01	 1.729E-01	 3.512E+01	 1.863E+01	 1.234E+01	 9.853E+00	 1.560E+01	 2.384E+01	 3.306E+01	 4.266E+01	 1.226E+00	 1.895E+00	 1.279E+00	 1.038E+00	 6.375E-01	 2.395E-01	 9.392E-02	 5.521E-02	 0.000E+00	 0.000E+00	 0.000E+00	 0.000E+00
   12.0500	 9.526E+00	-5.500E+00	 0.000E+00	 3.173E+02	-6.100E-03	-1.043E-02	 1.523E-03	-7.723E-03	-2.429E-02	 1.057E-01	-2.298E-01	-3.140E-01	 6.371E+00	 7.315E-01	 1.812E+03	 3.425E-02	 9.191E-02	-1.903E-02	-4.774E-02	-2.193E-01	-2.744E-01	-1.137E-01	 5.673E-01	-1.595E-01	-2.096E-01	 4.439E+00	-4.897E+00	 5.644E+00	-8.741E-02	 6.414E+01	 1.500E+01	 6.140E+00	 5.390E+00	 3.990E+00	 2.590E+00	 5.164E-02	 1.082E-01	 1.506E-01	 1.715E-01	 3.723E+01	 1.966E+01	 1.296E+01	 1.020E+01	 1.505E+01	 2.316E+01	 3.233E+01	 4.191E+01	 1.229E+00	 1.606E+00	 1.149E+00	 1.038E+00	 7.532E-01	 3.007E-01	 8.980E-02	 6.571E-02	 0.000E+00	 0.000E+00	 0.000E+00	 0.000E+00
   12.1000	 9.526E+00	-5.500E+00	 0.000E+00	 3.366E+02	-9.460E-03	-1.057E-02	 2.065E-04	-7.739E-03	-5.469E-03	 1.058E-01	-2.831E-01	-3.217E-01	 6.386E+00	 7.597E-01	 1.812E+03	 3.309E-02	 8.923E-02	-2.256E-02	-4.622E-02	 1.481E-01	 7.504E-01	-2.872E-01	 2.011E-01	 4.492E-02	-2.967E-01	 2.609E+00	-6.024E+00	 5.510E+00	-4.872E-02	 6.414E+01	 1.500E+01	 6.140E+00	 5.390E+00	 3.990E+00	 2.590E+00	 4.826E-02	 1.053E-01	 1.499E-01	 1.762E-01	 3.865E+01	 2.025E+01	 1.325E+01	 1.031E+01	 1.464E+01	 2.267E+01	 3.180E+01	 4.137E+01	 1.103E+00	 1.149E+00	 1.142E+00	 1.011E+00	 7.527E-01	 2.168E-01	 9.189E-02	 6.277E-02	 0.000E+00	 0.000E+00	 0.000E+00	 0.000E+00