
Predictions were generated on 23-Dec-2022 at 14:46:05 using OpenFAST, compiled as a 64-bit application using double precision at commit v3.3.0-294-g5aab8a2a
 linked with  NWTC Subroutine Library; SED (v1.00.00, 15-Feb-2022); InflowWind; AeroDisk; ServoDyn

Description from the FAST input file: Based on FAST Certification Test #18: NREL 5.0 MW Baseline Wind Turbine (Onshore) with AeroDisk

Time	Wind1VelX	Wind1VelY	Wind1VelZ	BlPitch1	BlPitch2	BlPitch3	Azimuth	RotSpeed	RotAcc	GenSpeed	GenAcc	Yaw	YawRate	RotPwr	RotTorq	ADSpeed	ADTSR	ADPitch	ADVWindx	ADVWindy	ADVWindz	ADSTVx	ADSTVy	ADSTVz	ADVRel	ADSkew	ADCp	ADCt	ADCq	ADFx	ADFy	ADFz	ADMx	ADMy	ADMz	ADPower	GenPwr	GenTq
(s)	(m/s)	(m/s)	(m/s)	(deg)	(deg)	(deg)	(deg)	(rpm)	(deg/s^2)	(rpm)	(deg/s^2)	(deg)	(deg/s)	(kW)	(kN-m)	(rpm)	(-)	(deg)	(m/s)	(m/s)	(m/s)	(m/s)	(m/s)	(m/s)	(m/s)	(deg)	(-)	(-)	(-)	(N)	(N)	(N)	(N-m)	(N-m)	(N-m)	(W)	(kW)	(kN-m)
    0.0000	 1.162E+01	 1.788E-02	-2.976E-01	 0.000E+00	 0.000E+00	 0.000E+00	 0.000E+00	 1.210E+01	 0.000E+00	 1.174E+03	 0.000E+00	 0.000E+00	 0.000E+00	 0.000E+00	 0.000E+00	 1.210E+01	 6.956E+00	 0.000E+00	 1.147E+01	-1.235E-01	 9.343E-01	 0.000E+00	 0.000E+00	 0.000E+00	 1.151E+01	 4.436E+00	 4.587E-01	 7.330E-01	 6.593E-02	 7.372E+05	 0.000E+00	 0.000E+00	 4.178E+06	 0.000E+00	 0.000E+00	 5.293E+06	 5.000E+03	 4.309E+01
    0.0063	 1.168E+01	 1.708E-02	-3.367E-01	 0.000E+00	 0.000E+00	 0.000E+00	 4.537E-01	 1.210E+01	-1.442E-02	 1.174E+03	-1.399E+00	 0.000E+00	 0.000E+00	 5.296E+03	 4.179E+03	 1.210E+01	 6.953E+00	 0.000E+00	 1.148E+01	-1.104E-01	 9.223E-01	 0.000E+00	 0.000E+00	 0.000E+00	 1.152E+01	 4.490E+00	 4.586E-01	 7.326E-01	 6.595E-02	 7.375E+05	 0.000E+00	 0.000E+00	 4.183E+06	 0.000E+00	 0.000E+00	 5.300E+06	 5.000E+03	 4.309E+01
    0.0125	 1.167E+01	 4.747E-02	-4.080E-01	 0.000E+00	 0.000E+00	 0.000E+00	 9.075E-01	 1.210E+01	-1.092E-02	 1.174E+03	-1.059E+00	 0.000E+00	 0.000E+00	 5.296E+03	 4.180E+03	 1.210E+01	 6.950E+00	 0.000E+00	 1.149E+01	-9.723E-02	 9.157E-01	 0.000E+00	 0.000E+00	 0.000E+00	 1.152E+01	 4.537E+00	 4.585E-01	 7.322E-01	 6.597E-02	 7.378E+05	 0.000E+00	 0.000E+00	 4.187E+06	 0.000E+00	 0.000E+00	 5.306E+06	 5.000E+03	 4.309E+01
    0.0188	 1.164E+01	 9.345E-02	-4.954E-01	 0.000E+00	 0.000E+00	 0.000E+00	 1.361E+00	 1.210E+01	-1.158E-02	 1.174E+03	-1.123E+00	 0.000E+00	 0.000E+00	 5.296E+03	 4.179E+03	 1.210E+01	 6.948E+00	 0.000E+00	 1.149E+01	-7.923E-02	 9.144E-01	 0.000E+00	 0.000E+00	 0.000E+00	 1.153E+01	 4.597E+00	 4.583E-01	 7.319E-01	 6.597E-02	 7.379E+05	 0.000E+00	 0.000E+00	 4.190E+06	 0.000E+00	 0.000E+00	 5.309E+06	 5.000E+03	 4.309E+01
    0.0250	 1.161E+01	 1.394E-01	-5.829E-01	 0.000E+00	 0.000E+00	 0.000E+00	 1.815E+00	 1.210E+01	-1.135E-02	 1.174E+03	-1.101E+00	 0.000E+00	 0.000E+00	 5.296E+03	 4.179E+03	 1.210E+01	 6.945E+00	 0.000E+00	 1.150E+01	-5.999E-02	 9.145E-01	 0.000E+00	 0.000E+00	 0.000E+00	 1.153E+01	 4.659E+00	 4.582E-01	 7.316E-01	 6.598E-02	 7.382E+05	 0.000E+00	 0.000E+00	 4.194E+06	 0.000E+00	 0.000E+00	 5.315E+06	 5.000E+03	 4.309E+01
    0.0312	 1.158E+01	 1.854E-01	-6.703E-01	 0.000E+00	 0.000E+00	 0.000E+00	 2.269E+00	 1.210E+01	-9.656E-03	 1.174E+03	-9.366E-01	 0.000E+00	 0.000E+00	 5.296E+03	 4.180E+03	 1.210E+01	 6.940E+00	 0.000E+00	 1.150E+01	-3.974E-02	 9.126E-01	 0.000E+00	 0.000E+00	 0.000E+00	 1.154E+01	 4.729E+00	 4.581E-01	 7.311E-01	 6.600E-02	 7.386E+05	 0.000E+00	 0.000E+00	 4.201E+06	 0.000E+00	 0.000E+00	 5.323E+06	 5.000E+03	 4.309E+01
    0.0375	 1.155E+01	 2.314E-01	-7.577E-01	 0.000E+00	 0.000E+00	 0.000E+00	 2.722E+00	 1.210E+01	-7.471E-03	 1.174E+03	-7.247E-01	 0.000E+00	 0.000E+00	 5.296E+03	 4.180E+03	 1.210E+01	 6.933E+00	 0.000E+00	 1.152E+01	-1.566E-02	 9.077E-01	 0.000E+00	 0.000E+00	 0.000E+00	 1.155E+01	 4.823E+00	 4.579E-01	 7.303E-01	 6.604E-02	 7.393E+05	 0.000E+00	 0.000E+00	 4.212E+06	 0.000E+00	 0.000E+00	 5.337E+06	 5.000E+03	 4.309E+01
    0.0438	 1.152E+01	 2.774E-01	-8.452E-01	 0.000E+00	 0.000E+00	 0.000E+00	 3.176E+00	 1.210E+01	-3.693E-03	 1.174E+03	-3.582E-01	 0.000E+00	 0.000E+00	 5.296E+03	 4.180E+03	 1.210E+01	 6.925E+00	 0.000E+00	 1.153E+01	 1.035E-02	 9.013E-01	 0.000E+00	 0.000E+00	 0.000E+00	 1.157E+01	 4.929E+00	 4.576E-01	 7.294E-01	 6.608E-02	 7.402E+05	 0.000E+00	 0.000E+00	 4.225E+06	 0.000E+00	 0.000E+00	 5.353E+06	 5.000E+03	 4.309E+01
    0.0500	 1.149E+01	 3.234E-01	-9.326E-01	 0.000E+00	 0.000E+00	 0.000E+00	 3.630E+00	 1.210E+01	-1.191E-03	 1.174E+03	-1.155E-01	 0.000E+00	 0.000E+00	 5.296E+03	 4.180E+03	 1.210E+01	 6.916E+00	 0.000E+00	 1.155E+01	 3.741E-02	 8.936E-01	 0.000E+00	 0.000E+00	 0.000E+00	 1.159E+01	 5.042E+00	 4.573E-01	 7.284E-01	 6.613E-02	 7.412E+05	 0.000E+00	 0.000E+00	 4.239E+06	 0.000E+00	 0.000E+00	 5.371E+06	 5.000E+03	 4.309E+01
    0.0563	 1.146E+01	 3.694E-01	-1.020E+00	 0.000E+00	 0.000E+00	 0.000E+00	 4.084E+00	 1.210E+01	 2.420E-03	 1.174E+03	 2.347E-01	 0.000E+00	 0.000E+00	 5.297E+03	 4.180E+03	 1.210E+01	 6.906E+00	 0.000E+00	 1.157E+01	 6.585E-02	 8.880E-01	 0.000E+00	 0.000E+00	 0.000E+00	 1.161E+01	 5.156E+00	 4.570E-01	 7.274E-01	 6.618E-02	 7.422E+05	 0.000E+00	 0.000E+00	 4.255E+06	 0.000E+00	 0.000E+00	 5.391E+06	 5.000E+03	 4.309E+01
    0.0625	 1.142E+01	 4.030E-01	-1.050E+00	 0.000E+00	 0.000E+00	 0.000E+00	 4.537E+00	 1.210E+01	 5.674E-03	 1.174E+03	 5.503E-01	 0.000E+00	 0.000E+00	 5.297E+03	 4.180E+03	 1.210E+01	 6.897E+00	 0.000E+00	 1.159E+01	 9.349E-02	 8.832E-01	 0.000E+00	 0.000E+00	 0.000E+00	 1.162E+01	 5.263E+00	 4.567E-01	 7.264E-01	 6.622E-02	 7.432E+05	 0.000E+00	 0.000E+00	 4.268E+06	 0.000E+00	 0.000E+00	 5.408E+06	 5.000E+03	 4.309E+01
    0.0688	 1.139E+01	 4.305E-01	-1.051E+00	 0.000E+00	 0.000E+00	 0.000E+00	 4.991E+00	 1.210E+01	 7.803E-03	 1.174E+03	 7.568E-01	 0.000E+00	 0.000E+00	 5.297E+03	 4.180E+03	 1.210E+01	 6.889E+00	 0.000E+00	 1.160E+01	 1.169E-01	 8.773E-01	 0.000E+00	 0.000E+00	 0.000E+00	 1.164E+01	 5.353E+00	 4.565E-01	 7.256E-01	 6.626E-02	 7.440E+05	 0.000E+00	 0.000E+00	 4.280E+06	 0.000E+00	 0.000E+00	 5.423E+06	 5.000E+03	 4.309E+01
    0.0750	 1.135E+01	 4.580E-01	-1.052E+00	 0.000E+00	 0.000E+00	 0.000E+00	 5.445E+00	 1.210E+01	 9.863E-03	 1.174E+03	 9.567E-01	 0.000E+00	 0.000E+00	 5.297E+03	 4.181E+03	 1.210E+01	 6.885E+00	 0.000E+00	 1.161E+01	 1.380E-01	 8.689E-01	 0.000E+00	 0.000E+00	 0.000E+00	 1.165E+01	 5.437E+00	 4.563E-01	 7.251E-01	 6.627E-02	 7.443E+05	 0.000E+00	 0.000E+00	 4.286E+06	 0.000E+00	 0.000E+00	 5.431E+06	 5.000E+03	 4.309E+01
    0.0813	 1.131E+01	 4.855E-01	-1.053E+00	 0.000E+00	 0.000E+00	 0.000E+00	 5.899E+00	 1.210E+01	 8.830E-03	 1.174E+03	 8.565E-01	 0.000E+00	 0.000E+00	 5.297E+03	 4.181E+03	 1.210E+01	 6.883E+00	 0.000E+00	 1.162E+01	 1.565E-01	 8.577E-01	 0.000E+00	 0.000E+00	 0.000E+00	 1.165E+01	 5.517E+00	 4.561E-01	 7.247E-01	 6.627E-02	 7.444E+05	 0.000E+00	 0.000E+00	 4.289E+06	 0.000E+00	 0.000E+00	 5.434E+06	 5.000E+03	 4.309E+01
    0.0875	 1.128E+01	 5.130E-01	-1.054E+00	 0.000E+00	 0.000E+00	 0.000E+00	 6.352E+00	 1.210E+01	 9.508E-03	 1.174E+03	 9.223E-01	 0.000E+00	 0.000E+00	 5.297E+03	 4.181E+03	 1.210E+01	 6.884E+00	 0.000E+00	 1.162E+01	 1.743E-01	 8.440E-01	 0.000E+00	 0.000E+00	 0.000E+00	 1.165E+01	 5.599E+00	 4.560E-01	 7.246E-01	 6.624E-02	 7.441E+05	 0.000E+00	 0.000E+00	 4.286E+06	 0.000E+00	 0.000E+00	 5.430E+06	 5.000E+03	 4.309E+01
    0.0938	 1.124E+01	 5.405E-01	-1.055E+00	 0.000E+00	 0.000E+00	 0.000E+00	 6.806E+00	 1.210E+01	 7.085E-03	 1.174E+03	 6.872E-01	 0.000E+00	 0.000E+00	 5.297E+03	 4.180E+03	 1.210E+01	 6.887E+00	 0.000E+00	 1.162E+01	 1.915E-01	 8.309E-01	 0.000E+00	 0.000E+00	 0.000E+00	 1.165E+01	 5.678E+00	 4.559E-01	 7.246E-01	 6.621E-02	 7.436E+05	 0.000E+00	 0.000E+00	 4.280E+06	 0.000E+00	 0.000E+00	 5.424E+06	 5.000E+03	 4.309E+01
    0.1000	 1.120E+01	 5.680E-01	-1.056E+00	 0.000E+00	 0.000E+00	 0.000E+00	 7.260E+00	 1.210E+01	 6.043E-03	 1.174E+03	 5.862E-01	 0.000E+00	 0.000E+00	 5.297E+03	 4.180E+03	 1.210E+01	 6.890E+00	 0.000E+00	 1.161E+01	 2.094E-01	 8.203E-01	 0.000E+00	 0.000E+00	 0.000E+00	 1.164E+01	 5.753E+00	 4.559E-01	 7.247E-01	 6.616E-02	 7.429E+05	 0.000E+00	 0.000E+00	 4.273E+06	 0.000E+00	 0.000E+00	 5.415E+06	 5.000E+03	 4.309E+01
    0.1063	 1.117E+01	 5.954E-01	-1.057E+00	 0.000E+00	 0.000E+00	 0.000E+00	 7.714E+00	 1.210E+01	 4.406E-03	 1.174E+03	 4.273E-01	 0.000E+00	 0.000E+00	 5.297E+03	 4.180E+03	 1.210E+01	 6.894E+00	 0.000E+00	 1.161E+01	 2.263E-01	 8.106E-01	 0.000E+00	 0.000E+00	 0.000E+00	 1.164E+01	 5.822E+00	 4.558E-01	 7.248E-01	 6.612E-02	 7.422E+05	 0.000E+00	 0.000E+00	 4.266E+06	 0.000E+00	 0.000E+00	 5.406E+06	 5.000E+03	 4.309E+01
    0.1125	 1.116E+01	 6.203E-01	-1.096E+00	 0.000E+00	 0.000E+00	 0.000E+00	 8.167E+00	 1.210E+01	 3.131E-03	 1.174E+03	 3.038E-01	 0.000E+00	 0.000E+00	 5.297E+03	 4.180E+03	 1.210E+01	 6.897E+00	 0.000E+00	 1.160E+01	 2.404E-01	 8.001E-01	 0.000E+00	 0.000E+00	 0.000E+00	 1.164E+01	 5.881E+00	 4.558E-01	 7.249E-01	 6.608E-02	 7.416E+05	 0.000E+00	 0.000E+00	 4.259E+06	 0.000E+00	 0.000E+00	 5.396E+06	 5.000E+03	 4.309E+01
    0.1188	 1.118E+01	 6.438E-01	-1.153E+00	 0.000E+00	 0.000E+00	 0.000E+00	 8.621E+00	 1.210E+01	 1.565E-03	 1.174E+03	 1.518E-01	 0.000E+00	 0.000E+00	 5.297E+03	 4.180E+03	 1.210E+01	 6.901E+00	 0.000E+00	 1.160E+01	 2.526E-01	 7.881E-01	 0.000E+00	 0.000E+00	 0.000E+00	 1.163E+01	 5.938E+00	 4.557E-01	 7.251E-01	 6.603E-02	 7.409E+05	 0.000E+00	 0.000E+00	 4.251E+06	 0.000E+00	 0.000E+00	 5.386E+06	 5.000E+03	 4.309E+01
    0.1250	 1.119E+01	 6.673E-01	-1.211E+00	 0.000E+00	 0.000E+00	 0.000E+00	 9.075E+00	 1.210E+01	-4.678E-04	 1.174E+03	-4.537E-02	 0.000E+00	 0.000E+00	 5.297E+03	 4.180E+03	 1.210E+01	 6.907E+00	 0.000E+00	 1.159E+01	 2.640E-01	 7.759E-01	 0.000E+00	 0.000E+00	 0.000E+00	 1.162E+01	 5.993E+00	 4.557E-01	 7.254E-01	 6.598E-02	 7.400E+05	 0.000E+00	 0.000E+00	 4.240E+06	 0.000E+00	 0.000E+00	 5.373E+06	 5.000E+03	 4.309E+01
    0.1313	 1.121E+01	 6.908E-01	-1.268E+00	 0.000E+00	 0.000E+00	 0.000E+00	 9.529E+00	 1.210E+01	-3.767E-03	 1.174E+03	-3.654E-01	 0.000E+00	 0.000E+00	 5.296E+03	 4.180E+03	 1.210E+01	 6.915E+00	 0.000E+00	 1.158E+01	 2.772E-01	 7.648E-01	 0.000E+00	 0.000E+00	 0.000E+00	 1.161E+01	 6.051E+00	 4.557E-01	 7.259E-01	 6.590E-02	 7.388E+05	 0.000E+00	 0.000E+00	 4.226E+06	 0.000E+00	 0.000E+00	 5.354E+06	 5.000E+03	 4.309E+01
    0.1375	 1.122E+01	 7.143E-01	-1.326E+00	 0.000E+00	 0.000E+00	 0.000E+00	 9.982E+00	 1.210E+01	-7.916E-03	 1.174E+03	-7.678E-01	 0.000E+00	 0.000E+00	 5.296E+03	 4.180E+03	 1.210E+01	 6.925E+00	 0.000E+00	 1.156E+01	 2.884E-01	 7.534E-01	 0.000E+00	 0.000E+00	 0.000E+00	 1.159E+01	 6.103E+00	 4.558E-01	 7.266E-01	 6.582E-02	 7.373E+05	 0.000E+00	 0.000E+00	 4.208E+06	 0.000E+00	 0.000E+00	 5.332E+06	 5.000E+03	 4.309E+01
    0.1438	 1.124E+01	 7.378E-01	-1.383E+00	 0.000E+00	 0.000E+00	 0.000E+00	 1.044E+01	 1.210E+01	-1.236E-02	 1.174E+03	-1.199E+00	 0.000E+00	 0.000E+00	 5.296E+03	 4.179E+03	 1.210E+01	 6.936E+00	 0.000E+00	 1.155E+01	 2.995E-01	 7.413E-01	 0.000E+00	 0.000E+00	 0.000E+00	 1.158E+01	 6.156E+00	 4.558E-01	 7.273E-01	 6.572E-02	 7.357E+05	 0.000E+00	 0.000E+00	 4.188E+06	 0.000E+00	 0.000E+00	 5.307E+06	 5.000E+03	 4.309E+01
    0.1500	 1.125E+01	 7.613E-01	-1.440E+00	 0.000E+00	 0.000E+00	 0.000E+00	 1.089E+01	 1.210E+01	-1.658E-02	 1.174E+03	-1.609E+00	 0.000E+00	 0.000E+00	 5.295E+03	 4.179E+03	 1.210E+01	 6.949E+00	 0.000E+00	 1.153E+01	 3.108E-01	 7.280E-01	 0.000E+00	 0.000E+00	 0.000E+00	 1.156E+01	 6.215E+00	 4.559E-01	 7.281E-01	 6.561E-02	 7.339E+05	 0.000E+00	 0.000E+00	 4.166E+06	 0.000E+00	 0.000E+00	 5.279E+06	 5.000E+03	 4.309E+01
    0.1562	 1.127E+01	 7.848E-01	-1.498E+00	 0.000E+00	 0.000E+00	 0.000E+00	 1.134E+01	 1.210E+01	-2.181E-02	 1.174E+03	-2.116E+00	 0.000E+00	 0.000E+00	 5.295E+03	 4.179E+03	 1.210E+01	 6.963E+00	 0.000E+00	 1.151E+01	 3.208E-01	 7.122E-01	 0.000E+00	 0.000E+00	 0.000E+00	 1.153E+01	 6.278E+00	 4.560E-01	 7.291E-01	 6.549E-02	 7.319E+05	 0.000E+00	 0.000E+00	 4.142E+06	 0.000E+00	 0.000E+00	 5.248E+06	 5.000E+03	 4.309E+01
    0.1625	 1.130E+01	 8.179E-01	-1.480E+00	 0.000E+00	 0.000E+00	 0.000E+00	 1.180E+01	 1.210E+01	-2.802E-02	 1.174E+03	-2.718E+00	 0.000E+00	 0.000E+00	 5.295E+03	 4.179E+03	 1.210E+01	 6.978E+00	 0.000E+00	 1.148E+01	 3.297E-01	 6.959E-01	 0.000E+00	 0.000E+00	 0.000E+00	 1.151E+01	 6.339E+00	 4.561E-01	 7.301E-01	 6.536E-02	 7.296E+05	 0.000E+00	 0.000E+00	 4.115E+06	 0.000E+00	 0.000E+00	 5.213E+06	 5.000E+03	 4.309E+01
    0.1688	 1.133E+01	 8.559E-01	-1.424E+00	 0.000E+00	 0.000E+00	 0.000E+00	 1.225E+01	 1.210E+01	-3.409E-02	 1.174E+03	-3.306E+00	 0.000E+00	 0.000E+00	 5.294E+03	 4.178E+03	 1.210E+01	 6.995E+00	 0.000E+00	 1.146E+01	 3.364E-01	 6.832E-01	 0.000E+00	 0.000E+00	 0.000E+00	 1.148E+01	 6.381E+00	 4.562E-01	 7.313E-01	 6.522E-02	 7.273E+05	 0.000E+00	 0.000E+00	 4.087E+06	 0.000E+00	 0.000E+00	 5.178E+06	 5.000E+03	 4.309E+01
    0.1750	 1.137E+01	 8.939E-01	-1.368E+00	 0.000E+00	 0.000E+00	 0.000E+00	 1.270E+01	 1.210E+01	-4.012E-02	 1.174E+03	-3.892E+00	 0.000E+00	 0.000E+00	 5.294E+03	 4.178E+03	 1.210E+01	 7.011E+00	 0.000E+00	 1.143E+01	 3.316E-01	 6.768E-01	 0.000E+00	 0.000E+00	 0.000E+00	 1.146E+01	 6.361E+00	 4.565E-01	 7.327E-01	 6.511E-02	 7.252E+05	 0.000E+00	 0.000E+00	 4.060E+06	 0.000E+00	 0.000E+00	 5.144E+06	 5.000E+03	 4.309E+01
    0.1813	 1.140E+01	 9.318E-01	-1.313E+00	 0.000E+00	 0.000E+00	 0.000E+00	 1.316E+01	 1.210E+01	-4.485E-02	 1.174E+03	-4.350E+00	 0.000E+00	 0.000E+00	 5.293E+03	 4.178E+03	 1.210E+01	 7.027E+00	 0.000E+00	 1.140E+01	 3.196E-01	 6.723E-01	 0.000E+00	 0.000E+00	 0.000E+00	 1.143E+01	 6.312E+00	 4.568E-01	 7.340E-01	 6.500E-02	 7.232E+05	 0.000E+00	 0.000E+00	 4.035E+06	 0.000E+00	 0.000E+00	 5.112E+06	 5.000E+03	 4.309E+01
    0.1875	 1.143E+01	 9.698E-01	-1.257E+00	 0.000E+00	 0.000E+00	 0.000E+00	 1.361E+01	 1.210E+01	-5.034E-02	 1.174E+03	-4.883E+00	 0.000E+00	 0.000E+00	 5.293E+03	 4.178E+03	 1.210E+01	 7.042E+00	 0.000E+00	 1.138E+01	 3.032E-01	 6.670E-01	 0.000E+00	 0.000E+00	 0.000E+00	 1.140E+01	 6.255E+00	 4.570E-01	 7.353E-01	 6.490E-02	 7.214E+05	 0.000E+00	 0.000E+00	 4.011E+06	 0.000E+00	 0.000E+00	 5.082E+06	 4.999E+03	 4.309E+01
    0.1938	 1.147E+01	 1.008E+00	-1.201E+00	 0.000E+00	 0.000E+00	 0.000E+00	 1.407E+01	 1.210E+01	-5.464E-02	 1.174E+03	-5.300E+00	 0.000E+00	 0.000E+00	 5.292E+03	 4.177E+03	 1.210E+01	 7.057E+00	 0.000E+00	 1.135E+01	 2.840E-01	 6.602E-01	 0.000E+00	 0.000E+00	 0.000E+00	 1.138E+01	 6.200E+00	 4.573E-01	 7.365E-01	 6.480E-02	 7.196E+05	 0.000E+00	 0.000E+00	 3.989E+06	 0.000E+00	 0.000E+00	 5.053E+06	 4.999E+03	 4.309E+01
    0.2000	 1.150E+01	 1.046E+00	-1.145E+00	 0.000E+00	 0.000E+00	 0.000E+00	 1.452E+01	 1.210E+01	-5.937E-02	 1.173E+03	-5.759E+00	 0.000E+00	 0.000E+00	 5.292E+03	 4.177E+03	 1.210E+01	 7.071E+00	 0.000E+00	 1.133E+01	 2.636E-01	 6.549E-01	 0.000E+00	 0.000E+00	 0.000E+00	 1.135E+01	 6.143E+00	 4.576E-01	 7.377E-01	 6.471E-02	 7.179E+05	 0.000E+00	 0.000E+00	 3.967E+06	 0.000E+00	 0.000E+00	 5.026E+06	 4.999E+03	 4.309E+01
    0.2063	 1.154E+01	 1.084E+00	-1.089E+00	 0.000E+00	 0.000E+00	 0.000E+00	 1.497E+01	 1.210E+01	-6.396E-02	 1.173E+03	-6.204E+00	 0.000E+00	 0.000E+00	 5.291E+03	 4.177E+03	 1.210E+01	 7.084E+00	 0.000E+00	 1.131E+01	 2.442E-01	 6.506E-01	 0.000E+00	 0.000E+00	 0.000E+00	 1.133E+01	 6.090E+00	 4.578E-01	 7.389E-01	 6.462E-02	 7.162E+05	 0.000E+00	 0.000E+00	 3.946E+06	 0.000E+00	 0.000E+00	 4.999E+06	 4.999E+03	 4.309E+01
    0.2125	 1.158E+01	 1.096E+00	-1.021E+00	 0.000E+00	 0.000E+00	 0.000E+00	 1.543E+01	 1.210E+01	-6.841E-02	 1.173E+03	-6.636E+00	 0.000E+00	 0.000E+00	 5.291E+03	 4.177E+03	 1.210E+01	 7.099E+00	 0.000E+00	 1.128E+01	 2.277E-01	 6.487E-01	 0.000E+00	 0.000E+00	 0.000E+00	 1.131E+01	 6.039E+00	 4.581E-01	 7.401E-01	 6.453E-02	 7.145E+05	 0.000E+00	 0.000E+00	 3.925E+06	 0.000E+00	 0.000E+00	 4.972E+06	 4.999E+03	 4.309E+01
    0.2188	 1.163E+01	 1.095E+00	-9.452E-01	 0.000E+00	 0.000E+00	 0.000E+00	 1.588E+01	 1.210E+01	-7.339E-02	 1.173E+03	-7.119E+00	 0.000E+00	 0.000E+00	 5.290E+03	 4.176E+03	 1.210E+01	 7.112E+00	 0.000E+00	 1.126E+01	 2.103E-01	 6.506E-01	 0.000E+00	 0.000E+00	 0.000E+00	 1.128E+01	 5.973E+00	 4.583E-01	 7.413E-01	 6.444E-02	 7.129E+05	 0.000E+00	 0.000E+00	 3.905E+06	 0.000E+00	 0.000E+00	 4.946E+06	 4.999E+03	 4.309E+01
    0.2250	 1.168E+01	 1.095E+00	-8.697E-01	 0.000E+00	 0.000E+00	 0.000E+00	 1.633E+01	 1.210E+01	-7.689E-02	 1.173E+03	-7.458E+00	 0.000E+00	 0.000E+00	 5.290E+03	 4.176E+03	 1.210E+01	 7.124E+00	 0.000E+00	 1.124E+01	 1.949E-01	 6.575E-01	 0.000E+00	 0.000E+00	 0.000E+00	 1.126E+01	 5.894E+00	 4.586E-01	 7.424E-01	 6.438E-02	 7.115E+05	 0.000E+00	 0.000E+00	 3.887E+06	 0.000E+00	 0.000E+00	 4.924E+06	 4.998E+03	 4.309E+01
    0.2313	 1.173E+01	 1.094E+00	-7.943E-01	 0.000E+00	 0.000E+00	 0.000E+00	 1.679E+01	 1.210E+01	-7.982E-02	 1.173E+03	-7.742E+00	 0.000E+00	 0.000E+00	 5.290E+03	 4.176E+03	 1.210E+01	 7.135E+00	 0.000E+00	 1.122E+01	 1.795E-01	 6.672E-01	 0.000E+00	 0.000E+00	 0.000E+00	 1.124E+01	 5.804E+00	 4.588E-01	 7.435E-01	 6.431E-02	 7.103E+05	 0.000E+00	 0.000E+00	 3.871E+06	 0.000E+00	 0.000E+00	 4.903E+06	 4.998E+03	 4.309E+01
    0.2375	 1.178E+01	 1.094E+00	-7.189E-01	 0.000E+00	 0.000E+00	 0.000E+00	 1.724E+01	 1.210E+01	-8.345E-02	 1.173E+03	-8.095E+00	 0.000E+00	 0.000E+00	 5.289E+03	 4.176E+03	 1.210E+01	 7.145E+00	 0.000E+00	 1.120E+01	 1.674E-01	 6.779E-01	 0.000E+00	 0.000E+00	 0.000E+00	 1.122E+01	 5.717E+00	 4.591E-01	 7.445E-01	 6.425E-02	 7.091E+05	 0.000E+00	 0.000E+00	 3.856E+06	 0.000E+00	 0.000E+00	 4.884E+06	 4.998E+03	 4.309E+01
    0.2438	 1.182E+01	 1.093E+00	-6.435E-01	 0.000E+00	 0.000E+00	 0.000E+00	 1.769E+01	 1.209E+01	-8.639E-02	 1.173E+03	-8.380E+00	 0.000E+00	 0.000E+00	 5.289E+03	 4.176E+03	 1.209E+01	 7.155E+00	 0.000E+00	 1.118E+01	 1.545E-01	 6.898E-01	 0.000E+00	 0.000E+00	 0.000E+00	 1.121E+01	 5.627E+00	 4.593E-01	 7.455E-01	 6.420E-02	 7.080E+05	 0.000E+00	 0.000E+00	 3.841E+06	 0.000E+00	 0.000E+00	 4.865E+06	 4.998E+03	 4.309E+01
    0.2500	 1.187E+01	 1.092E+00	-5.680E-01	 0.000E+00	 0.000E+00	 0.000E+00	 1.815E+01	 1.209E+01	-8.942E-02	 1.173E+03	-8.674E+00	 0.000E+00	 0.000E+00	 5.288E+03	 4.176E+03	 1.209E+01	 7.164E+00	 0.000E+00	 1.117E+01	 1.419E-01	 7.009E-01	 0.000E+00	 0.000E+00	 0.000E+00	 1.119E+01	 5.545E+00	 4.596E-01	 7.463E-01	 6.415E-02	 7.070E+05	 0.000E+00	 0.000E+00	 3.829E+06	 0.000E+00	 0.000E+00	 4.849E+06	 4.998E+03	 4.310E+01
    0.2563	 1.192E+01	 1.092E+00	-4.926E-01	 0.000E+00	 0.000E+00	 0.000E+00	 1.860E+01	 1.209E+01	-9.153E-02	 1.173E+03	-8.879E+00	 0.000E+00	 0.000E+00	 5.288E+03	 4.176E+03	 1.209E+01	 7.173E+00	 0.000E+00	 1.115E+01	 1.299E-01	 7.120E-01	 0.000E+00	 0.000E+00	 0.000E+00	 1.117E+01	 5.467E+00	 4.598E-01	 7.472E-01	 6.410E-02	 7.060E+05	 0.000E+00	 0.000E+00	 3.816E+06	 0.000E+00	 0.000E+00	 4.833E+06	 4.997E+03	 4.310E+01
    0.2625	 1.194E+01	 1.066E+00	-4.509E-01	 0.000E+00	 0.000E+00	 0.000E+00	 1.906E+01	 1.209E+01	-9.465E-02	 1.173E+03	-9.181E+00	 0.000E+00	 0.000E+00	 5.288E+03	 4.175E+03	 1.209E+01	 7.182E+00	 0.000E+00	 1.113E+01	 1.182E-01	 7.214E-01	 0.000E+00	 0.000E+00	 0.000E+00	 1.116E+01	 5.401E+00	 4.600E-01	 7.480E-01	 6.405E-02	 7.050E+05	 0.000E+00	 0.000E+00	 3.803E+06	 0.000E+00	 0.000E+00	 4.815E+06	 4.997E+03	 4.310E+01
    0.2687	 1.196E+01	 1.028E+00	-4.261E-01	 0.000E+00	 0.000E+00	 0.000E+00	 1.951E+01	 1.209E+01	-9.785E-02	 1.173E+03	-9.491E+00	 0.000E+00	 0.000E+00	 5.287E+03	 4.175E+03	 1.209E+01	 7.191E+00	 0.000E+00	 1.112E+01	 1.183E-01	 7.267E-01	 0.000E+00	 0.000E+00	 0.000E+00	 1.114E+01	 5.369E+00	 4.601E-01	 7.488E-01	 6.398E-02	 7.039E+05	 0.000E+00	 0.000E+00	 3.789E+06	 0.000E+00	 0.000E+00	 4.798E+06	 4.997E+03	 4.310E+01
    0.2750	 1.197E+01	 9.896E-01	-4.013E-01	 0.000E+00	 0.000E+00	 0.000E+00	 1.996E+01	 1.209E+01	-1.007E-01	 1.173E+03	-9.765E+00	 0.000E+00	 0.000E+00	 5.287E+03	 4.175E+03	 1.209E+01	 7.199E+00	 0.000E+00	 1.110E+01	 1.201E-01	 7.328E-01	 0.000E+00	 0.000E+00	 0.000E+00	 1.113E+01	 5.335E+00	 4.602E-01	 7.495E-01	 6.393E-02	 7.028E+05	 0.000E+00	 0.000E+00	 3.776E+06	 0.000E+00	 0.000E+00	 4.782E+06	 4.997E+03	 4.310E+01
    0.2812	 1.198E+01	 9.513E-01	-3.764E-01	 0.000E+00	 0.000E+00	 0.000E+00	 2.042E+01	 1.209E+01	-1.030E-01	 1.173E+03	-9.989E+00	 0.000E+00	 0.000E+00	 5.286E+03	 4.175E+03	 1.209E+01	 7.207E+00	 0.000E+00	 1.109E+01	 1.243E-01	 7.378E-01	 0.000E+00	 0.000E+00	 0.000E+00	 1.112E+01	 5.307E+00	 4.603E-01	 7.501E-01	 6.388E-02	 7.019E+05	 0.000E+00	 0.000E+00	 3.766E+06	 0.000E+00	 0.000E+00	 4.768E+06	 4.997E+03	 4.310E+01
    0.2875	 1.199E+01	 9.130E-01	-3.516E-01	 0.000E+00	 0.000E+00	 0.000E+00	 2.087E+01	 1.209E+01	-1.046E-01	 1.173E+03	-1.015E+01	 0.000E+00	 0.000E+00	 5.286E+03	 4.175E+03	 1.209E+01	 7.213E+00	 0.000E+00	 1.108E+01	 1.308E-01	 7.434E-01	 0.000E+00	 0.000E+00	 0.000E+00	 1.111E+01	 5.279E+00	 4.605E-01	 7.507E-01	 6.383E-02	 7.011E+05	 0.000E+00	 0.000E+00	 3.756E+06	 0.000E+00	 0.000E+00	 4.755E+06	 4.996E+03	 4.310E+01
    0.2938	 1.201E+01	 8.747E-01	-3.268E-01	 0.000E+00	 0.000E+00	 0.000E+00	 2.132E+01	 1.209E+01	-1.068E-01	 1.173E+03	-1.036E+01	 0.000E+00	 0.000E+00	 5.286E+03	 4.175E+03	 1.209E+01	 7.219E+00	 0.000E+00	 1.107E+01	 1.355E-01	 7.503E-01	 0.000E+00	 0.000E+00	 0.000E+00	 1.109E+01	 5.242E+00	 4.606E-01	 7.512E-01	 6.380E-02	 7.004E+05	 0.000E+00	 0.000E+00	 3.747E+06	 0.000E+00	 0.000E+00	 4.744E+06	 4.996E+03	 4.310E+01
    0.3000	 1.202E+01	 8.365E-01	-3.020E-01	 0.000E+00	 0.000E+00	 0.000E+00	 2.178E+01	 1.209E+01	-1.082E-01	 1.173E+03	-1.050E+01	 0.000E+00	 0.000E+00	 5.285E+03	 4.175E+03	 1.209E+01	 7.226E+00	 0.000E+00	 1.106E+01	 1.382E-01	 7.584E-01	 0.000E+00	 0.000E+00	 0.000E+00	 1.108E+01	 5.197E+00	 4.607E-01	 7.518E-01	 6.376E-02	 6.996E+05	 0.000E+00	 0.000E+00	 3.738E+06	 0.000E+00	 0.000E+00	 4.732E+06	 4.996E+03	 4.310E+01
    0.3063	 1.203E+01	 7.982E-01	-2.772E-01	 0.000E+00	 0.000E+00	 0.000E+00	 2.223E+01	 1.209E+01	-1.110E-01	 1.173E+03	-1.076E+01	 0.000E+00	 0.000E+00	 5.285E+03	 4.175E+03	 1.209E+01	 7.232E+00	 0.000E+00	 1.105E+01	 1.430E-01	 7.666E-01	 0.000E+00	 0.000E+00	 0.000E+00	 1.107E+01	 5.153E+00	 4.608E-01	 7.524E-01	 6.372E-02	 6.988E+05	 0.000E+00	 0.000E+00	 3.729E+06	 0.000E+00	 0.000E+00	 4.720E+06	 4.996E+03	 4.310E+01
    0.3125	 1.205E+01	 7.764E-01	-2.439E-01	 0.000E+00	 0.000E+00	 0.000E+00	 2.268E+01	 1.209E+01	-1.125E-01	 1.172E+03	-1.091E+01	 0.000E+00	 0.000E+00	 5.284E+03	 4.175E+03	 1.209E+01	 7.236E+00	 0.000E+00	 1.104E+01	 1.491E-01	 7.764E-01	 0.000E+00	 0.000E+00	 0.000E+00	 1.106E+01	 5.101E+00	 4.609E-01	 7.529E-01	 6.370E-02	 6.983E+05	 0.000E+00	 0.000E+00	 3.722E+06	 0.000E+00	 0.000E+00	 4.712E+06	 4.995E+03	 4.310E+01
    0.3188	 1.206E+01	 7.629E-01	-2.063E-01	 0.000E+00	 0.000E+00	 0.000E+00	 2.314E+01	 1.209E+01	-1.128E-01	 1.172E+03	-1.095E+01	 0.000E+00	 0.000E+00	 5.284E+03	 4.175E+03	 1.209E+01	 7.240E+00	 0.000E+00	 1.103E+01	 1.557E-01	 7.862E-01	 0.000E+00	 0.000E+00	 0.000E+00	 1.106E+01	 5.049E+00	 4.610E-01	 7.533E-01	 6.368E-02	 6.978E+05	 0.000E+00	 0.000E+00	 3.716E+06	 0.000E+00	 0.000E+00	 4.704E+06	 4.995E+03	 4.310E+01
    0.3250	 1.207E+01	 7.494E-01	-1.687E-01	 0.000E+00	 0.000E+00	 0.000E+00	 2.359E+01	 1.209E+01	-1.145E-01	 1.172E+03	-1.111E+01	 0.000E+00	 0.000E+00	 5.284E+03	 4.175E+03	 1.209E+01	 7.246E+00	 0.000E+00	 1.102E+01	 1.624E-01	 7.942E-01	 0.000E+00	 0.000E+00	 0.000E+00	 1.105E+01	 5.006E+00	 4.612E-01	 7.538E-01	 6.364E-02	 6.972E+05	 0.000E+00	 0.000E+00	 3.708E+06	 0.000E+00	 0.000E+00	 4.693E+06	 4.995E+03	 4.310E+01
    0.3313	 1.208E+01	 7.359E-01	-1.311E-01	 0.000E+00	 0.000E+00	 0.000E+00	 2.404E+01	 1.209E+01	-1.172E-01	 1.172E+03	-1.137E+01	 0.000E+00	 0.000E+00	 5.283E+03	 4.175E+03	 1.209E+01	 7.250E+00	 0.000E+00	 1.101E+01	 1.679E-01	 8.039E-01	 0.000E+00	 0.000E+00	 0.000E+00	 1.104E+01	 4.953E+00	 4.613E-01	 7.542E-01	 6.362E-02	 6.967E+05	 0.000E+00	 0.000E+00	 3.702E+06	 0.000E+00	 0.000E+00	 4.686E+06	 4.995E+03	 4.310E+01
    0.3375	 1.210E+01	 7.224E-01	-9.355E-02	 0.000E+00	 0.000E+00	 0.000E+00	 2.450E+01	 1.208E+01	-1.170E-01	 1.172E+03	-1.135E+01	 0.000E+00	 0.000E+00	 5.283E+03	 4.175E+03	 1.208E+01	 7.253E+00	 0.000E+00	 1.100E+01	 1.726E-01	 8.157E-01	 0.000E+00	 0.000E+00	 0.000E+00	 1.103E+01	 4.890E+00	 4.614E-01	 7.546E-01	 6.361E-02	 6.964E+05	 0.000E+00	 0.000E+00	 3.699E+06	 0.000E+00	 0.000E+00	 4.681E+06	 4.994E+03	 4.310E+01
    0.3438	 1.211E+01	 7.088E-01	-5.598E-02	 0.000E+00	 0.000E+00	 0.000E+00	 2.495E+01	 1.208E+01	-1.174E-01	 1.172E+03	-1.138E+01	 0.000E+00	 0.000E+00	 5.283E+03	 4.175E+03	 1.208E+01	 7.254E+00	 0.000E+00	 1.100E+01	 1.761E-01	 8.278E-01	 0.000E+00	 0.000E+00	 0.000E+00	 1.103E+01	 4.826E+00	 4.615E-01	 7.548E-01	 6.361E-02	 6.963E+05	 0.000E+00	 0.000E+00	 3.697E+06	 0.000E+00	 0.000E+00	 4.678E+06	 4.994E+03	 4.310E+01
    0.3500	 1.212E+01	 6.953E-01	-1.840E-02	 0.000E+00	 0.000E+00	 0.000E+00	 2.540E+01	 1.208E+01	-1.174E-01	 1.172E+03	-1.139E+01	 0.000E+00	 0.000E+00	 5.282E+03	 4.175E+03	 1.208E+01	 7.255E+00	 0.000E+00	 1.099E+01	 1.811E-01	 8.393E-01	 0.000E+00	 0.000E+00	 0.000E+00	 1.103E+01	 4.765E+00	 4.616E-01	 7.550E-01	 6.361E-02	 6.961E+05	 0.000E+00	 0.000E+00	 3.695E+06	 0.000E+00	 0.000E+00	 4.675E+06	 4.994E+03	 4.310E+01
    0.3563	 1.214E+01	 6.818E-01	 1.918E-02	 0.000E+00	 0.000E+00	 0.000E+00	 2.585E+01	 1.208E+01	-1.183E-01	 1.172E+03	-1.147E+01	 0.000E+00	 0.000E+00	 5.282E+03	 4.175E+03	 1.208E+01	 7.256E+00	 0.000E+00	 1.099E+01	 1.853E-01	 8.515E-01	 0.000E+00	 0.000E+00	 0.000E+00	 1.102E+01	 4.701E+00	 4.616E-01	 7.552E-01	 6.362E-02	 6.961E+05	 0.000E+00	 0.000E+00	 3.695E+06	 0.000E+00	 0.000E+00	 4.675E+06	 4.994E+03	 4.310E+01
    0.3625	 1.212E+01	 7.154E-01	-3.746E-02	 0.000E+00	 0.000E+00	 0.000E+00	 2.631E+01	 1.208E+01	-1.177E-01	 1.172E+03	-1.141E+01	 0.000E+00	 0.000E+00	 5.282E+03	 4.175E+03	 1.208E+01	 7.256E+00	 0.000E+00	 1.099E+01	 1.873E-01	 8.594E-01	 0.000E+00	 0.000E+00	 0.000E+00	 1.102E+01	 4.663E+00	 4.617E-01	 7.553E-01	 6.363E-02	 6.960E+05	 0.000E+00	 0.000E+00	 3.694E+06	 0.000E+00	 0.000E+00	 4.673E+06	 4.993E+03	 4.310E+01
    0.3688	 1.210E+01	 7.726E-01	-1.412E-01	 0.000E+00	 0.000E+00	 0.000E+00	 2.676E+01	 1.208E+01	-1.183E-01	 1.172E+03	-1.147E+01	 0.000E+00	 0.000E+00	 5.282E+03	 4.175E+03	 1.208E+01	 7.253E+00	 0.000E+00	 1.099E+01	 1.783E-01	 8.623E-01	 0.000E+00	 0.000E+00	 0.000E+00	 1.103E+01	 4.664E+00	 4.617E-01	 7.551E-01	 6.365E-02	 6.964E+05	 0.000E+00	 0.000E+00	 3.698E+06	 0.000E+00	 0.000E+00	 4.679E+06	 4.993E+03	 4.310E+01
    0.3750	 1.207E+01	 8.298E-01	-2.449E-01	 0.000E+00	 0.000E+00	 0.000E+00	 2.721E+01	 1.208E+01	-1.150E-01	 1.172E+03	-1.116E+01	 0.000E+00	 0.000E+00	 5.282E+03	 4.175E+03	 1.208E+01	 7.248E+00	 0.000E+00	 1.100E+01	 1.649E-01	 8.628E-01	 0.000E+00	 0.000E+00	 0.000E+00	 1.103E+01	 4.693E+00	 4.616E-01	 7.546E-01	 6.369E-02	 6.969E+05	 0.000E+00	 0.000E+00	 3.706E+06	 0.000E+00	 0.000E+00	 4.688E+06	 4.993E+03	 4.310E+01
    0.3813	 1.205E+01	 8.871E-01	-3.487E-01	 0.000E+00	 0.000E+00	 0.000E+00	 2.767E+01	 1.208E+01	-1.132E-01	 1.172E+03	-1.098E+01	 0.000E+00	 0.000E+00	 5.282E+03	 4.175E+03	 1.208E+01	 7.242E+00	 0.000E+00	 1.101E+01	 1.519E-01	 8.589E-01	 0.000E+00	 0.000E+00	 0.000E+00	 1.104E+01	 4.753E+00	 4.615E-01	 7.541E-01	 6.372E-02	 6.974E+05	 0.000E+00	 0.000E+00	 3.712E+06	 0.000E+00	 0.000E+00	 4.696E+06	 4.993E+03	 4.310E+01
    0.3875	 1.202E+01	 9.443E-01	-4.524E-01	 0.000E+00	 0.000E+00	 0.000E+00	 2.812E+01	 1.208E+01	-1.129E-01	 1.172E+03	-1.095E+01	 0.000E+00	 0.000E+00	 5.281E+03	 4.175E+03	 1.208E+01	 7.238E+00	 0.000E+00	 1.101E+01	 1.424E-01	 8.526E-01	 0.000E+00	 0.000E+00	 0.000E+00	 1.105E+01	 4.826E+00	 4.613E-01	 7.536E-01	 6.374E-02	 6.977E+05	 0.000E+00	 0.000E+00	 3.717E+06	 0.000E+00	 0.000E+00	 4.702E+06	 4.993E+03	 4.310E+01
    0.3938	 1.200E+01	 1.001E+00	-5.561E-01	 0.000E+00	 0.000E+00	 0.000E+00	 2.857E+01	 1.208E+01	-1.122E-01	 1.172E+03	-1.089E+01	 0.000E+00	 0.000E+00	 5.281E+03	 4.175E+03	 1.208E+01	 7.233E+00	 0.000E+00	 1.102E+01	 1.350E-01	 8.452E-01	 0.000E+00	 0.000E+00	 0.000E+00	 1.106E+01	 4.904E+00	 4.612E-01	 7.530E-01	 6.376E-02	 6.981E+05	 0.000E+00	 0.000E+00	 3.724E+06	 0.000E+00	 0.000E+00	 4.710E+06	 4.992E+03	 4.311E+01
    0.4000	 1.197E+01	 1.059E+00	-6.598E-01	 0.000E+00	 0.000E+00	 0.000E+00	 2.903E+01	 1.208E+01	-1.097E-01	 1.172E+03	-1.064E+01	 0.000E+00	 0.000E+00	 5.281E+03	 4.176E+03	 1.208E+01	 7.225E+00	 0.000E+00	 1.104E+01	 1.289E-01	 8.375E-01	 0.000E+00	 0.000E+00	 0.000E+00	 1.107E+01	 4.985E+00	 4.610E-01	 7.523E-01	 6.380E-02	 6.987E+05	 0.000E+00	 0.000E+00	 3.733E+06	 0.000E+00	 0.000E+00	 4.722E+06	 4.992E+03	 4.311E+01
    0.4062	 1.195E+01	 1.116E+00	-7.636E-01	 0.000E+00	 0.000E+00	 0.000E+00	 2.948E+01	 1.208E+01	-1.070E-01	 1.171E+03	-1.038E+01	 0.000E+00	 0.000E+00	 5.281E+03	 4.176E+03	 1.208E+01	 7.217E+00	 0.000E+00	 1.105E+01	 1.264E-01	 8.281E-01	 0.000E+00	 0.000E+00	 0.000E+00	 1.108E+01	 5.067E+00	 4.608E-01	 7.514E-01	 6.385E-02	 6.996E+05	 0.000E+00	 0.000E+00	 3.745E+06	 0.000E+00	 0.000E+00	 4.736E+06	 4.992E+03	 4.311E+01
    0.4125	 1.194E+01	 1.104E+00	-7.962E-01	 0.000E+00	 0.000E+00	 0.000E+00	 2.993E+01	 1.208E+01	-1.039E-01	 1.171E+03	-1.008E+01	 0.000E+00	 0.000E+00	 5.281E+03	 4.176E+03	 1.208E+01	 7.206E+00	 0.000E+00	 1.107E+01	 1.272E-01	 8.212E-01	 0.000E+00	 0.000E+00	 0.000E+00	 1.110E+01	 5.129E+00	 4.606E-01	 7.505E-01	 6.392E-02	 7.006E+05	 0.000E+00	 0.000E+00	 3.759E+06	 0.000E+00	 0.000E+00	 4.754E+06	 4.992E+03	 4.311E+01