
FAST Summary File

Predictions were generated on 19-Dec-2024 at 16:45:08 using OpenFAST, compiled on Dec 19 2024 at 16:18:29 as a 64-bit application using double precision at commit -128-NOTFOUND
  run with
    NWTC Subroutine Library
    ElastoDyn (unknown version, unknown date) [not called]
    InflowWind
    ServoDyn
    AeroDisk
    SED
    SED
    InflowWind
    AeroDyn (unknown version, unknown date) [not called]
    AeroDisk
    ServoDyn
    HydroDyn (unknown version, unknown date) [not called]
    SubDyn (unknown version, unknown date) [not called]
    ExtPtfm_MCKF (unknown version, unknown date) [not called]
    MAP (unknown version, unknown date) [not called]
    FEAMooring (unknown version, unknown date) [not called]
    MoorDyn (unknown version, unknown date) [not called]
    OrcaFlexInterface (unknown version, unknown date) [not called]
    IceFloe (unknown version, unknown date) [not called]
    IceDyn (unknown version, unknown date) [not called]
Description from the FAST input file: 
  Based on FAST Certification Test #18: NREL 5.0 MW Baseline Wind Turbine (Onshore) with AeroDisk

Interpolation order for input/output time histories: 2 (quadratic)
Number of correction iterations:  0


   Requested Time Steps  
  -------------------------------------------------
  Component          Time Step (s)    Subcycles (-)
  -----------------  ---------------  -------------
  FAST (glue code)    6.250E-03
  InflowWind          6.250E-03              1
  ServoDyn            6.250E-03              1
  AeroDisk            6.250E-03              1
  SED                 6.250E-03              1
  FAST output files   6.250E-03              1


   Requested Channels in FAST Output File(s)  
  --------------------------------------------
  Number  Name                  Units                 Generated by
  ------  --------------------  --------------------  ------------
       1  Time                  (s)                   OpenFAST
       2  Wind1VelX             (m/s)                 InflowWind
       3  Wind1VelY             (m/s)                 InflowWind
       4  Wind1VelZ             (m/s)                 InflowWind
       5  BlPitch1              (deg)                 ServoDyn
       6  BlPitch2              (deg)                 ServoDyn
       7  BlPitch3              (deg)                 AeroDisk
       8  Azimuth               (deg)                 AeroDisk
       9  RotSpeed              (rpm)                 AeroDisk
      10  RotAcc                (deg/s^2)             AeroDisk
      11  GenSpeed              (rpm)                 AeroDisk
      12  GenAcc                (deg/s^2)             AeroDisk
      13  Yaw                   (deg)                 AeroDisk
      14  YawRate               (deg/s)               AeroDisk
      15  RotPwr                (kW)                  AeroDisk
      16  RotTorq               (kN-m)                AeroDisk
      17  ADSpeed               (rpm)                 AeroDisk
      18  ADTSR                 (-)                   AeroDisk
      19  ADPitch               (deg)                 AeroDisk
      20  ADVWindx              (m/s)                 AeroDisk
      21  ADVWindy              (m/s)                 AeroDisk
      22  ADVWindz              (m/s)                 AeroDisk
      23  ADSTVx                (m/s)                 AeroDisk
      24  ADSTVy                (m/s)                 AeroDisk
      25  ADSTVz                (m/s)                 AeroDisk
      26  ADVRel                (m/s)                 AeroDisk
      27  ADSkew                (deg)                 AeroDisk
      28  ADCp                  (-)                   SED
      29  ADCt                  (-)                   SED
      30  ADCq                  (-)                   SED
      31  ADFx                  (N)                   SED
      32  ADFy                  (N)                   SED
      33  ADFz                  (N)                   SED
      34  ADMx                  (N-m)                 SED
      35  ADMy                  (N-m)                 SED
      36  ADMz                  (N-m)                 SED
      37  ADPower               (W)                   SED
      38  GenPwr                (kW)                  SED
      39  GenTq                 (kN-m)                SED
