
Predictions were generated on 05-Aug-2022 at 10:59:13 using OpenFAST, compiled as a 64-bit application using double precision at commit v3.2.1-122-gc1599127-dirty
 linked with  NWTC Subroutine Library; ElastoDyn; InflowWind; AeroDyn

Description from the FAST input file: Fixed MHK turbine, based on the RM1 tidal current turbine

Time	TwN1Fbx	TwN3Fby	TwN4Fbz	TwN6Mbx	TwN5Mby	TwN2Mbz	B2N4Fbn	B1N7Fbt	B2N8Fbs	B1N2Mbn	B2N3Mbt	B1N6Mbs	B1FldFz	B2FldMx	HbFbx	HbFby	HbFbz	HbMbx	HbMby	HbMbz	NcFbx	NcFby	NcFbz	NcMbx	NcMby	NcMbz	RtFldFxh	RtFldFyh	RtFldFzg	RtFldMxh	RtFldMyg	RtFldMzh	B1N3SigCr	B2N5SigCr	B1N2SgCav	B2N6SgCav
(s)	(N/m)	(N/m)	(N/m)	(N-m/m)	(N-m/m)	(N-m/m)	(N/m)	(N/m)	(N/m)	(N-m/m)	(N-m/m)	(N-m/m)	(N)	(N-m)	(N)	(N)	(N)	(N-m)	(N-m)	(N-m)	(N)	(N)	(N)	(N-m)	(N-m)	(N-m)	(N)	(N)	(N)	(N-m)	(N-m)	(N-m)	(-)	(-)	(-)	(-)
    0.0000	 0.000E+00	 0.000E+00	-1.241E+04	 0.000E+00	 0.000E+00	 0.000E+00	 6.141E-13	-2.290E-13	-1.115E+04	-4.526E-15	 1.008E-14	 0.000E+00	-7.016E+04	 9.529E+04	 4.740E-27	-5.374E-11	 6.231E+04	-2.758E-11	-1.608E+04	-2.954E-12	 0.000E+00	 0.000E+00	-1.391E+06	 0.000E+00	-1.668E+05	 0.000E+00	 3.522E+05	-1.407E+04	 6.089E+04	 3.147E+05	 3.064E+05	 1.173E-10	 2.803E+01	 1.433E+01	 4.246E+00	 1.341E+00
    0.0300	-2.684E+01	 3.114E-01	-1.241E+04	 7.428E-03	-1.143E-01	-1.156E-09	 2.347E+01	 4.396E+01	-1.115E+04	 8.985E-01	-7.709E-01	 2.471E-05	-7.034E+04	 2.591E+04	-3.586E+01	 2.671E+03	 6.227E+04	-1.357E-01	-1.607E+04	 5.936E+02	 6.208E+02	-1.403E+01	-1.391E+06	 7.213E-01	-1.668E+05	 4.445E+00	 1.080E+05	 1.038E+03	 6.075E+04	 6.526E+04	 3.311E+04	 1.150E+01	 2.778E+01	 1.390E+01	 3.559E+00	 9.779E-01
    0.0600	-8.561E+01	 8.771E-01	-1.241E+04	 2.035E-02	-3.279E-01	-1.527E-08	 4.571E+01	 9.193E+01	-1.114E+04	 1.798E+00	-1.488E+00	 9.059E-05	-7.065E+04	 3.212E+04	-1.226E+02	 5.318E+03	 6.214E+04	 3.466E-03	-1.604E+04	 1.182E+03	 1.952E+03	-3.694E+01	-1.391E+06	 1.976E+00	-1.668E+05	 1.200E+01	 1.258E+05	 4.964E+03	 6.078E+04	 6.305E+04	-3.566E+04	 9.010E+01	 2.783E+01	 1.338E+01	 3.121E+00	 1.047E+00
    0.0900	-1.428E+02	 1.436E+00	-1.241E+04	 3.260E-02	-4.510E-01	-4.085E-08	 6.520E+01	 1.372E+02	-1.112E+04	 2.717E+00	-2.173E+00	 1.805E-04	-7.099E+04	 3.043E+04	-2.148E+02	 8.058E+03	 6.192E+04	 7.798E-01	-1.598E+04	 1.791E+03	 3.183E+03	-5.722E+01	-1.391E+06	 3.166E+00	-1.668E+05	 1.899E+01	 1.279E+05	 6.406E+03	 6.064E+04	 5.289E+04	-4.072E+04	 6.918E+01	 2.672E+01	 1.300E+01	 2.712E+00	 1.054E+00
    0.1200	-1.758E+02	 1.947E+00	-1.241E+04	 4.423E-02	-3.564E-01	 8.323E-10	 8.327E+01	 1.850E+02	-1.110E+04	 3.640E+00	-2.844E+00	 2.893E-04	-7.137E+04	 2.777E+04	-2.908E+02	 1.078E+04	 6.162E+04	 1.824E+00	-1.590E+04	 2.396E+03	 3.767E+03	-7.769E+01	-1.391E+06	 4.295E+00	-1.668E+05	 2.577E+01	 1.258E+05	 7.084E+03	 6.031E+04	 4.328E+04	-2.613E+04	 3.923E+01	 2.716E+01	 1.294E+01	 2.550E+00	 1.047E+00
    0.1500	-1.776E+02	 2.315E+00	-1.241E+04	 5.270E-02	-7.670E-03	 1.509E-07	 1.001E+02	 2.328E+02	-1.108E+04	 4.574E+00	-3.515E+00	 4.151E-04	-7.178E+04	 2.554E+04	-3.419E+02	 1.354E+04	 6.121E+04	 2.735E+00	-1.580E+04	 3.008E+03	 3.537E+03	-9.291E+01	-1.391E+06	 5.118E+00	-1.667E+05	 3.075E+01	 1.183E+05	 8.158E+03	 5.991E+04	 3.267E+04	-5.566E+03	 1.472E+02	 2.600E+01	 1.283E+01	 2.344E+00	 1.034E+00
    0.1800	-1.553E+02	 3.073E+00	-1.241E+04	 7.086E-02	 5.522E-01	 5.278E-07	 1.161E+02	 2.805E+02	-1.105E+04	 5.507E+00	-4.180E+00	 5.493E-04	-7.222E+04	 2.550E+04	-3.769E+02	 1.629E+04	 6.071E+04	 3.383E+00	-1.567E+04	 3.619E+03	 2.666E+03	-1.274E+02	-1.391E+06	 6.881E+00	-1.667E+05	 4.163E+01	 1.122E+05	 9.929E+03	 5.957E+04	 2.585E+04	 8.768E+03	 2.913E+02	 2.670E+01	 1.278E+01	 2.232E+00	 1.022E+00
    0.2100	-1.231E+02	 4.023E+00	-1.241E+04	 9.221E-02	 1.238E+00	 1.102E-06	 1.312E+02	 3.280E+02	-1.102E+04	 6.432E+00	-4.826E+00	 6.849E-04	-7.261E+04	 2.610E+04	-4.113E+02	 1.901E+04	 6.012E+04	 4.040E+00	-1.552E+04	 4.223E+03	 1.503E+03	-1.643E+02	-1.391E+06	 8.954E+00	-1.666E+05	 5.398E+01	 1.026E+05	 1.227E+04	 5.940E+04	 1.806E+04	 9.168E+03	 3.543E+02	 2.625E+01	 1.262E+01	 2.057E+00	 1.016E+00
    0.2400	-9.558E+01	 4.916E+00	-1.241E+04	 1.106E-01	 1.964E+00	 1.812E-06	 1.451E+02	 3.739E+02	-1.098E+04	 7.350E+00	-5.443E+00	 8.071E-04	-7.297E+04	 2.856E+04	-4.616E+02	 2.172E+04	 5.944E+04	 4.361E+00	-1.534E+04	 4.827E+03	 4.012E+02	-1.916E+02	-1.391E+06	 1.074E+01	-1.666E+05	 6.408E+01	 9.554E+04	 1.501E+04	 5.942E+04	 1.348E+04	-8.787E+03	 3.781E+02	 2.710E+01	 1.261E+01	 1.971E+00	 1.017E+00
    0.2700	-8.106E+01	 5.387E+00	-1.241E+04	 1.175E-01	 2.678E+00	 2.380E-06	 1.577E+02	 4.206E+02	-1.094E+04	 8.252E+00	-6.013E+00	 9.125E-04	-7.323E+04	 3.116E+04	-5.367E+02	 2.438E+04	 5.867E+04	 4.777E+00	-1.514E+04	 5.417E+03	-4.317E+02	-1.929E+02	-1.391E+06	 1.141E+01	-1.665E+05	 6.677E+01	 8.639E+04	 1.775E+04	 5.962E+04	 8.493E+03	-4.116E+04	 4.321E+02	 2.738E+01	 1.257E+01	 1.869E+00	 1.022E+00
    0.3000	-7.967E+01	 5.733E+00	-1.241E+04	 1.208E-01	 3.372E+00	 2.856E-06	 1.689E+02	 4.654E+02	-1.089E+04	 9.141E+00	-6.541E+00	 9.900E-04	-7.348E+04	 3.435E+04	-6.356E+02	 2.702E+04	 5.780E+04	 4.897E+00	-1.492E+04	 6.003E+03	-9.894E+02	-1.862E+02	-1.391E+06	 1.173E+01	-1.664E+05	 6.719E+01	 7.893E+04	 2.026E+04	 5.983E+04	 5.910E+03	-7.712E+04	 4.955E+02	 2.809E+01	 1.253E+01	 1.792E+00	 1.027E+00
    0.3300	-8.576E+01	 6.221E+00	-1.241E+04	 1.273E-01	 4.074E+00	 3.418E-06	 1.789E+02	 5.100E+02	-1.083E+04	 1.001E+01	-7.029E+00	 1.042E-03	-7.372E+04	 3.659E+04	-7.511E+02	 2.958E+04	 5.686E+04	 5.108E+00	-1.468E+04	 6.574E+03	-1.404E+03	-1.850E+02	-1.391E+06	 1.237E+01	-1.663E+05	 6.946E+01	 7.093E+04	 2.233E+04	 5.990E+04	 2.673E+03	-1.071E+05	 4.376E+02	 2.878E+01	 1.248E+01	 1.727E+00	 1.027E+00
    0.3600	-9.279E+01	 6.778E+00	-1.241E+04	 1.355E-01	 4.815E+00	 4.082E-06	 1.877E+02	 5.525E+02	-1.077E+04	 1.086E+01	-7.487E+00	 1.067E-03	-7.400E+04	 3.903E+04	-8.744E+02	 3.211E+04	 5.584E+04	 5.122E+00	-1.441E+04	 7.135E+03	-1.829E+03	-1.868E+02	-1.391E+06	 1.316E+01	-1.662E+05	 7.267E+01	 6.315E+04	 2.420E+04	 5.987E+04	 5.878E+02	-1.290E+05	 3.643E+02	 2.916E+01	 1.253E+01	 1.671E+00	 1.027E+00
    0.3900	-9.623E+01	 7.240E+00	-1.241E+04	 1.416E-01	 5.615E+00	 4.762E-06	 1.955E+02	 5.949E+02	-1.071E+04	 1.168E+01	-7.918E+00	 1.073E-03	-7.433E+04	 4.120E+04	-9.997E+02	 3.457E+04	 5.474E+04	 5.161E+00	-1.413E+04	 7.681E+03	-2.372E+03	-1.854E+02	-1.391E+06	 1.375E+01	-1.661E+05	 7.477E+01	 5.612E+04	 2.599E+04	 5.978E+04	-1.812E+03	-1.457E+05	 3.266E+02	 2.994E+01	 1.269E+01	 1.632E+00	 1.025E+00
    0.4200	-9.390E+01	 7.598E+00	-1.241E+04	 1.455E-01	 6.482E+00	 5.446E-06	 2.025E+02	 6.361E+02	-1.065E+04	 1.249E+01	-8.325E+00	 1.060E-03	-7.471E+04	 4.347E+04	-1.124E+03	 3.696E+04	 5.356E+04	 5.095E+00	-1.383E+04	 8.213E+03	-3.081E+03	-1.807E+02	-1.391E+06	 1.413E+01	-1.660E+05	 7.565E+01	 4.865E+04	 2.773E+04	 5.965E+04	-3.578E+03	-1.586E+05	 3.752E+02	 3.019E+01	 1.279E+01	 1.590E+00	 1.022E+00
    0.4500	-8.616E+01	 8.086E+00	-1.241E+04	 1.528E-01	 7.411E+00	 6.439E-06	 2.088E+02	 6.761E+02	-1.057E+04	 1.327E+01	-8.711E+00	 1.030E-03	-7.514E+04	 4.530E+04	-1.246E+03	 3.929E+04	 5.232E+04	 4.984E+00	-1.351E+04	 8.729E+03	-3.944E+03	-1.827E+02	-1.391E+06	 1.483E+01	-1.659E+05	 7.855E+01	 4.285E+04	 2.934E+04	 5.942E+04	-5.315E+03	-1.673E+05	 3.800E+02	 3.112E+01	 1.288E+01	 1.564E+00	 1.017E+00
    0.4800	-7.607E+01	 8.597E+00	-1.241E+04	 1.601E-01	 8.378E+00	 7.511E-06	 2.145E+02	 7.145E+02	-1.050E+04	 1.403E+01	-9.073E+00	 9.827E-04	-7.562E+04	 4.708E+04	-1.369E+03	 4.154E+04	 5.102E+04	 4.858E+00	-1.317E+04	 9.229E+03	-4.883E+03	-1.835E+02	-1.391E+06	 1.554E+01	-1.658E+05	 8.132E+01	 3.654E+04	 3.086E+04	 5.915E+04	-6.839E+03	-1.745E+05	 3.307E+02	 3.162E+01	 1.295E+01	 1.533E+00	 1.014E+00
    0.5100	-6.784E+01	 8.971E+00	-1.241E+04	 1.636E-01	 9.358E+00	 8.302E-06	 2.193E+02	 7.516E+02	-1.042E+04	 1.476E+01	-9.408E+00	 9.168E-04	-7.614E+04	 4.911E+04	-1.498E+03	 4.371E+04	 4.965E+04	 4.658E+00	-1.282E+04	 9.713E+03	-5.796E+03	-1.758E+02	-1.391E+06	 1.588E+01	-1.657E+05	 8.168E+01	 3.186E+04	 3.241E+04	 5.888E+04	-7.839E+03	-1.828E+05	 3.099E+02	 3.269E+01	 1.308E+01	 1.520E+00	 1.013E+00
    0.5400	-6.392E+01	 9.152E+00	-1.241E+04	 1.620E-01	 1.033E+01	 8.568E-06	 2.233E+02	 7.878E+02	-1.034E+04	 1.546E+01	-9.712E+00	 8.359E-04	-7.670E+04	 5.112E+04	-1.635E+03	 4.581E+04	 4.822E+04	 4.492E+00	-1.245E+04	 1.018E+04	-6.619E+03	-1.573E+02	-1.391E+06	 1.573E+01	-1.656E+05	 7.888E+01	 2.691E+04	 3.391E+04	 5.863E+04	-8.863E+03	-1.918E+05	 3.034E+02	 3.348E+01	 1.318E+01	 1.507E+00	 1.013E+00
    0.5700	-6.394E+01	 9.355E+00	-1.241E+04	 1.607E-01	 1.130E+01	 8.686E-06	 2.266E+02	 8.223E+02	-1.026E+04	 1.614E+01	-9.986E+00	 7.394E-04	-7.731E+04	 5.303E+04	-1.779E+03	 4.783E+04	 4.674E+04	 4.256E+00	-1.207E+04	 1.063E+04	-7.359E+03	-1.388E+02	-1.391E+06	 1.561E+01	-1.655E+05	 7.619E+01	 2.307E+04	 3.533E+04	 5.832E+04	-9.515E+03	-1.983E+05	 3.117E+02	 3.450E+01	 1.325E+01	 1.499E+00	 1.012E+00
    0.6000	-6.634E+01	 9.636E+00	-1.241E+04	 1.610E-01	 1.227E+01	 8.776E-06	 2.291E+02	 8.554E+02	-1.017E+04	 1.679E+01	-1.023E+01	 6.346E-04	-7.795E+04	 5.459E+04	-1.928E+03	 4.976E+04	 4.522E+04	 4.070E+00	-1.168E+04	 1.106E+04	-8.051E+03	-1.222E+02	-1.391E+06	 1.563E+01	-1.654E+05	 7.428E+01	 1.933E+04	 3.662E+04	 5.795E+04	-1.044E+04	-2.009E+05	 2.482E+02	 3.543E+01	 1.333E+01	 1.494E+00	 1.010E+00
    0.6300	-6.995E+01	 9.869E+00	-1.241E+04	 1.597E-01	 1.324E+01	 8.537E-06	 2.311E+02	 8.868E+02	-1.008E+04	 1.741E+01	-1.046E+01	 5.246E-04	-7.863E+04	 5.633E+04	-2.080E+03	 5.162E+04	 4.364E+04	 3.841E+00	-1.127E+04	 1.147E+04	-8.723E+03	-1.016E+02	-1.391E+06	 1.551E+01	-1.652E+05	 7.134E+01	 1.607E+04	 3.788E+04	 5.759E+04	-1.093E+04	-2.011E+05	 2.206E+02	 3.626E+01	 1.347E+01	 1.491E+00	 1.009E+00
    0.6600	-7.366E+01	 9.996E+00	-1.241E+04	 1.556E-01	 1.422E+01	 7.814E-06	 2.325E+02	 9.173E+02	-9.994E+03	 1.800E+01	-1.066E+01	 4.161E-04	-7.935E+04	 5.796E+04	-2.233E+03	 5.339E+04	 4.203E+04	 3.645E+00	-1.086E+04	 1.186E+04	-9.398E+03	-7.534E+01	-1.391E+06	 1.511E+01	-1.651E+05	 6.670E+01	 1.329E+04	 3.913E+04	 5.724E+04	-1.151E+04	-1.995E+05	 2.057E+02	 3.717E+01	 1.364E+01	 1.492E+00	 1.008E+00
    0.6900	-7.601E+01	 1.011E+01	-1.241E+04	 1.513E-01	 1.521E+01	 6.890E-06	 2.334E+02	 9.462E+02	-9.901E+03	 1.856E+01	-1.084E+01	 3.115E-04	-8.009E+04	 5.948E+04	-2.384E+03	 5.508E+04	 4.037E+04	 3.431E+00	-1.043E+04	 1.224E+04	-1.011E+04	-4.821E+01	-1.391E+06	 1.469E+01	-1.650E+05	 6.186E+01	 1.072E+04	 4.029E+04	 5.688E+04	-1.194E+04	-1.955E+05	 2.191E+02	 3.784E+01	 1.376E+01	 1.494E+00	 1.006E+00
    0.7200	-7.644E+01	 1.032E+01	-1.241E+04	 1.489E-01	 1.621E+01	 6.074E-06	 2.339E+02	 9.737E+02	-9.806E+03	 1.910E+01	-1.100E+01	 2.134E-04	-8.087E+04	 6.068E+04	-2.535E+03	 5.668E+04	 3.868E+04	 3.231E+00	-9.993E+03	 1.259E+04	-1.087E+04	-2.450E+01	-1.391E+06	 1.446E+01	-1.649E+05	 5.815E+01	 8.869E+03	 4.135E+04	 5.646E+04	-1.247E+04	-1.886E+05	 2.009E+02	 3.876E+01	 1.387E+01	 1.500E+00	 1.003E+00
    0.7500	-7.618E+01	 1.051E+01	-1.241E+04	 1.459E-01	 1.722E+01	 4.995E-06	 2.341E+02	 9.997E+02	-9.709E+03	 1.961E+01	-1.114E+01	 1.236E-04	-8.166E+04	 6.189E+04	-2.684E+03	 5.821E+04	 3.696E+04	 3.043E+00	-9.548E+03	 1.293E+04	-1.165E+04	 1.087E+00	-1.391E+06	 1.417E+01	-1.647E+05	 5.400E+01	 7.094E+03	 4.234E+04	 5.605E+04	-1.286E+04	-1.805E+05	 1.808E+02	 3.947E+01	 1.399E+01	 1.505E+00	 1.001E+00
    0.7800	-7.691E+01	 1.062E+01	-1.241E+04	 1.408E-01	 1.823E+01	 3.380E-06	 2.338E+02	 1.024E+03	-9.611E+03	 2.009E+01	-1.127E+01	 4.206E-05	-8.248E+04	 6.316E+04	-2.835E+03	 5.965E+04	 3.520E+04	 2.854E+00	-9.095E+03	 1.325E+04	-1.241E+04	 3.112E+01	-1.392E+06	 1.367E+01	-1.646E+05	 4.854E+01	 6.007E+03	 4.332E+04	 5.566E+04	-1.307E+04	-1.724E+05	 1.846E+02	 4.042E+01	 1.412E+01	 1.514E+00	 9.994E-01
    0.8100	-7.909E+01	 1.069E+01	-1.241E+04	 1.347E-01	 1.923E+01	 1.353E-06	 2.330E+02	 1.048E+03	-9.511E+03	 2.054E+01	-1.137E+01	-2.948E-05	-8.330E+04	 6.430E+04	-2.987E+03	 6.101E+04	 3.342E+04	 2.691E+00	-8.635E+03	 1.356E+04	-1.314E+04	 6.315E+01	-1.392E+06	 1.308E+01	-1.645E+05	 4.248E+01	 5.003E+03	 4.424E+04	 5.528E+04	-1.329E+04	-1.636E+05	 1.893E+02	 4.117E+01	 1.420E+01	 1.524E+00	 9.979E-01
    0.8400	-8.218E+01	 1.081E+01	-1.241E+04	 1.298E-01	 2.022E+01	-7.292E-07	 2.318E+02	 1.070E+03	-9.410E+03	 2.096E+01	-1.145E+01	-9.123E-05	-8.415E+04	 6.529E+04	-3.140E+03	 6.229E+04	 3.161E+04	 2.526E+00	-8.168E+03	 1.384E+04	-1.384E+04	 9.293E+01	-1.392E+06	 1.260E+01	-1.644E+05	 3.713E+01	 4.505E+03	 4.507E+04	 5.488E+04	-1.346E+04	-1.536E+05	 1.917E+02	 4.201E+01	 1.425E+01	 1.537E+00	 9.958E-01
    0.8700	-8.603E+01	 1.094E+01	-1.241E+04	 1.250E-01	 2.120E+01	-3.020E-06	 2.303E+02	 1.090E+03	-9.307E+03	 2.136E+01	-1.151E+01	-1.414E-04	-8.500E+04	 6.618E+04	-3.293E+03	 6.349E+04	 2.978E+04	 2.393E+00	-7.695E+03	 1.411E+04	-1.452E+04	 1.225E+02	-1.392E+06	 1.214E+01	-1.642E+05	 3.188E+01	 4.143E+03	 4.583E+04	 5.447E+04	-1.366E+04	-1.427E+05	 1.743E+02	 4.272E+01	 1.432E+01	 1.553E+00	 9.940E-01
    0.9000	-9.072E+01	 1.101E+01	-1.241E+04	 1.190E-01	 2.218E+01	-5.769E-06	 2.283E+02	 1.109E+03	-9.204E+03	 2.173E+01	-1.156E+01	-1.800E-04	-8.586E+04	 6.715E+04	-3.447E+03	 6.461E+04	 2.792E+04	 2.260E+00	-7.215E+03	 1.436E+04	-1.517E+04	 1.542E+02	-1.392E+06	 1.155E+01	-1.641E+05	 2.590E+01	 4.077E+03	 4.658E+04	 5.409E+04	-1.368E+04	-1.317E+05	 1.807E+02	 4.336E+01	 1.441E+01	 1.571E+00	 9.929E-01
    0.9300	-9.554E+01	 1.105E+01	-1.241E+04	 1.124E-01	 2.314E+01	-8.807E-06	 2.260E+02	 1.127E+03	-9.099E+03	 2.207E+01	-1.158E+01	-2.060E-04	-8.673E+04	 6.802E+04	-3.600E+03	 6.565E+04	 2.604E+04	 2.150E+00	-6.731E+03	 1.459E+04	-1.583E+04	 1.864E+02	-1.392E+06	 1.091E+01	-1.640E+05	 1.969E+01	 4.234E+03	 4.728E+04	 5.374E+04	-1.374E+04	-1.205E+05	 1.895E+02	 4.392E+01	 1.448E+01	 1.589E+00	 9.913E-01
    0.9600	-9.940E+01	 1.112E+01	-1.241E+04	 1.068E-01	 2.411E+01	-1.181E-05	 2.234E+02	 1.143E+03	-8.993E+03	 2.239E+01	-1.159E+01	-2.197E-04	-8.762E+04	 6.875E+04	-3.751E+03	 6.662E+04	 2.414E+04	 2.047E+00	-6.241E+03	 1.480E+04	-1.650E+04	 2.162E+02	-1.392E+06	 1.037E+01	-1.638E+05	 1.411E+01	 4.553E+03	 4.790E+04	 5.337E+04	-1.379E+04	-1.089E+05	 2.001E+02	 4.433E+01	 1.450E+01	 1.607E+00	 9.891E-01
    0.9900	-1.022E+02	 1.120E+01	-1.241E+04	 1.019E-01	 2.508E+01	-1.476E-05	 2.205E+02	 1.158E+03	-8.886E+03	 2.267E+01	-1.159E+01	-2.211E-04	-8.851E+04	 6.936E+04	-3.899E+03	 6.750E+04	 2.223E+04	 1.961E+00	-5.747E+03	 1.500E+04	-1.719E+04	 2.438E+02	-1.392E+06	 9.891E+00	-1.637E+05	 9.067E+00	 5.136E+03	 4.845E+04	 5.299E+04	-1.384E+04	-9.705E+04	 1.996E+02	 4.478E+01	 1.453E+01	 1.625E+00	 9.869E-01
    1.0200	-1.047E+02	 1.126E+01	-1.241E+04	 9.641E-02	 2.605E+01	-1.794E-05	 2.173E+02	 1.172E+03	-8.778E+03	 2.294E+01	-1.157E+01	-2.110E-04	-8.940E+04	 6.998E+04	-4.047E+03	 6.831E+04	 2.030E+04	 1.887E+00	-5.248E+03	 1.518E+04	-1.789E+04	 2.717E+02	-1.392E+06	 9.361E+00	-1.636E+05	 3.788E+00	 5.812E+03	 4.897E+04	 5.264E+04	-1.382E+04	-8.559E+04	 2.076E+02	 4.510E+01	 1.455E+01	 1.644E+00	 9.853E-01
    1.0500	-1.076E+02	 1.128E+01	-1.241E+04	 9.063E-02	 2.701E+01	-2.131E-05	 2.138E+02	 1.185E+03	-8.670E+03	 2.318E+01	-1.153E+01	-1.900E-04	-9.031E+04	 7.056E+04	-4.194E+03	 6.904E+04	 1.835E+04	 1.823E+00	-4.745E+03	 1.534E+04	-1.857E+04	 2.992E+02	-1.393E+06	 8.800E+00	-1.634E+05	-1.557E+00	 6.746E+03	 4.944E+04	 5.230E+04	-1.375E+04	-7.465E+04	 2.258E+02	 4.545E+01	 1.455E+01	 1.663E+00	 9.836E-01
    1.0800	-1.104E+02	 1.131E+01	-1.241E+04	 8.533E-02	 2.796E+01	-2.466E-05	 2.099E+02	 1.196E+03	-8.561E+03	 2.339E+01	-1.147E+01	-1.586E-04	-9.122E+04	 7.100E+04	-4.339E+03	 6.969E+04	 1.638E+04	 1.774E+00	-4.238E+03	 1.549E+04	-1.925E+04	 3.247E+02	-1.393E+06	 8.285E+00	-1.633E+05	-6.485E+00	 7.747E+03	 4.983E+04	 5.195E+04	-1.370E+04	-6.400E+04	 2.402E+02	 4.566E+01	 1.450E+01	 1.680E+00	 9.815E-01
    1.1100	-1.131E+02	 1.134E+01	-1.241E+04	 8.059E-02	 2.890E+01	-2.792E-05	 2.057E+02	 1.205E+03	-8.451E+03	 2.357E+01	-1.140E+01	-1.178E-04	-9.214E+04	 7.134E+04	-4.484E+03	 7.027E+04	 1.441E+04	 1.733E+00	-3.727E+03	 1.561E+04	-1.993E+04	 3.479E+02	-1.393E+06	 7.826E+00	-1.632E+05	-1.093E+01	 8.937E+03	 5.016E+04	 5.158E+04	-1.361E+04	-5.370E+04	 2.498E+02	 4.585E+01	 1.444E+01	 1.698E+00	 9.792E-01
    1.1400	-1.161E+02	 1.134E+01	-1.241E+04	 7.575E-02	 2.984E+01	-3.126E-05	 2.012E+02	 1.214E+03	-8.340E+03	 2.373E+01	-1.132E+01	-6.812E-05	-9.306E+04	 7.165E+04	-4.627E+03	 7.077E+04	 1.242E+04	 1.708E+00	-3.213E+03	 1.573E+04	-2.060E+04	 3.701E+02	-1.393E+06	 7.356E+00	-1.631E+05	-1.529E+01	 1.019E+04	 5.044E+04	 5.123E+04	-1.349E+04	-4.400E+04	 2.597E+02	 4.595E+01	 1.439E+01	 1.715E+00	 9.774E-01
    1.1700	-1.195E+02	 1.133E+01	-1.241E+04	 7.084E-02	 3.077E+01	-3.463E-05	 1.963E+02	 1.221E+03	-8.229E+03	 2.387E+01	-1.121E+01	-1.022E-05	-9.400E+04	 7.194E+04	-4.770E+03	 7.120E+04	 1.041E+04	 1.689E+00	-2.695E+03	 1.582E+04	-2.126E+04	 3.910E+02	-1.393E+06	 6.879E+00	-1.629E+05	-1.952E+01	 1.156E+04	 5.068E+04	 5.091E+04	-1.330E+04	-3.505E+04	 2.814E+02	 4.596E+01	 1.432E+01	 1.730E+00	 9.756E-01
    1.2000	-1.225E+02	 1.130E+01	-1.241E+04	 6.634E-02	 3.169E+01	-3.787E-05	 1.911E+02	 1.227E+03	-8.117E+03	 2.397E+01	-1.109E+01	 5.524E-05	-9.494E+04	 7.210E+04	-4.912E+03	 7.155E+04	 8.398E+03	 1.684E+00	-2.175E+03	 1.590E+04	-2.191E+04	 4.097E+02	-1.393E+06	 6.441E+00	-1.628E+05	-2.333E+01	 1.298E+04	 5.086E+04	 5.059E+04	-1.313E+04	-2.673E+04	 3.017E+02	 4.588E+01	 1.422E+01	 1.744E+00	 9.731E-01
    1.2300	-1.246E+02	 1.127E+01	-1.241E+04	 6.225E-02	 3.261E+01	-4.091E-05	 1.856E+02	 1.232E+03	-8.004E+03	 2.406E+01	-1.095E+01	 1.270E-04	-9.589E+04	 7.215E+04	-5.051E+03	 7.182E+04	 6.373E+03	 1.686E+00	-1.652E+03	 1.596E+04	-2.259E+04	 4.260E+02	-1.393E+06	 6.045E+00	-1.627E+05	-2.670E+01	 1.443E+04	 5.097E+04	 5.027E+04	-1.295E+04	-1.907E+04	 3.176E+02	 4.571E+01	 1.410E+01	 1.755E+00	 9.703E-01
    1.2600	-1.263E+02	 1.122E+01	-1.241E+04	 5.835E-02	 3.353E+01	-4.380E-05	 1.797E+02	 1.235E+03	-7.891E+03	 2.411E+01	-1.080E+01	 2.040E-04	-9.685E+04	 7.216E+04	-5.189E+03	 7.201E+04	 4.338E+03	 1.697E+00	-1.127E+03	 1.600E+04	-2.327E+04	 4.403E+02	-1.394E+06	 5.666E+00	-1.626E+05	-2.978E+01	 1.594E+04	 5.102E+04	 4.996E+04	-1.274E+04	-1.220E+04	 3.331E+02	 4.553E+01	 1.399E+01	 1.765E+00	 9.677E-01
    1.2900	-1.279E+02	 1.115E+01	-1.241E+04	 5.458E-02	 3.444E+01	-4.655E-05	 1.736E+02	 1.237E+03	-7.778E+03	 2.414E+01	-1.063E+01	 2.855E-04	-9.782E+04	 7.213E+04	-5.325E+03	 7.213E+04	 2.295E+03	 1.710E+00	-5.989E+02	 1.603E+04	-2.395E+04	 4.527E+02	-1.394E+06	 5.300E+00	-1.624E+05	-3.258E+01	 1.748E+04	 5.104E+04	 4.969E+04	-1.249E+04	-6.173E+03	 3.571E+02	 4.527E+01	 1.386E+01	 1.773E+00	 9.654E-01
    1.3200	-1.292E+02	 1.106E+01	-1.241E+04	 5.105E-02	 3.534E+01	-4.910E-05	 1.670E+02	 1.237E+03	-7.665E+03	 2.414E+01	-1.044E+01	 3.709E-04	-9.879E+04	 7.200E+04	-5.460E+03	 7.217E+04	 2.434E+02	 1.728E+00	-6.913E+01	 1.604E+04	-2.463E+04	 4.629E+02	-1.394E+06	 4.957E+00	-1.623E+05	-3.502E+01	 1.908E+04	 5.101E+04	 4.942E+04	-1.222E+04	-9.504E+02	 3.830E+02	 4.498E+01	 1.371E+01	 1.780E+00	 9.630E-01
    1.3500	-1.301E+02	 1.095E+01	-1.241E+04	 4.766E-02	 3.624E+01	-5.144E-05	 1.602E+02	 1.236E+03	-7.551E+03	 2.412E+01	-1.024E+01	 4.602E-04	-9.977E+04	 7.176E+04	-5.594E+03	 7.213E+04	-1.814E+03	 1.753E+00	 4.623E+02	 1.603E+04	-2.532E+04	 4.711E+02	-1.394E+06	 4.628E+00	-1.622E+05	-3.718E+01	 2.066E+04	 5.090E+04	 4.916E+04	-1.195E+04	 3.446E+03	 4.030E+02	 4.462E+01	 1.354E+01	 1.784E+00	 9.606E-01
    1.3800	-1.308E+02	 1.082E+01	-1.241E+04	 4.448E-02	 3.713E+01	-5.353E-05	 1.530E+02	 1.234E+03	-7.436E+03	 2.407E+01	-1.002E+01	 5.535E-04	-1.008E+05	 7.145E+04	-5.726E+03	 7.201E+04	-3.877E+03	 1.784E+00	 9.951E+02	 1.600E+04	-2.600E+04	 4.770E+02	-1.394E+06	 4.319E+00	-1.620E+05	-3.900E+01	 2.228E+04	 5.072E+04	 4.890E+04	-1.165E+04	 6.957E+03	 4.224E+02	 4.424E+01	 1.338E+01	 1.789E+00	 9.584E-01
    1.4100	-1.317E+02	 1.067E+01	-1.241E+04	 4.170E-02	 3.801E+01	-5.531E-05	 1.454E+02	 1.231E+03	-7.322E+03	 2.399E+01	-9.778E+00	 6.507E-04	-1.018E+05	 7.108E+04	-5.856E+03	 7.181E+04	-5.944E+03	 1.822E+00	 1.529E+03	 1.595E+04	-2.668E+04	 4.801E+02	-1.394E+06	 4.049E+00	-1.619E+05	-4.035E+01	 2.391E+04	 5.050E+04	 4.867E+04	-1.132E+04	 9.561E+03	 4.487E+02	 4.379E+01	 1.321E+01	 1.791E+00	 9.564E-01
    1.4400	-1.325E+02	 1.051E+01	-1.241E+04	 3.927E-02	 3.889E+01	-5.673E-05	 1.374E+02	 1.226E+03	-7.208E+03	 2.388E+01	-9.521E+00	 7.508E-04	-1.028E+05	 7.062E+04	-5.986E+03	 7.152E+04	-8.013E+03	 1.865E+00	 2.063E+03	 1.589E+04	-2.735E+04	 4.807E+02	-1.395E+06	 3.814E+00	-1.618E+05	-4.126E+01	 2.560E+04	 5.021E+04	 4.845E+04	-1.097E+04	 1.125E+04	 4.796E+02	 4.329E+01	 1.302E+01	 1.792E+00	 9.545E-01
    1.4700	-1.328E+02	 1.031E+01	-1.241E+04	 3.693E-02	 3.976E+01	-5.785E-05	 1.291E+02	 1.219E+03	-7.093E+03	 2.375E+01	-9.246E+00	 8.522E-04	-1.038E+05	 7.005E+04	-6.114E+03	 7.116E+04	-1.008E+04	 1.916E+00	 2.598E+03	 1.581E+04	-2.803E+04	 4.791E+02	-1.395E+06	 3.586E+00	-1.617E+05	-4.189E+01	 2.732E+04	 4.986E+04	 4.824E+04	-1.059E+04	 1.196E+04	 5.058E+02	 4.274E+01	 1.283E+01	 1.792E+00	 9.525E-01
    1.5000	-1.325E+02	 1.009E+01	-1.241E+04	 3.470E-02	 4.063E+01	-5.864E-05	 1.203E+02	 1.211E+03	-6.979E+03	 2.359E+01	-8.954E+00	 9.539E-04	-1.048E+05	 6.941E+04	-6.240E+03	 7.071E+04	-1.215E+04	 1.973E+00	 3.132E+03	 1.571E+04	-2.872E+04	 4.751E+02	-1.395E+06	 3.370E+00	-1.616E+05	-4.221E+01	 2.909E+04	 4.944E+04	 4.803E+04	-1.018E+04	 1.168E+04	 5.294E+02	 4.216E+01	 1.264E+01	 1.791E+00	 9.506E-01
    1.5300	-1.321E+02	 9.854E+00	-1.241E+04	 3.287E-02	 4.149E+01	-5.898E-05	 1.112E+02	 1.202E+03	-6.865E+03	 2.340E+01	-8.642E+00	 1.055E-03	-1.058E+05	 6.871E+04	-6.364E+03	 7.018E+04	-1.422E+04	 2.035E+00	 3.666E+03	 1.559E+04	-2.941E+04	 4.684E+02	-1.395E+06	 3.191E+00	-1.614E+05	-4.206E+01	 3.090E+04	 4.896E+04	 4.785E+04	-9.736E+03	 1.044E+04	 5.585E+02	 4.156E+01	 1.245E+01	 1.790E+00	 9.490E-01
    1.5600	-1.313E+02	 9.591E+00	-1.241E+04	 3.124E-02	 4.234E+01	-5.893E-05	 1.017E+02	 1.191E+03	-6.751E+03	 2.318E+01	-8.313E+00	 1.156E-03	-1.068E+05	 6.792E+04	-6.487E+03	 6.956E+04	-1.628E+04	 2.102E+00	 4.198E+03	 1.546E+04	-3.010E+04	 4.591E+02	-1.395E+06	 3.033E+00	-1.613E+05	-4.155E+01	 3.278E+04	 4.843E+04	 4.769E+04	-9.250E+03	 8.258E+03	 5.927E+02	 4.094E+01	 1.225E+01	 1.788E+00	 9.473E-01
    1.5900	-1.301E+02	 9.284E+00	-1.241E+04	 2.936E-02	 4.319E+01	-5.860E-05	 9.184E+01	 1.179E+03	-6.637E+03	 2.293E+01	-7.964E+00	 1.254E-03	-1.079E+05	 6.703E+04	-6.608E+03	 6.885E+04	-1.833E+04	 2.175E+00	 4.729E+03	 1.530E+04	-3.079E+04	 4.482E+02	-1.395E+06	 2.851E+00	-1.612E+05	-4.094E+01	 3.472E+04	 4.782E+04	 4.754E+04	-8.722E+03	 5.065E+03	 6.233E+02	 4.032E+01	 1.204E+01	 1.785E+00	 9.456E-01
    1.6200	-1.286E+02	 8.932E+00	-1.241E+04	 2.728E-02	 4.403E+01	-5.798E-05	 8.154E+01	 1.165E+03	-6.525E+03	 2.265E+01	-7.597E+00	 1.350E-03	-1.089E+05	 6.605E+04	-6.728E+03	 6.806E+04	-2.038E+04	 2.251E+00	 5.257E+03	 1.512E+04	-3.149E+04	 4.355E+02	-1.396E+06	 2.649E+00	-1.611E+05	-4.020E+01	 3.672E+04	 4.714E+04	 4.739E+04	-8.145E+03	 7.962E+02	 6.493E+02	 3.971E+01	 1.183E+01	 1.783E+00	 9.440E-01
    1.6500	-1.269E+02	 8.556E+00	-1.241E+04	 2.548E-02	 4.487E+01	-5.686E-05	 7.082E+01	 1.150E+03	-6.412E+03	 2.234E+01	-7.210E+00	 1.443E-03	-1.099E+05	 6.501E+04	-6.846E+03	 6.718E+04	-2.241E+04	 2.332E+00	 5.782E+03	 1.493E+04	-3.219E+04	 4.199E+02	-1.396E+06	 2.474E+00	-1.610E+05	-3.902E+01	 3.879E+04	 4.639E+04	 4.725E+04	-7.517E+03	-4.490E+03	 6.787E+02	 3.910E+01	 1.163E+01	 1.781E+00	 9.426E-01
    1.6800	-1.251E+02	 8.151E+00	-1.241E+04	 2.391E-02	 4.570E+01	-5.525E-05	 5.968E+01	 1.133E+03	-6.301E+03	 2.200E+01	-6.803E+00	 1.532E-03	-1.109E+05	 6.389E+04	-6.963E+03	 6.621E+04	-2.443E+04	 2.417E+00	 6.303E+03	 1.471E+04	-3.288E+04	 4.016E+02	-1.396E+06	 2.322E+00	-1.608E+05	-3.744E+01	 4.090E+04	 4.559E+04	 4.715E+04	-6.851E+03	-1.070E+04	 7.137E+02	 3.850E+01	 1.143E+01	 1.778E+00	 9.412E-01
    1.7100	-1.230E+02	 7.692E+00	-1.241E+04	 2.193E-02	 4.652E+01	-5.336E-05	 4.813E+01	 1.115E+03	-6.191E+03	 2.163E+01	-6.376E+00	 1.615E-03	-1.120E+05	 6.267E+04	-7.078E+03	 6.516E+04	-2.643E+04	 2.506E+00	 6.819E+03	 1.448E+04	-3.357E+04	 3.817E+02	-1.396E+06	 2.129E+00	-1.607E+05	-3.585E+01	 4.306E+04	 4.472E+04	 4.706E+04	-6.139E+03	-1.784E+04	 7.463E+02	 3.790E+01	 1.123E+01	 1.776E+00	 9.399E-01
    1.7400	-1.205E+02	 7.168E+00	-1.241E+04	 1.932E-02	 4.733E+01	-5.127E-05	 3.615E+01	 1.095E+03	-6.082E+03	 2.124E+01	-5.930E+00	 1.693E-03	-1.130E+05	 6.136E+04	-7.191E+03	 6.401E+04	-2.840E+04	 2.600E+00	 7.331E+03	 1.422E+04	-3.427E+04	 3.606E+02	-1.396E+06	 1.876E+00	-1.606E+05	-3.435E+01	 4.527E+04	 4.378E+04	 4.698E+04	-5.384E+03	-2.597E+04	 7.732E+02	 3.730E+01	 1.103E+01	 1.774E+00	 9.387E-01
    1.7700	-1.177E+02	 6.598E+00	-1.241E+04	 1.655E-02	 4.814E+01	-4.878E-05	 2.375E+01	 1.074E+03	-5.974E+03	 2.081E+01	-5.464E+00	 1.763E-03	-1.140E+05	 5.999E+04	-7.303E+03	 6.278E+04	-3.036E+04	 2.696E+00	 7.836E+03	 1.395E+04	-3.497E+04	 3.373E+02	-1.397E+06	 1.607E+00	-1.605E+05	-3.266E+01	 4.751E+04	 4.277E+04	 4.693E+04	-4.589E+03	-3.502E+04	 8.011E+02	 3.673E+01	 1.084E+01	 1.773E+00	 9.377E-01
    1.8000	-1.148E+02	 5.983E+00	-1.241E+04	 1.371E-02	 4.894E+01	-4.583E-05	 1.091E+01	 1.051E+03	-5.868E+03	 2.035E+01	-4.979E+00	 1.826E-03	-1.151E+05	 5.854E+04	-7.413E+03	 6.145E+04	-3.229E+04	 2.796E+00	 8.334E+03	 1.365E+04	-3.567E+04	 3.116E+02	-1.397E+06	 1.331E+00	-1.604E+05	-3.073E+01	 4.979E+04	 4.171E+04	 4.690E+04	-3.767E+03	-4.484E+04	 8.344E+02	 3.616E+01	 1.065E+01	 1.773E+00	 9.368E-01
    1.8300	-1.116E+02	 5.298E+00	-1.241E+04	 1.015E-02	 4.974E+01	-4.269E-05	-2.346E+00	 1.026E+03	-5.763E+03	 1.986E+01	-4.473E+00	 1.881E-03	-1.161E+05	 5.700E+04	-7.522E+03	 6.004E+04	-3.419E+04	 2.900E+00	 8.825E+03	 1.334E+04	-3.637E+04	 2.847E+02	-1.397E+06	 9.855E-01	-1.603E+05	-2.893E+01	 5.210E+04	 4.059E+04	 4.690E+04	-2.911E+03	-5.537E+04	 8.667E+02	 3.561E+01	 1.046E+01	 1.773E+00	 9.360E-01
    1.8600	-1.081E+02	 4.525E+00	-1.241E+04	 5.501E-03	 5.052E+01	-3.948E-05	-1.604E+01	 1.000E+03	-5.660E+03	 1.934E+01	-3.947E+00	 1.927E-03	-1.171E+05	 5.538E+04	-7.629E+03	 5.853E+04	-3.605E+04	 3.007E+00	 9.306E+03	 1.301E+04	-3.707E+04	 2.573E+02	-1.397E+06	 5.341E-01	-1.601E+05	-2.746E+01	 5.444E+04	 3.940E+04	 4.691E+04	-2.016E+03	-6.669E+04	 8.925E+02	 3.508E+01	 1.027E+01	 1.775E+00	 9.353E-01
    1.8900	-1.045E+02	 3.680E+00	-1.241E+04	 1.963E-04	 5.130E+01	-3.603E-05	-3.016E+01	 9.726E+02	-5.559E+03	 1.879E+01	-3.402E+00	 1.963E-03	-1.181E+05	 5.368E+04	-7.734E+03	 5.694E+04	-3.788E+04	 3.117E+00	 9.779E+03	 1.265E+04	-3.776E+04	 2.283E+02	-1.397E+06	 1.906E-02	-1.600E+05	-2.607E+01	 5.680E+04	 3.815E+04	 4.694E+04	-1.087E+03	-7.873E+04	 9.163E+02	 3.457E+01	 1.010E+01	 1.776E+00	 9.347E-01
    1.9200	-1.009E+02	 2.773E+00	-1.241E+04	-5.478E-03	 5.208E+01	-3.219E-05	-4.471E+01	 9.434E+02	-5.461E+03	 1.821E+01	-2.837E+00	 1.989E-03	-1.191E+05	 5.192E+04	-7.839E+03	 5.526E+04	-3.967E+04	 3.230E+00	 1.024E+04	 1.228E+04	-3.846E+04	 1.971E+02	-1.398E+06	-5.319E-01	-1.599E+05	-2.457E+01	 5.918E+04	 3.685E+04	 4.701E+04	-1.311E+02	-9.129E+04	 9.441E+02	 3.409E+01	 9.931E+00	 1.778E+00	 9.343E-01
    1.9500	-9.710E+01	 1.783E+00	-1.241E+04	-1.208E-02	 5.284E+01	-2.821E-05	-5.968E+01	 9.128E+02	-5.365E+03	 1.760E+01	-2.252E+00	 2.005E-03	-1.201E+05	 5.009E+04	-7.942E+03	 5.349E+04	-4.141E+04	 3.347E+00	 1.069E+04	 1.189E+04	-3.915E+04	 1.649E+02	-1.398E+06	-1.173E+00	-1.598E+05	-2.330E+01	 6.157E+04	 3.549E+04	 4.709E+04	 8.556E+02	-1.042E+05	 9.721E+02	 3.362E+01	 9.766E+00	 1.779E+00	 9.340E-01
    1.9800	-9.320E+01	 6.840E-01	-1.241E+04	-2.018E-02	 5.359E+01	-2.433E-05	-7.508E+01	 8.807E+02	-5.272E+03	 1.696E+01	-1.648E+00	 2.009E-03	-1.210E+05	 4.818E+04	-8.043E+03	 5.164E+04	-4.310E+04	 3.465E+00	 1.113E+04	 1.147E+04	-3.983E+04	 1.326E+02	-1.398E+06	-1.960E+00	-1.597E+05	-2.258E+01	 6.398E+04	 3.407E+04	 4.720E+04	 1.878E+03	-1.176E+05	 9.934E+02	 3.318E+01	 9.606E+00	 1.780E+00	 9.338E-01
    2.0100	-8.921E+01	-5.151E-01	-1.241E+04	-2.953E-02	 5.434E+01	-2.044E-05	-9.089E+01	 8.472E+02	-5.181E+03	 1.629E+01	-1.025E+00	 2.002E-03	-1.219E+05	 4.620E+04	-8.143E+03	 4.970E+04	-4.475E+04	 3.586E+00	 1.155E+04	 1.104E+04	-4.051E+04	 9.961E+01	-1.398E+06	-2.868E+00	-1.596E+05	-2.224E+01	 6.639E+04	 3.259E+04	 4.732E+04	 2.924E+03	-1.313E+05	 1.010E+03	 3.276E+01	 9.455E+00	 1.782E+00	 9.338E-01
    2.0400	-8.524E+01	-1.797E+00	-1.241E+04	-3.968E-02	 5.508E+01	-1.633E-05	-1.071E+02	 8.122E+02	-5.093E+03	 1.560E+01	-3.839E-01	 1.983E-03	-1.229E+05	 4.417E+04	-8.242E+03	 4.768E+04	-4.633E+04	 3.710E+00	 1.196E+04	 1.060E+04	-4.119E+04	 6.507E+01	-1.398E+06	-3.853E+00	-1.595E+05	-2.202E+01	 6.880E+04	 3.107E+04	 4.746E+04	 3.987E+03	-1.451E+05	 1.028E+03	 3.237E+01	 9.315E+00	 1.784E+00	 9.339E-01
    2.0700	-8.130E+01	-3.175E+00	-1.241E+04	-5.095E-02	 5.581E+01	-1.214E-05	-1.237E+02	 7.758E+02	-5.009E+03	 1.488E+01	 2.754E-01	 1.952E-03	-1.238E+05	 4.207E+04	-8.339E+03	 4.558E+04	-4.786E+04	 3.836E+00	 1.236E+04	 1.013E+04	-4.186E+04	 2.958E+01	-1.399E+06	-4.947E+00	-1.594E+05	-2.211E+01	 7.120E+04	 2.950E+04	 4.762E+04	 5.071E+03	-1.589E+05	 1.047E+03	 3.200E+01	 9.179E+00	 1.785E+00	 9.342E-01
    2.1000	-7.735E+01	-4.674E+00	-1.241E+04	-6.395E-02	 5.654E+01	-8.179E-06	-1.407E+02	 7.382E+02	-4.928E+03	 1.413E+01	 9.522E-01	 1.910E-03	-1.246E+05	 3.991E+04	-8.436E+03	 4.341E+04	-4.933E+04	 3.963E+00	 1.274E+04	 9.645E+03	-4.252E+04	-5.685E+00	-1.399E+06	-6.210E+00	-1.593E+05	-2.288E+01	 7.359E+04	 2.788E+04	 4.779E+04	 6.180E+03	-1.726E+05	 1.060E+03	 3.167E+01	 9.047E+00	 1.787E+00	 9.345E-01