
FAST Summary File

Predictions were generated on 26-Mar-2020 at 13:57:48 using OpenFAST, compiled as a 64-bit application using double precision at commit v1.0.0-450-g6bd2e0a4-dirty
  compiled with
    NWTC Subroutine Library
    ElastoDyn
    BeamDyn [not called]
    InflowWind
    AeroDyn14 [not called]
    AeroDyn
    ServoDyn
    HydroDyn [not called]
    SubDyn [not called]
    ExtPtfm_MCKF [not called]
    MAP [not called]
    FEAMooring [not called]
    MoorDyn [not called]
    OrcaFlexInterface [not called]
    IceFloe [not called]
    IceDyn [not called]


Modeling a land-based turbine
Description from the FAST input file: 
  FAST Certification Test #07: AOC 15/50 with many DOFs with free yaw and FF turbulence. Many parameters are pure fiction.

Interpolation order for input/output time histories: 2 (quadratic)
Number of correction iterations:  0


   Requested Time Steps  
  -------------------------------------------------
  Component          Time Step (s)    Subcycles (-)
  -----------------  ---------------  -------------
  FAST (glue code)    5.000E-03
  InflowWind          5.000E-03              1
  ElastoDyn           5.000E-03              1
  AeroDyn             5.000E-03              1
  ServoDyn            5.000E-03              1
  FAST output files   5.000E-02             10^-1


   Requested Channels in FAST Output File(s)  
  --------------------------------------------
  Number  Name        Units       Generated by
  ------  ----------  ----------  ------------
       1  Time        (s)         OpenFAST
       2  Wind1VelX   (m/s)       InflowWind
       3  Wind1VelY   (m/s)       InflowWind
       4  Wind1VelZ   (m/s)       InflowWind
       5  TipDxc3     (m)         ElastoDyn
       6  TipDyc3     (m)         ElastoDyn
       7  TipDzb3     (m)         ElastoDyn
       8  TipALzb3    (m/s^2)     ElastoDyn
       9  Spn3ALxb1   (m/s^2)     ElastoDyn
      10  Spn3ALyb1   (m/s^2)     ElastoDyn
      11  YawBrTAxp   (m/s^2)     ElastoDyn
      12  YawBrTAyp   (m/s^2)     ElastoDyn
      13  NacYawV     (deg/s)     ElastoDyn
      14  NacYawA     (deg/s^2)   ElastoDyn
      15  RootFxc3    (kN)        ElastoDyn
      16  RootFyc3    (kN)        ElastoDyn
      17  RootMIP3    (kN-m)      ElastoDyn
      18  RootMOoP3   (kN-m)      ElastoDyn
      19  Spn1MLxb1   (kN-m)      ElastoDyn
      20  Spn1MLyb1   (kN-m)      ElastoDyn
      21  LSSTipMya   (kN-m)      ElastoDyn
      22  LSSTipMza   (kN-m)      ElastoDyn
      23  LSSGagMys   (kN-m)      ElastoDyn
      24  LSSGagMzs   (kN-m)      ElastoDyn
      25  TwrBsMxt    (kN-m)      ElastoDyn
      26  TwrBsMyt    (kN-m)      ElastoDyn
      27  Spn1RDxb3   (deg)       ElastoDyn
      28  Spn2RDyb3   (deg)       ElastoDyn
      29  Spn3RDzb3   (deg)       ElastoDyn
      30  RtTSR       (-)         AeroDyn
