
Predictions were generated on 16-May-2017 at 14:36:59 using OpenFAST (v8.17.01b-dev, 18-Jan-2017), compiled as a 64-bit application using double precision
 linked with  NWTC Subroutine Library (v2.11.00, 12-Nov-2016); ElastoDyn (v1.04.00a-bjj, 26-Jul-2016); InflowWind (v3.03.00, 26-Jul-2016); AeroDyn14 (v14.05.01a-bjj, 25-Jul-2016); ServoDyn (v1.06.00a-bjj, 26-Jul-2016)

Description from the FAST input file: FAST Certification Test #16: SWRT 3-bladed upwind turbine with many DOFs, variable speed control, free yaw, tail-furl, EDC01 event

Time      	Wind1VelX 	Wind1VelY 	Wind1VelZ 	RotSpeed  	TailFurlP 	TailFurlV 	TailFurlA 	NacYawP   	RootFxc3  	RootFyc3  	RootMxc1  	RootMyc1  	RotThrust 	RotTorq   	RotPwr    	TFrlBrM   
(s)       	(m/s)     	(m/s)     	(m/s)     	(rpm)     	(deg)     	(deg/s)   	(deg/s^2) 	(deg)     	(kN)      	(kN)      	(kN·m)    	(kN·m)    	(kN)      	(kN·m)    	(kW)      	(kN·m)    
    5.0000	 1.188E+01	 0.000E+00	 1.670E+00	 2.476E+02	 0.000E+00	 0.000E+00	 0.000E+00	-6.830E+00	 3.912E-01	-1.071E-01	 1.884E-01	 2.496E-01	 1.354E+00	 2.773E-01	 7.190E+00	 0.000E+00
    5.0080	 1.188E+01	 0.000E+00	 1.670E+00	 2.476E+02	 0.000E+00	 0.000E+00	 0.000E+00	-6.843E+00	 4.041E-01	-1.329E-01	 1.697E-01	 2.488E-01	 1.355E+00	 2.773E-01	 7.192E+00	 0.000E+00
    5.0160	 1.188E+01	 0.000E+00	 1.670E+00	 2.477E+02	 0.000E+00	 0.000E+00	 0.000E+00	-6.855E+00	 4.177E-01	-1.574E-01	 1.461E-01	 2.471E-01	 1.356E+00	 2.774E-01	 7.193E+00	 0.000E+00
    5.0240	 1.188E+01	 0.000E+00	 1.670E+00	 2.477E+02	 0.000E+00	 0.000E+00	 0.000E+00	-6.867E+00	 4.307E-01	-1.794E-01	 1.183E-01	 2.448E-01	 1.357E+00	 2.774E-01	 7.194E+00	 0.000E+00
    5.0320	 1.188E+01	 0.000E+00	 1.670E+00	 2.477E+02	 0.000E+00	 0.000E+00	 0.000E+00	-6.879E+00	 4.418E-01	-1.975E-01	 8.762E-02	 2.422E-01	 1.358E+00	 2.774E-01	 7.196E+00	 0.000E+00
    5.0400	 1.188E+01	 0.000E+00	 1.670E+00	 2.477E+02	 0.000E+00	 0.000E+00	 0.000E+00	-6.891E+00	 4.505E-01	-2.111E-01	 5.569E-02	 2.390E-01	 1.358E+00	 2.774E-01	 7.197E+00	 0.000E+00
    5.0480	 1.188E+01	 0.000E+00	 1.670E+00	 2.477E+02	 0.000E+00	 0.000E+00	 0.000E+00	-6.903E+00	 4.562E-01	-2.197E-01	 2.451E-02	 2.351E-01	 1.358E+00	 2.775E-01	 7.198E+00	 0.000E+00
    5.0560	 1.188E+01	 0.000E+00	 1.670E+00	 2.478E+02	 0.000E+00	 0.000E+00	 0.000E+00	-6.915E+00	 4.595E-01	-2.228E-01	-4.282E-03	 2.306E-01	 1.357E+00	 2.775E-01	 7.200E+00	 0.000E+00
    5.0640	 1.188E+01	 0.000E+00	 1.670E+00	 2.478E+02	 0.000E+00	 0.000E+00	 0.000E+00	-6.927E+00	 4.606E-01	-2.207E-01	-2.987E-02	 2.257E-01	 1.356E+00	 2.775E-01	 7.201E+00	 0.000E+00
    5.0720	 1.188E+01	 0.000E+00	 1.670E+00	 2.478E+02	 0.000E+00	 0.000E+00	 0.000E+00	-6.940E+00	 4.603E-01	-2.140E-01	-5.173E-02	 2.209E-01	 1.355E+00	 2.775E-01	 7.202E+00	 0.000E+00
    5.0800	 1.188E+01	 0.000E+00	 1.670E+00	 2.478E+02	 0.000E+00	 0.000E+00	 0.000E+00	-6.952E+00	 4.580E-01	-2.026E-01	-6.950E-02	 2.167E-01	 1.354E+00	 2.775E-01	 7.203E+00	 0.000E+00
    5.0880	 1.188E+01	 0.000E+00	 1.670E+00	 2.478E+02	 0.000E+00	 0.000E+00	 0.000E+00	-6.964E+00	 4.533E-01	-1.870E-01	-8.224E-02	 2.133E-01	 1.355E+00	 2.776E-01	 7.204E+00	 0.000E+00
    5.0960	 1.188E+01	 0.000E+00	 1.670E+00	 2.479E+02	 0.000E+00	 0.000E+00	 0.000E+00	-6.976E+00	 4.461E-01	-1.672E-01	-8.880E-02	 2.106E-01	 1.356E+00	 2.776E-01	 7.206E+00	 0.000E+00
    5.1040	 1.188E+01	 0.000E+00	 1.670E+00	 2.479E+02	 0.000E+00	 0.000E+00	 0.000E+00	-6.988E+00	 4.371E-01	-1.441E-01	-8.814E-02	 2.083E-01	 1.357E+00	 2.776E-01	 7.207E+00	 0.000E+00
    5.1120	 1.188E+01	 0.000E+00	 1.670E+00	 2.479E+02	 0.000E+00	 0.000E+00	 0.000E+00	-6.999E+00	 4.269E-01	-1.187E-01	-7.999E-02	 2.068E-01	 1.358E+00	 2.777E-01	 7.208E+00	 0.000E+00
    5.1200	 1.188E+01	 0.000E+00	 1.670E+00	 2.479E+02	 0.000E+00	 0.000E+00	 0.000E+00	-7.011E+00	 4.155E-01	-9.227E-02	-6.524E-02	 2.063E-01	 1.358E+00	 2.777E-01	 7.210E+00	 0.000E+00
    5.1280	 1.188E+01	 0.000E+00	 1.670E+00	 2.479E+02	 0.000E+00	 0.000E+00	 0.000E+00	-7.023E+00	 4.031E-01	-6.624E-02	-4.511E-02	 2.072E-01	 1.358E+00	 2.777E-01	 7.211E+00	 0.000E+00
    5.1360	 1.188E+01	 0.000E+00	 1.670E+00	 2.480E+02	 0.000E+00	 0.000E+00	 0.000E+00	-7.034E+00	 3.902E-01	-4.191E-02	-2.075E-02	 2.091E-01	 1.357E+00	 2.777E-01	 7.212E+00	 0.000E+00
    5.1440	 1.188E+01	 0.000E+00	 1.670E+00	 2.480E+02	 0.000E+00	 0.000E+00	 0.000E+00	-7.046E+00	 3.772E-01	-2.011E-02	 6.638E-03	 2.118E-01	 1.356E+00	 2.777E-01	 7.213E+00	 0.000E+00
    5.1520	 1.188E+01	 0.000E+00	 1.670E+00	 2.480E+02	 0.000E+00	 0.000E+00	 0.000E+00	-7.058E+00	 3.649E-01	-1.491E-03	 3.624E-02	 2.149E-01	 1.355E+00	 2.778E-01	 7.214E+00	 0.000E+00
    5.1600	 1.188E+01	 0.000E+00	 1.670E+00	 2.480E+02	 0.000E+00	 0.000E+00	 0.000E+00	-7.069E+00	 3.545E-01	 1.341E-02	 6.717E-02	 2.186E-01	 1.354E+00	 2.778E-01	 7.215E+00	 0.000E+00
    5.1680	 1.188E+01	 0.000E+00	 1.670E+00	 2.480E+02	 0.000E+00	 0.000E+00	 0.000E+00	-7.081E+00	 3.465E-01	 2.404E-02	 9.848E-02	 2.229E-01	 1.355E+00	 2.778E-01	 7.216E+00	 0.000E+00
    5.1760	 1.188E+01	 0.000E+00	 1.670E+00	 2.481E+02	 0.000E+00	 0.000E+00	 0.000E+00	-7.093E+00	 3.405E-01	 2.960E-02	 1.286E-01	 2.277E-01	 1.356E+00	 2.779E-01	 7.218E+00	 0.000E+00
    5.1840	 1.188E+01	 0.000E+00	 1.670E+00	 2.481E+02	 0.000E+00	 0.000E+00	 0.000E+00	-7.104E+00	 3.368E-01	 2.932E-02	 1.558E-01	 2.327E-01	 1.357E+00	 2.779E-01	 7.219E+00	 0.000E+00
    5.1920	 1.188E+01	 0.000E+00	 1.670E+00	 2.481E+02	 0.000E+00	 0.000E+00	 0.000E+00	-7.116E+00	 3.358E-01	 2.302E-02	 1.787E-01	 2.373E-01	 1.358E+00	 2.779E-01	 7.220E+00	 0.000E+00
    5.2000	 1.188E+01	 0.000E+00	 1.670E+00	 2.481E+02	 0.000E+00	 0.000E+00	 0.000E+00	-7.127E+00	 3.378E-01	 1.121E-02	 1.965E-01	 2.412E-01	 1.358E+00	 2.779E-01	 7.222E+00	 0.000E+00
    5.2080	 1.188E+01	 0.000E+00	 1.670E+00	 2.481E+02	 0.000E+00	 0.000E+00	 0.000E+00	-7.138E+00	 3.432E-01	-5.433E-03	 2.083E-01	 2.442E-01	 1.358E+00	 2.780E-01	 7.223E+00	 0.000E+00
    5.2160	 1.188E+01	 0.000E+00	 1.670E+00	 2.482E+02	 0.000E+00	 0.000E+00	 0.000E+00	-7.150E+00	 3.514E-01	-2.590E-02	 2.136E-01	 2.466E-01	 1.357E+00	 2.780E-01	 7.224E+00	 0.000E+00
    5.2240	 1.188E+01	 0.000E+00	 1.670E+00	 2.482E+02	 0.000E+00	 0.000E+00	 0.000E+00	-7.161E+00	 3.612E-01	-4.900E-02	 2.126E-01	 2.485E-01	 1.356E+00	 2.780E-01	 7.225E+00	 0.000E+00
    5.2320	 1.188E+01	 0.000E+00	 1.670E+00	 2.482E+02	 0.000E+00	 0.000E+00	 0.000E+00	-7.172E+00	 3.721E-01	-7.383E-02	 2.057E-01	 2.498E-01	 1.355E+00	 2.780E-01	 7.226E+00	 0.000E+00
    5.2400	 1.188E+01	 0.000E+00	 1.670E+00	 2.482E+02	 0.000E+00	 0.000E+00	 0.000E+00	-7.184E+00	 3.841E-01	-9.970E-02	 1.933E-01	 2.506E-01	 1.354E+00	 2.780E-01	 7.227E+00	 0.000E+00
    5.2480	 1.188E+01	 0.000E+00	 1.670E+00	 2.482E+02	 0.000E+00	 0.000E+00	 0.000E+00	-7.195E+00	 3.972E-01	-1.258E-01	 1.756E-01	 2.504E-01	 1.355E+00	 2.781E-01	 7.228E+00	 0.000E+00
    5.2560	 1.188E+01	 0.000E+00	 1.670E+00	 2.483E+02	 0.000E+00	 0.000E+00	 0.000E+00	-7.206E+00	 4.111E-01	-1.509E-01	 1.532E-01	 2.492E-01	 1.356E+00	 2.781E-01	 7.230E+00	 0.000E+00
    5.2640	 1.188E+01	 0.000E+00	 1.670E+00	 2.483E+02	 0.000E+00	 0.000E+00	 0.000E+00	-7.218E+00	 4.249E-01	-1.738E-01	 1.263E-01	 2.473E-01	 1.357E+00	 2.781E-01	 7.231E+00	 0.000E+00
    5.2720	 1.188E+01	 0.000E+00	 1.670E+00	 2.483E+02	 0.000E+00	 0.000E+00	 0.000E+00	-7.229E+00	 4.371E-01	-1.931E-01	 9.616E-02	 2.447E-01	 1.358E+00	 2.781E-01	 7.232E+00	 0.000E+00
    5.2800	 1.188E+01	 0.000E+00	 1.670E+00	 2.483E+02	 0.000E+00	 0.000E+00	 0.000E+00	-7.240E+00	 4.472E-01	-2.082E-01	 6.428E-02	 2.415E-01	 1.358E+00	 2.782E-01	 7.233E+00	 0.000E+00
    5.2880	 1.188E+01	 0.000E+00	 1.670E+00	 2.483E+02	 0.000E+00	 0.000E+00	 0.000E+00	-7.251E+00	 4.546E-01	-2.183E-01	 3.256E-02	 2.376E-01	 1.358E+00	 2.782E-01	 7.234E+00	 0.000E+00
    5.2960	 1.188E+01	 0.000E+00	 1.670E+00	 2.484E+02	 0.000E+00	 0.000E+00	 0.000E+00	-7.261E+00	 4.593E-01	-2.230E-01	 2.870E-03	 2.331E-01	 1.357E+00	 2.782E-01	 7.236E+00	 0.000E+00
    5.3040	 1.188E+01	 0.000E+00	 1.670E+00	 2.484E+02	 0.000E+00	 0.000E+00	 0.000E+00	-7.272E+00	 4.617E-01	-2.224E-01	-2.377E-02	 2.279E-01	 1.356E+00	 2.782E-01	 7.237E+00	 0.000E+00
    5.3120	 1.188E+01	 0.000E+00	 1.670E+00	 2.484E+02	 0.000E+00	 0.000E+00	 0.000E+00	-7.283E+00	 4.624E-01	-2.167E-01	-4.672E-02	 2.227E-01	 1.355E+00	 2.782E-01	 7.238E+00	 0.000E+00
    5.3200	 1.188E+01	 0.000E+00	 1.670E+00	 2.484E+02	 0.000E+00	 0.000E+00	 0.000E+00	-7.294E+00	 4.612E-01	-2.065E-01	-6.564E-02	 2.179E-01	 1.354E+00	 2.783E-01	 7.238E+00	 0.000E+00
    5.3280	 1.188E+01	 0.000E+00	 1.670E+00	 2.484E+02	 0.000E+00	 0.000E+00	 0.000E+00	-7.306E+00	 4.575E-01	-1.919E-01	-7.974E-02	 2.138E-01	 1.355E+00	 2.783E-01	 7.240E+00	 0.000E+00
    5.3360	 1.188E+01	 0.000E+00	 1.670E+00	 2.484E+02	 0.000E+00	 0.000E+00	 0.000E+00	-7.316E+00	 4.514E-01	-1.730E-01	-8.784E-02	 2.104E-01	 1.356E+00	 2.783E-01	 7.241E+00	 0.000E+00
    5.3440	 1.188E+01	 0.000E+00	 1.670E+00	 2.485E+02	 0.000E+00	 0.000E+00	 0.000E+00	-7.327E+00	 4.430E-01	-1.505E-01	-8.895E-02	 2.076E-01	 1.357E+00	 2.783E-01	 7.242E+00	 0.000E+00
    5.3520	 1.188E+01	 0.000E+00	 1.670E+00	 2.485E+02	 0.000E+00	 0.000E+00	 0.000E+00	-7.338E+00	 4.331E-01	-1.255E-01	-8.257E-02	 2.055E-01	 1.358E+00	 2.784E-01	 7.244E+00	 0.000E+00
    5.3600	 1.188E+01	 0.000E+00	 1.670E+00	 2.485E+02	 0.000E+00	 0.000E+00	 0.000E+00	-7.349E+00	 4.217E-01	-9.907E-02	-6.936E-02	 2.044E-01	 1.358E+00	 2.784E-01	 7.245E+00	 0.000E+00
    5.3680	 1.188E+01	 0.000E+00	 1.670E+00	 2.485E+02	 0.000E+00	 0.000E+00	 0.000E+00	-7.359E+00	 4.091E-01	-7.265E-02	-5.045E-02	 2.046E-01	 1.358E+00	 2.784E-01	 7.246E+00	 0.000E+00
    5.3760	 1.188E+01	 0.000E+00	 1.670E+00	 2.485E+02	 0.000E+00	 0.000E+00	 0.000E+00	-7.370E+00	 3.960E-01	-4.768E-02	-2.696E-02	 2.060E-01	 1.357E+00	 2.784E-01	 7.247E+00	 0.000E+00
    5.3840	 1.188E+01	 0.000E+00	 1.670E+00	 2.486E+02	 0.000E+00	 0.000E+00	 0.000E+00	-7.381E+00	 3.824E-01	-2.507E-02	-8.948E-05	 2.083E-01	 1.356E+00	 2.785E-01	 7.248E+00	 0.000E+00
    5.3920	 1.188E+01	 0.000E+00	 1.670E+00	 2.486E+02	 0.000E+00	 0.000E+00	 0.000E+00	-7.391E+00	 3.694E-01	-5.555E-03	 2.925E-02	 2.113E-01	 1.355E+00	 2.785E-01	 7.249E+00	 0.000E+00
    5.4000	 1.188E+01	 0.000E+00	 1.670E+00	 2.486E+02	 0.000E+00	 0.000E+00	 0.000E+00	-7.402E+00	 3.578E-01	 1.034E-02	 6.013E-02	 2.149E-01	 1.354E+00	 2.785E-01	 7.250E+00	 0.000E+00
    5.4080	 1.188E+01	 0.000E+00	 1.670E+00	 2.486E+02	 0.000E+00	 0.000E+00	 0.000E+00	-7.413E+00	 3.485E-01	 2.206E-02	 9.162E-02	 2.192E-01	 1.355E+00	 2.785E-01	 7.251E+00	 0.000E+00
    5.4160	 1.188E+01	 0.000E+00	 1.670E+00	 2.486E+02	 0.000E+00	 0.000E+00	 0.000E+00	-7.423E+00	 3.412E-01	 2.886E-02	 1.222E-01	 2.242E-01	 1.356E+00	 2.785E-01	 7.252E+00	 0.000E+00
    5.4240	 1.188E+01	 0.000E+00	 1.670E+00	 2.486E+02	 0.000E+00	 0.000E+00	 0.000E+00	-7.434E+00	 3.363E-01	 2.992E-02	 1.503E-01	 2.295E-01	 1.357E+00	 2.786E-01	 7.253E+00	 0.000E+00
    5.4320	 1.188E+01	 0.000E+00	 1.670E+00	 2.487E+02	 0.000E+00	 0.000E+00	 0.000E+00	-7.444E+00	 3.342E-01	 2.497E-02	 1.744E-01	 2.345E-01	 1.358E+00	 2.786E-01	 7.255E+00	 0.000E+00
    5.4400	 1.188E+01	 0.000E+00	 1.670E+00	 2.487E+02	 0.000E+00	 0.000E+00	 0.000E+00	-7.455E+00	 3.351E-01	 1.433E-02	 1.935E-01	 2.390E-01	 1.358E+00	 2.786E-01	 7.256E+00	 0.000E+00
    5.4480	 1.188E+01	 0.000E+00	 1.670E+00	 2.487E+02	 0.000E+00	 0.000E+00	 0.000E+00	-7.465E+00	 3.393E-01	-1.315E-03	 2.068E-01	 2.427E-01	 1.358E+00	 2.786E-01	 7.257E+00	 0.000E+00
    5.4560	 1.188E+01	 0.000E+00	 1.670E+00	 2.487E+02	 0.000E+00	 0.000E+00	 0.000E+00	-7.475E+00	 3.466E-01	-2.107E-02	 2.136E-01	 2.457E-01	 1.358E+00	 2.787E-01	 7.258E+00	 0.000E+00
    5.4640	 1.188E+01	 0.000E+00	 1.670E+00	 2.487E+02	 0.000E+00	 0.000E+00	 0.000E+00	-7.485E+00	 3.558E-01	-4.374E-02	 2.139E-01	 2.482E-01	 1.356E+00	 2.787E-01	 7.259E+00	 0.000E+00
    5.4720	 1.188E+01	 0.000E+00	 1.670E+00	 2.488E+02	 0.000E+00	 0.000E+00	 0.000E+00	-7.496E+00	 3.663E-01	-6.836E-02	 2.082E-01	 2.501E-01	 1.355E+00	 2.787E-01	 7.260E+00	 0.000E+00
    5.4800	 1.188E+01	 0.000E+00	 1.670E+00	 2.488E+02	 0.000E+00	 0.000E+00	 0.000E+00	-7.506E+00	 3.781E-01	-9.421E-02	 1.967E-01	 2.513E-01	 1.354E+00	 2.787E-01	 7.261E+00	 0.000E+00
    5.4880	 1.188E+01	 0.000E+00	 1.670E+00	 2.488E+02	 0.000E+00	 0.000E+00	 0.000E+00	-7.517E+00	 3.913E-01	-1.205E-01	 1.800E-01	 2.516E-01	 1.355E+00	 2.787E-01	 7.262E+00	 0.000E+00
    5.4960	 1.188E+01	 0.000E+00	 1.670E+00	 2.488E+02	 0.000E+00	 0.000E+00	 0.000E+00	-7.527E+00	 4.056E-01	-1.460E-01	 1.583E-01	 2.509E-01	 1.356E+00	 2.788E-01	 7.263E+00	 0.000E+00
    5.5040	 1.188E+01	 0.000E+00	 1.670E+00	 2.488E+02	 0.000E+00	 0.000E+00	 0.000E+00	-7.537E+00	 4.199E-01	-1.695E-01	 1.320E-01	 2.493E-01	 1.357E+00	 2.788E-01	 7.264E+00	 0.000E+00
    5.5120	 1.188E+01	 0.000E+00	 1.670E+00	 2.488E+02	 0.000E+00	 0.000E+00	 0.000E+00	-7.547E+00	 4.330E-01	-1.897E-01	 1.024E-01	 2.469E-01	 1.358E+00	 2.788E-01	 7.265E+00	 0.000E+00
    5.5200	 1.188E+01	 0.000E+00	 1.670E+00	 2.489E+02	 0.000E+00	 0.000E+00	 0.000E+00	-7.557E+00	 4.442E-01	-2.058E-01	 7.061E-02	 2.437E-01	 1.358E+00	 2.788E-01	 7.267E+00	 0.000E+00
    5.5280	 1.188E+01	 0.000E+00	 1.670E+00	 2.489E+02	 0.000E+00	 0.000E+00	 0.000E+00	-7.567E+00	 4.529E-01	-2.171E-01	 3.858E-02	 2.398E-01	 1.358E+00	 2.789E-01	 7.268E+00	 0.000E+00
    5.5360	 1.188E+01	 0.000E+00	 1.670E+00	 2.489E+02	 0.000E+00	 0.000E+00	 0.000E+00	-7.577E+00	 4.588E-01	-2.230E-01	 8.231E-03	 2.351E-01	 1.358E+00	 2.789E-01	 7.269E+00	 0.000E+00
    5.5440	 1.188E+01	 0.000E+00	 1.670E+00	 2.489E+02	 0.000E+00	 0.000E+00	 0.000E+00	-7.587E+00	 4.623E-01	-2.234E-01	-1.917E-02	 2.298E-01	 1.356E+00	 2.789E-01	 7.269E+00	 0.000E+00
    5.5520	 1.188E+01	 0.000E+00	 1.670E+00	 2.489E+02	 0.000E+00	 0.000E+00	 0.000E+00	-7.597E+00	 4.640E-01	-2.187E-01	-4.293E-02	 2.243E-01	 1.355E+00	 2.789E-01	 7.270E+00	 0.000E+00
    5.5600	 1.188E+01	 0.000E+00	 1.670E+00	 2.489E+02	 0.000E+00	 0.000E+00	 0.000E+00	-7.607E+00	 4.637E-01	-2.093E-01	-6.270E-02	 2.190E-01	 1.354E+00	 2.789E-01	 7.271E+00	 0.000E+00
    5.5680	 1.188E+01	 0.000E+00	 1.670E+00	 2.490E+02	 0.000E+00	 0.000E+00	 0.000E+00	-7.617E+00	 4.609E-01	-1.953E-01	-7.774E-02	 2.143E-01	 1.354E+00	 2.789E-01	 7.272E+00	 0.000E+00
    5.5760	 1.188E+01	 0.000E+00	 1.670E+00	 2.490E+02	 0.000E+00	 0.000E+00	 0.000E+00	-7.627E+00	 4.556E-01	-1.771E-01	-8.691E-02	 2.103E-01	 1.355E+00	 2.790E-01	 7.273E+00	 0.000E+00
    5.5840	 1.188E+01	 0.000E+00	 1.670E+00	 2.490E+02	 0.000E+00	 0.000E+00	 0.000E+00	-7.637E+00	 4.479E-01	-1.551E-01	-8.923E-02	 2.069E-01	 1.357E+00	 2.790E-01	 7.275E+00	 0.000E+00
    5.5920	 1.188E+01	 0.000E+00	 1.670E+00	 2.490E+02	 0.000E+00	 0.000E+00	 0.000E+00	-7.647E+00	 4.382E-01	-1.303E-01	-8.414E-02	 2.043E-01	 1.358E+00	 2.790E-01	 7.276E+00	 0.000E+00
    5.6000	 1.188E+01	 0.000E+00	 1.670E+00	 2.490E+02	 0.000E+00	 0.000E+00	 0.000E+00	-7.657E+00	 4.268E-01	-1.040E-01	-7.208E-02	 2.027E-01	 1.358E+00	 2.791E-01	 7.277E+00	 0.000E+00
    5.6080	 1.188E+01	 0.000E+00	 1.670E+00	 2.490E+02	 0.000E+00	 0.000E+00	 0.000E+00	-7.666E+00	 4.141E-01	-7.735E-02	-5.410E-02	 2.025E-01	 1.358E+00	 2.791E-01	 7.278E+00	 0.000E+00
    5.6160	 1.188E+01	 0.000E+00	 1.670E+00	 2.491E+02	 0.000E+00	 0.000E+00	 0.000E+00	-7.676E+00	 4.007E-01	-5.194E-02	-3.129E-02	 2.034E-01	 1.358E+00	 2.791E-01	 7.279E+00	 0.000E+00
    5.6240	 1.188E+01	 0.000E+00	 1.670E+00	 2.491E+02	 0.000E+00	 0.000E+00	 0.000E+00	-7.686E+00	 3.868E-01	-2.878E-02	-4.825E-03	 2.054E-01	 1.356E+00	 2.791E-01	 7.280E+00	 0.000E+00
    5.6320	 1.188E+01	 0.000E+00	 1.670E+00	 2.491E+02	 0.000E+00	 0.000E+00	 0.000E+00	-7.695E+00	 3.731E-01	-8.605E-03	 2.431E-02	 2.081E-01	 1.355E+00	 2.791E-01	 7.281E+00	 0.000E+00
    5.6400	 1.188E+01	 0.000E+00	 1.670E+00	 2.491E+02	 0.000E+00	 0.000E+00	 0.000E+00	-7.705E+00	 3.606E-01	 8.012E-03	 5.518E-02	 2.117E-01	 1.354E+00	 2.791E-01	 7.281E+00	 0.000E+00
    5.6480	 1.188E+01	 0.000E+00	 1.670E+00	 2.491E+02	 0.000E+00	 0.000E+00	 0.000E+00	-7.715E+00	 3.502E-01	 2.053E-02	 8.680E-02	 2.161E-01	 1.354E+00	 2.791E-01	 7.282E+00	 0.000E+00
    5.6560	 1.188E+01	 0.000E+00	 1.670E+00	 2.491E+02	 0.000E+00	 0.000E+00	 0.000E+00	-7.725E+00	 3.419E-01	 2.819E-02	 1.178E-01	 2.212E-01	 1.355E+00	 2.792E-01	 7.284E+00	 0.000E+00
    5.6640	 1.188E+01	 0.000E+00	 1.670E+00	 2.492E+02	 0.000E+00	 0.000E+00	 0.000E+00	-7.734E+00	 3.360E-01	 3.017E-02	 1.463E-01	 2.267E-01	 1.357E+00	 2.792E-01	 7.285E+00	 0.000E+00
    5.6720	 1.188E+01	 0.000E+00	 1.670E+00	 2.492E+02	 0.000E+00	 0.000E+00	 0.000E+00	-7.744E+00	 3.329E-01	 2.616E-02	 1.712E-01	 2.321E-01	 1.358E+00	 2.792E-01	 7.286E+00	 0.000E+00
    5.6800	 1.188E+01	 0.000E+00	 1.670E+00	 2.492E+02	 0.000E+00	 0.000E+00	 0.000E+00	-7.753E+00	 3.329E-01	 1.637E-02	 1.912E-01	 2.370E-01	 1.358E+00	 2.793E-01	 7.287E+00	 0.000E+00
    5.6880	 1.188E+01	 0.000E+00	 1.670E+00	 2.492E+02	 0.000E+00	 0.000E+00	 0.000E+00	-7.763E+00	 3.363E-01	 1.444E-03	 2.056E-01	 2.413E-01	 1.358E+00	 2.793E-01	 7.288E+00	 0.000E+00
    5.6960	 1.188E+01	 0.000E+00	 1.670E+00	 2.492E+02	 0.000E+00	 0.000E+00	 0.000E+00	-7.772E+00	 3.427E-01	-1.777E-02	 2.135E-01	 2.449E-01	 1.358E+00	 2.793E-01	 7.289E+00	 0.000E+00
    5.7040	 1.188E+01	 0.000E+00	 1.670E+00	 2.492E+02	 0.000E+00	 0.000E+00	 0.000E+00	-7.781E+00	 3.513E-01	-4.009E-02	 2.149E-01	 2.478E-01	 1.356E+00	 2.793E-01	 7.290E+00	 0.000E+00
    5.7120	 1.188E+01	 0.000E+00	 1.670E+00	 2.493E+02	 0.000E+00	 0.000E+00	 0.000E+00	-7.791E+00	 3.615E-01	-6.456E-02	 2.099E-01	 2.502E-01	 1.355E+00	 2.793E-01	 7.291E+00	 0.000E+00
    5.7200	 1.188E+01	 0.000E+00	 1.670E+00	 2.493E+02	 0.000E+00	 0.000E+00	 0.000E+00	-7.800E+00	 3.732E-01	-9.041E-02	 1.991E-01	 2.519E-01	 1.354E+00	 2.793E-01	 7.291E+00	 0.000E+00
    5.7280	 1.188E+01	 0.000E+00	 1.670E+00	 2.493E+02	 0.000E+00	 0.000E+00	 0.000E+00	-7.810E+00	 3.865E-01	-1.168E-01	 1.829E-01	 2.526E-01	 1.354E+00	 2.793E-01	 7.292E+00	 0.000E+00
    5.7360	 1.188E+01	 0.000E+00	 1.670E+00	 2.493E+02	 0.000E+00	 0.000E+00	 0.000E+00	-7.819E+00	 4.011E-01	-1.426E-01	 1.617E-01	 2.523E-01	 1.355E+00	 2.794E-01	 7.294E+00	 0.000E+00
    5.7440	 1.188E+01	 0.000E+00	 1.670E+00	 2.493E+02	 0.000E+00	 0.000E+00	 0.000E+00	-7.829E+00	 4.159E-01	-1.665E-01	 1.359E-01	 2.510E-01	 1.357E+00	 2.794E-01	 7.295E+00	 0.000E+00
    5.7520	 1.188E+01	 0.000E+00	 1.670E+00	 2.493E+02	 0.000E+00	 0.000E+00	 0.000E+00	-7.838E+00	 4.297E-01	-1.873E-01	 1.065E-01	 2.487E-01	 1.358E+00	 2.794E-01	 7.296E+00	 0.000E+00
    5.7600	 1.188E+01	 0.000E+00	 1.670E+00	 2.493E+02	 0.000E+00	 0.000E+00	 0.000E+00	-7.847E+00	 4.417E-01	-2.041E-01	 7.485E-02	 2.456E-01	 1.358E+00	 2.794E-01	 7.297E+00	 0.000E+00
    5.7680	 1.188E+01	 0.000E+00	 1.670E+00	 2.494E+02	 0.000E+00	 0.000E+00	 0.000E+00	-7.856E+00	 4.514E-01	-2.162E-01	 4.265E-02	 2.416E-01	 1.358E+00	 2.795E-01	 7.298E+00	 0.000E+00
    5.7760	 1.188E+01	 0.000E+00	 1.670E+00	 2.494E+02	 0.000E+00	 0.000E+00	 0.000E+00	-7.865E+00	 4.584E-01	-2.229E-01	 1.184E-02	 2.368E-01	 1.358E+00	 2.795E-01	 7.299E+00	 0.000E+00
    5.7840	 1.188E+01	 0.000E+00	 1.670E+00	 2.494E+02	 0.000E+00	 0.000E+00	 0.000E+00	-7.874E+00	 4.628E-01	-2.241E-01	-1.609E-02	 2.314E-01	 1.356E+00	 2.795E-01	 7.299E+00	 0.000E+00
    5.7920	 1.188E+01	 0.000E+00	 1.670E+00	 2.494E+02	 0.000E+00	 0.000E+00	 0.000E+00	-7.883E+00	 4.653E-01	-2.200E-01	-4.041E-02	 2.255E-01	 1.355E+00	 2.795E-01	 7.300E+00	 0.000E+00
    5.8000	 1.188E+01	 0.000E+00	 1.670E+00	 2.494E+02	 0.000E+00	 0.000E+00	 0.000E+00	-7.893E+00	 4.657E-01	-2.111E-01	-6.073E-02	 2.198E-01	 1.354E+00	 2.795E-01	 7.301E+00	 0.000E+00
    5.8080	 1.188E+01	 0.000E+00	 1.670E+00	 2.494E+02	 0.000E+00	 0.000E+00	 0.000E+00	-7.902E+00	 4.636E-01	-1.976E-01	-7.636E-02	 2.147E-01	 1.354E+00	 2.795E-01	 7.302E+00	 0.000E+00
    5.8160	 1.188E+01	 0.000E+00	 1.670E+00	 2.495E+02	 0.000E+00	 0.000E+00	 0.000E+00	-7.911E+00	 4.590E-01	-1.798E-01	-8.621E-02	 2.102E-01	 1.355E+00	 2.796E-01	 7.303E+00	 0.000E+00
    5.8240	 1.188E+01	 0.000E+00	 1.670E+00	 2.495E+02	 0.000E+00	 0.000E+00	 0.000E+00	-7.920E+00	 4.518E-01	-1.582E-01	-8.930E-02	 2.063E-01	 1.357E+00	 2.796E-01	 7.304E+00	 0.000E+00
    5.8320	 1.188E+01	 0.000E+00	 1.670E+00	 2.495E+02	 0.000E+00	 0.000E+00	 0.000E+00	-7.929E+00	 4.423E-01	-1.336E-01	-8.504E-02	 2.033E-01	 1.357E+00	 2.796E-01	 7.305E+00	 0.000E+00
    5.8400	 1.188E+01	 0.000E+00	 1.670E+00	 2.495E+02	 0.000E+00	 0.000E+00	 0.000E+00	-7.938E+00	 4.309E-01	-1.072E-01	-7.375E-02	 2.013E-01	 1.358E+00	 2.796E-01	 7.306E+00	 0.000E+00
    5.8480	 1.188E+01	 0.000E+00	 1.670E+00	 2.495E+02	 0.000E+00	 0.000E+00	 0.000E+00	-7.947E+00	 4.181E-01	-8.046E-02	-5.637E-02	 2.006E-01	 1.358E+00	 2.797E-01	 7.307E+00	 0.000E+00
    5.8560	 1.188E+01	 0.000E+00	 1.670E+00	 2.495E+02	 0.000E+00	 0.000E+00	 0.000E+00	-7.956E+00	 4.044E-01	-5.473E-02	-3.401E-02	 2.012E-01	 1.358E+00	 2.797E-01	 7.308E+00	 0.000E+00
    5.8640	 1.188E+01	 0.000E+00	 1.670E+00	 2.495E+02	 0.000E+00	 0.000E+00	 0.000E+00	-7.964E+00	 3.902E-01	-3.118E-02	-7.790E-03	 2.029E-01	 1.356E+00	 2.797E-01	 7.309E+00	 0.000E+00
    5.8720	 1.188E+01	 0.000E+00	 1.670E+00	 2.496E+02	 0.000E+00	 0.000E+00	 0.000E+00	-7.973E+00	 3.759E-01	-1.057E-02	 2.124E-02	 2.054E-01	 1.355E+00	 2.797E-01	 7.310E+00	 0.000E+00
    5.8800	 1.188E+01	 0.000E+00	 1.670E+00	 2.496E+02	 0.000E+00	 0.000E+00	 0.000E+00	-7.982E+00	 3.628E-01	 6.509E-03	 5.212E-02	 2.089E-01	 1.354E+00	 2.797E-01	 7.310E+00	 0.000E+00
    5.8880	 1.188E+01	 0.000E+00	 1.670E+00	 2.496E+02	 0.000E+00	 0.000E+00	 0.000E+00	-7.991E+00	 3.515E-01	 1.951E-02	 8.383E-02	 2.134E-01	 1.354E+00	 2.797E-01	 7.311E+00	 0.000E+00
    5.8960	 1.188E+01	 0.000E+00	 1.670E+00	 2.496E+02	 0.000E+00	 0.000E+00	 0.000E+00	-8.000E+00	 3.425E-01	 2.767E-02	 1.150E-01	 2.186E-01	 1.355E+00	 2.798E-01	 7.312E+00	 0.000E+00
    5.9040	 1.188E+01	 0.000E+00	 1.670E+00	 2.496E+02	 0.000E+00	 0.000E+00	 0.000E+00	-8.009E+00	 3.356E-01	 3.025E-02	 1.440E-01	 2.244E-01	 1.356E+00	 2.798E-01	 7.313E+00	 0.000E+00
    5.9120	 1.188E+01	 0.000E+00	 1.670E+00	 2.496E+02	 0.000E+00	 0.000E+00	 0.000E+00	-8.018E+00	 3.318E-01	 2.682E-02	 1.693E-01	 2.301E-01	 1.357E+00	 2.798E-01	 7.315E+00	 0.000E+00
    5.9200	 1.188E+01	 0.000E+00	 1.670E+00	 2.497E+02	 0.000E+00	 0.000E+00	 0.000E+00	-8.026E+00	 3.311E-01	 1.756E-02	 1.899E-01	 2.354E-01	 1.358E+00	 2.798E-01	 7.316E+00	 0.000E+00
    5.9280	 1.188E+01	 0.000E+00	 1.670E+00	 2.497E+02	 0.000E+00	 0.000E+00	 0.000E+00	-8.035E+00	 3.339E-01	 3.101E-03	 2.050E-01	 2.401E-01	 1.358E+00	 2.798E-01	 7.317E+00	 0.000E+00
    5.9360	 1.188E+01	 0.000E+00	 1.670E+00	 2.497E+02	 0.000E+00	 0.000E+00	 0.000E+00	-8.043E+00	 3.397E-01	-1.580E-02	 2.136E-01	 2.442E-01	 1.358E+00	 2.799E-01	 7.317E+00	 0.000E+00
    5.9440	 1.188E+01	 0.000E+00	 1.670E+00	 2.497E+02	 0.000E+00	 0.000E+00	 0.000E+00	-8.052E+00	 3.478E-01	-3.791E-02	 2.155E-01	 2.476E-01	 1.356E+00	 2.799E-01	 7.318E+00	 0.000E+00
    5.9520	 1.188E+01	 0.000E+00	 1.670E+00	 2.497E+02	 0.000E+00	 0.000E+00	 0.000E+00	-8.060E+00	 3.577E-01	-6.231E-02	 2.110E-01	 2.503E-01	 1.355E+00	 2.799E-01	 7.319E+00	 0.000E+00
    5.9600	 1.188E+01	 0.000E+00	 1.670E+00	 2.497E+02	 0.000E+00	 0.000E+00	 0.000E+00	-8.069E+00	 3.694E-01	-8.818E-02	 2.006E-01	 2.524E-01	 1.354E+00	 2.799E-01	 7.320E+00	 0.000E+00
    5.9680	 1.188E+01	 0.000E+00	 1.670E+00	 2.497E+02	 0.000E+00	 0.000E+00	 0.000E+00	-8.078E+00	 3.828E-01	-1.146E-01	 1.847E-01	 2.535E-01	 1.354E+00	 2.799E-01	 7.320E+00	 0.000E+00
    5.9760	 1.188E+01	 0.000E+00	 1.670E+00	 2.497E+02	 0.000E+00	 0.000E+00	 0.000E+00	-8.086E+00	 3.976E-01	-1.407E-01	 1.637E-01	 2.535E-01	 1.355E+00	 2.799E-01	 7.322E+00	 0.000E+00
    5.9840	 1.188E+01	 0.000E+00	 1.670E+00	 2.498E+02	 0.000E+00	 0.000E+00	 0.000E+00	-8.095E+00	 4.128E-01	-1.648E-01	 1.381E-01	 2.524E-01	 1.356E+00	 2.800E-01	 7.323E+00	 0.000E+00
    5.9920	 1.188E+01	 0.000E+00	 1.670E+00	 2.498E+02	 0.000E+00	 0.000E+00	 0.000E+00	-8.103E+00	 4.271E-01	-1.860E-01	 1.089E-01	 2.502E-01	 1.357E+00	 2.800E-01	 7.324E+00	 0.000E+00
    6.0000	 1.188E+01	 0.000E+00	 1.670E+00	 2.498E+02	 0.000E+00	 0.000E+00	 0.000E+00	-8.112E+00	 4.397E-01	-2.032E-01	 7.721E-02	 2.471E-01	 1.358E+00	 2.800E-01	 7.325E+00	 0.000E+00
    6.0080	 1.188E+01	 0.000E+00	 1.670E+00	 2.498E+02	 0.000E+00	 0.000E+00	 0.000E+00	-8.120E+00	 4.502E-01	-2.158E-01	 4.489E-02	 2.430E-01	 1.358E+00	 2.800E-01	 7.326E+00	 0.000E+00
    6.0160	 1.188E+01	 0.000E+00	 1.670E+00	 2.498E+02	 0.000E+00	 0.000E+00	 0.000E+00	-8.128E+00	 4.582E-01	-2.230E-01	 1.377E-02	 2.381E-01	 1.358E+00	 2.800E-01	 7.326E+00	 0.000E+00
    6.0240	 1.188E+01	 0.000E+00	 1.670E+00	 2.498E+02	 0.000E+00	 0.000E+00	 0.000E+00	-8.137E+00	 4.634E-01	-2.246E-01	-1.449E-02	 2.325E-01	 1.356E+00	 2.800E-01	 7.327E+00	 0.000E+00
    6.0320	 1.188E+01	 0.000E+00	 1.670E+00	 2.499E+02	 0.000E+00	 0.000E+00	 0.000E+00	-8.145E+00	 4.664E-01	-2.209E-01	-3.913E-02	 2.264E-01	 1.355E+00	 2.801E-01	 7.328E+00	 0.000E+00
    6.0400	 1.188E+01	 0.000E+00	 1.670E+00	 2.499E+02	 0.000E+00	 0.000E+00	 0.000E+00	-8.153E+00	 4.674E-01	-2.122E-01	-5.976E-02	 2.204E-01	 1.354E+00	 2.801E-01	 7.328E+00	 0.000E+00
    6.0480	 1.188E+01	 0.000E+00	 1.670E+00	 2.499E+02	 0.000E+00	 0.000E+00	 0.000E+00	-8.162E+00	 4.659E-01	-1.989E-01	-7.567E-02	 2.148E-01	 1.354E+00	 2.801E-01	 7.329E+00	 0.000E+00
    6.0560	 1.188E+01	 0.000E+00	 1.670E+00	 2.499E+02	 0.000E+00	 0.000E+00	 0.000E+00	-8.170E+00	 4.617E-01	-1.813E-01	-8.584E-02	 2.098E-01	 1.355E+00	 2.801E-01	 7.330E+00	 0.000E+00
    6.0640	 1.188E+01	 0.000E+00	 1.670E+00	 2.499E+02	 0.000E+00	 0.000E+00	 0.000E+00	-8.178E+00	 4.549E-01	-1.598E-01	-8.927E-02	 2.056E-01	 1.356E+00	 2.801E-01	 7.331E+00	 0.000E+00
    6.0720	 1.188E+01	 0.000E+00	 1.670E+00	 2.499E+02	 0.000E+00	 0.000E+00	 0.000E+00	-8.187E+00	 4.456E-01	-1.353E-01	-8.543E-02	 2.022E-01	 1.357E+00	 2.802E-01	 7.332E+00	 0.000E+00
    6.0800	 1.188E+01	 0.000E+00	 1.670E+00	 2.499E+02	 0.000E+00	 0.000E+00	 0.000E+00	-8.195E+00	 4.342E-01	-1.089E-01	-7.453E-02	 1.999E-01	 1.358E+00	 2.802E-01	 7.333E+00	 0.000E+00
    6.0880	 1.188E+01	 0.000E+00	 1.670E+00	 2.500E+02	 0.000E+00	 0.000E+00	 0.000E+00	-8.203E+00	 4.211E-01	-8.204E-02	-5.744E-02	 1.990E-01	 1.358E+00	 2.802E-01	 7.334E+00	 0.000E+00
    6.0960	 1.188E+01	 0.000E+00	 1.670E+00	 2.500E+02	 0.000E+00	 0.000E+00	 0.000E+00	-8.211E+00	 4.072E-01	-5.611E-02	-3.529E-02	 1.993E-01	 1.358E+00	 2.802E-01	 7.335E+00	 0.000E+00
    6.1040	 1.188E+01	 0.000E+00	 1.670E+00	 2.500E+02	 0.000E+00	 0.000E+00	 0.000E+00	-8.219E+00	 3.926E-01	-3.234E-02	-9.169E-03	 2.007E-01	 1.356E+00	 2.802E-01	 7.336E+00	 0.000E+00
    6.1120	 1.188E+01	 0.000E+00	 1.670E+00	 2.500E+02	 0.000E+00	 0.000E+00	 0.000E+00	-8.227E+00	 3.780E-01	-1.149E-02	 1.986E-02	 2.031E-01	 1.355E+00	 2.802E-01	 7.336E+00	 0.000E+00
    6.1200	 1.188E+01	 0.000E+00	 1.670E+00	 2.500E+02	 0.000E+00	 0.000E+00	 0.000E+00	-8.235E+00	 3.643E-01	 5.809E-03	 5.081E-02	 2.066E-01	 1.354E+00	 2.802E-01	 7.337E+00	 0.000E+00
    6.1280	 1.188E+01	 0.000E+00	 1.670E+00	 2.500E+02	 0.000E+00	 0.000E+00	 0.000E+00	-8.243E+00	 3.523E-01	 1.906E-02	 8.265E-02	 2.111E-01	 1.354E+00	 2.803E-01	 7.338E+00	 0.000E+00
    6.1360	 1.188E+01	 0.000E+00	 1.670E+00	 2.500E+02	 0.000E+00	 0.000E+00	 0.000E+00	-8.251E+00	 3.424E-01	 2.748E-02	 1.140E-01	 2.165E-01	 1.355E+00	 2.803E-01	 7.339E+00	 0.000E+00
    6.1440	 1.188E+01	 0.000E+00	 1.670E+00	 2.500E+02	 0.000E+00	 0.000E+00	 0.000E+00	-8.260E+00	 3.351E-01	 3.029E-02	 1.431E-01	 2.225E-01	 1.356E+00	 2.803E-01	 7.340E+00	 0.000E+00
    6.1520	 1.188E+01	 0.000E+00	 1.670E+00	 2.501E+02	 0.000E+00	 0.000E+00	 0.000E+00	-8.267E+00	 3.307E-01	 2.711E-02	 1.687E-01	 2.284E-01	 1.357E+00	 2.803E-01	 7.341E+00	 0.000E+00
    6.1600	 1.188E+01	 0.000E+00	 1.670E+00	 2.501E+02	 0.000E+00	 0.000E+00	 0.000E+00	-8.275E+00	 3.296E-01	 1.808E-02	 1.895E-01	 2.341E-01	 1.358E+00	 2.803E-01	 7.342E+00	 0.000E+00
    6.1680	 1.188E+01	 0.000E+00	 1.670E+00	 2.501E+02	 0.000E+00	 0.000E+00	 0.000E+00	-8.283E+00	 3.319E-01	 3.777E-03	 2.049E-01	 2.392E-01	 1.358E+00	 2.804E-01	 7.343E+00	 0.000E+00
    6.1760	 1.188E+01	 0.000E+00	 1.670E+00	 2.501E+02	 0.000E+00	 0.000E+00	 0.000E+00	-8.291E+00	 3.372E-01	-1.500E-02	 2.138E-01	 2.437E-01	 1.358E+00	 2.804E-01	 7.343E+00	 0.000E+00
    6.1840	 1.188E+01	 0.000E+00	 1.670E+00	 2.501E+02	 0.000E+00	 0.000E+00	 0.000E+00	-8.299E+00	 3.450E-01	-3.702E-02	 2.160E-01	 2.475E-01	 1.356E+00	 2.804E-01	 7.344E+00	 0.000E+00
    6.1920	 1.188E+01	 0.000E+00	 1.670E+00	 2.501E+02	 0.000E+00	 0.000E+00	 0.000E+00	-8.307E+00	 3.547E-01	-6.141E-02	 2.117E-01	 2.506E-01	 1.355E+00	 2.804E-01	 7.345E+00	 0.000E+00
    6.2000	 1.188E+01	 0.000E+00	 1.670E+00	 2.501E+02	 0.000E+00	 0.000E+00	 0.000E+00	-8.315E+00	 3.664E-01	-8.737E-02	 2.013E-01	 2.529E-01	 1.354E+00	 2.804E-01	 7.345E+00	 0.000E+00
    6.2080	 1.188E+01	 0.000E+00	 1.670E+00	 2.502E+02	 0.000E+00	 0.000E+00	 0.000E+00	-8.322E+00	 3.801E-01	-1.139E-01	 1.854E-01	 2.543E-01	 1.354E+00	 2.804E-01	 7.346E+00	 0.000E+00
    6.2160	 1.188E+01	 0.000E+00	 1.670E+00	 2.502E+02	 0.000E+00	 0.000E+00	 0.000E+00	-8.330E+00	 3.951E-01	-1.401E-01	 1.644E-01	 2.545E-01	 1.355E+00	 2.804E-01	 7.347E+00	 0.000E+00
    6.2240	 1.188E+01	 0.000E+00	 1.670E+00	 2.502E+02	 0.000E+00	 0.000E+00	 0.000E+00	-8.338E+00	 4.107E-01	-1.644E-01	 1.388E-01	 2.536E-01	 1.356E+00	 2.805E-01	 7.348E+00	 0.000E+00
    6.2320	 1.188E+01	 0.000E+00	 1.670E+00	 2.502E+02	 0.000E+00	 0.000E+00	 0.000E+00	-8.346E+00	 4.254E-01	-1.857E-01	 1.096E-01	 2.515E-01	 1.357E+00	 2.805E-01	 7.349E+00	 0.000E+00