
Predictions were generated on 09-Jun-2020 at 10:52:56 using BeamDyn




Time	RootFxr   	RootFyr   	RootFzr   	RootMxr   	RootMyr   	RootMzr   	N1Fxl     	N1Fyl     	N1Fzl     	N1Mxl     	N1Myl     	N1Mzl     	TipTDxr   	TipTDyr   	TipTDzr   	TipRDxr   	TipRDyr   	TipRDzr   
(s)	(N)	(N)	(N)	(N-m)	(N-m)	(N-m)	(N)	(N)	(N)	(N-m)	(N-m)	(N-m)	(m)	(m)	(m)	(-)	(-)	(-)
       0.000000	 0.000E+00	-1.044E+04	 0.000E+00	 0.000E+00	 0.000E+00	 0.000E+00	 2.404E+03	-1.016E+04	 0.000E+00	 0.000E+00	 0.000E+00	 0.000E+00	 0.000E+00	 0.000E+00	 0.000E+00	 0.000E+00	 0.000E+00	 0.000E+00
       0.010000	-3.502E+01	-4.277E+04	 7.589E-01	 1.634E+05	-4.529E+01	 5.848E-03	 9.811E+03	-4.163E+04	 7.589E-01	 1.590E+05	 3.756E+04	 5.848E-03	-1.900E-07	-3.971E-04	 1.325E-09	-8.566E-06	-3.080E-06	-5.313E-10
       0.020000	-2.344E+02	-8.129E+04	 8.288E+00	 4.311E+05	-2.202E+03	-1.683E-01	 1.848E+04	-7.916E+04	 8.288E+00	 4.200E+05	 9.709E+04	-1.683E-01	 3.202E-06	-1.728E-03	 7.714E-09	-4.860E-05	-9.955E-06	-4.717E-09
       0.030000	-5.642E+02	-9.742E+04	 2.681E+01	 6.692E+05	-6.969E+03	-1.369E+00	 2.188E+04	-9.493E+04	 2.681E+01	 6.528E+05	 1.473E+05	-1.369E+00	 2.559E-05	-4.330E-03	-3.894E-08	-7.929E-05	-1.425E-05	-1.775E-08
       0.040000	-8.549E+02	-1.049E+05	 5.306E+01	 8.785E+05	-1.289E+04	-4.699E+00	 2.331E+04	-1.023E+05	 5.306E+01	 8.579E+05	 1.897E+05	-4.699E+00	 9.635E-05	-8.521E-03	-4.129E-07	-2.853E-05	-3.789E-06	-5.108E-08
       0.050000	-1.033E+03	-1.129E+05	 8.352E+01	 1.068E+06	-1.919E+04	-1.118E+01	 2.498E+04	-1.101E+05	 8.352E+01	 1.044E+06	 2.271E+05	-1.118E+01	 2.496E-04	-1.401E-02	-1.671E-06	 9.486E-05	 3.501E-05	-1.378E-07
       0.060000	-1.158E+03	-1.195E+05	 1.185E+02	 1.232E+06	-2.596E+04	-2.188E+01	 2.639E+04	-1.166E+05	 1.185E+02	 1.204E+06	 2.582E+05	-2.188E+01	 5.060E-04	-2.004E-02	-4.445E-06	 1.950E-04	 1.112E-04	-3.268E-07
       0.070000	-1.336E+03	-1.229E+05	 1.547E+02	 1.373E+06	-3.348E+04	-3.780E+01	 2.700E+04	-1.199E+05	 1.547E+02	 1.344E+06	 2.835E+05	-3.780E+01	 8.539E-04	-2.596E-02	-9.348E-06	 1.687E-04	 2.248E-04	-5.996E-07
       0.080000	-1.615E+03	-1.251E+05	 1.830E+02	 1.509E+06	-4.164E+04	-5.951E+01	 2.723E+04	-1.221E+05	 1.830E+02	 1.478E+06	 3.069E+05	-5.951E+01	 1.239E-03	-3.171E-02	-1.725E-05	-2.124E-05	 3.649E-04	-7.193E-07
       0.090000	-1.951E+03	-1.287E+05	 1.989E+02	 1.652E+06	-4.978E+04	-8.700E+01	 2.773E+04	-1.257E+05	 1.989E+02	 1.619E+06	 3.318E+05	-8.700E+01	 1.567E-03	-3.800E-02	-2.919E-05	-3.225E-04	 5.109E-04	-1.598E-07
       0.100000	-2.237E+03	-1.338E+05	 2.077E+02	 1.801E+06	-5.703E+04	-1.202E+02	 2.862E+04	-1.307E+05	 2.077E+02	 1.766E+06	 3.591E+05	-1.202E+02	 1.722E-03	-4.611E-02	-4.554E-05	-6.154E-04	 6.359E-04	 1.679E-06
       0.110000	-2.373E+03	-1.390E+05	 2.161E+02	 1.949E+06	-6.267E+04	-1.597E+02	 2.968E+04	-1.358E+05	 2.161E+02	 1.911E+06	 3.875E+05	-1.597E+02	 1.590E-03	-5.744E-02	-6.530E-05	-7.577E-04	 7.128E-04	 4.955E-06
       0.120000	-2.324E+03	-1.430E+05	 2.241E+02	 2.089E+06	-6.651E+04	-2.064E+02	 3.065E+04	-1.397E+05	 2.241E+02	 2.048E+06	 4.161E+05	-2.064E+02	 1.082E-03	-7.313E-02	-8.734E-05	-6.330E-04	 7.202E-04	 8.882E-06
       0.130000	-2.124E+03	-1.459E+05	 2.282E+02	 2.223E+06	-6.889E+04	-2.605E+02	 3.152E+04	-1.425E+05	 2.282E+02	 2.180E+06	 4.447E+05	-2.605E+02	 1.561E-04	-9.372E-02	-1.130E-04	-1.835E-04	 6.464E-04	 1.170E-05
       0.140000	-1.862E+03	-1.487E+05	 2.326E+02	 2.357E+06	-7.054E+04	-3.202E+02	 3.241E+04	-1.451E+05	 2.326E+02	 2.310E+06	 4.740E+05	-3.202E+02	-1.185E-03	-1.191E-01	-1.479E-04	 5.816E-04	 4.901E-04	 1.135E-05
       0.150000	-1.635E+03	-1.523E+05	 2.538E+02	 2.495E+06	-7.225E+04	-3.819E+02	 3.346E+04	-1.486E+05	 2.538E+02	 2.445E+06	 5.041E+05	-3.819E+02	-2.895E-03	-1.487E-01	-2.013E-04	 1.602E-03	 2.591E-04	 6.473E-06
       0.160000	-1.505E+03	-1.570E+05	 3.105E+02	 2.636E+06	-7.456E+04	-4.416E+02	 3.467E+04	-1.531E+05	 3.105E+02	 2.583E+06	 5.343E+05	-4.416E+02	-4.898E-03	-1.814E-01	-2.835E-04	 2.792E-03	-3.348E-05	-2.701E-06
       0.170000	-1.476E+03	-1.620E+05	 4.075E+02	 2.772E+06	-7.756E+04	-4.972E+02	 3.586E+04	-1.580E+05	 4.075E+02	 2.715E+06	 5.626E+05	-4.972E+02	-7.101E-03	-2.164E-01	-4.028E-04	 4.070E-03	-3.717E-04	-1.424E-05
       0.180000	-1.501E+03	-1.660E+05	 5.262E+02	 2.889E+06	-8.102E+04	-5.502E+02	 3.676E+04	-1.619E+05	 5.262E+02	 2.830E+06	 5.861E+05	-5.502E+02	-9.407E-03	-2.527E-01	-5.636E-04	 5.372E-03	-7.398E-04	-2.512E-05
       0.190000	-1.518E+03	-1.675E+05	 6.325E+02	 2.976E+06	-8.458E+04	-6.054E+02	 3.708E+04	-1.634E+05	 6.325E+02	 2.916E+06	 6.027E+05	-6.054E+02	-1.172E-02	-2.896E-01	-7.670E-04	 6.657E-03	-1.123E-03	-3.219E-05
       0.200000	-1.482E+03	-1.656E+05	 6.933E+02	 3.029E+06	-8.804E+04	-6.691E+02	 3.669E+04	-1.615E+05	 6.933E+02	 2.968E+06	 6.115E+05	-6.691E+02	-1.394E-02	-3.266E-01	-1.011E-03	 7.902E-03	-1.509E-03	-3.308E-05
       0.210000	-1.393E+03	-1.607E+05	 6.907E+02	 3.052E+06	-9.155E+04	-7.475E+02	 3.563E+04	-1.567E+05	 6.907E+02	 2.991E+06	 6.135E+05	-7.475E+02	-1.598E-02	-3.634E-01	-1.292E-03	 9.096E-03	-1.884E-03	-2.657E-05
       0.220000	-1.295E+03	-1.539E+05	 6.261E+02	 3.061E+06	-9.554E+04	-8.440E+02	 3.415E+04	-1.500E+05	 6.261E+02	 3.001E+06	 6.116E+05	-8.440E+02	-1.775E-02	-3.995E-01	-1.604E-03	 1.023E-02	-2.239E-03	-1.256E-05
       0.230000	-1.255E+03	-1.470E+05	 5.161E+02	 3.075E+06	-1.006E+05	-9.587E+02	 3.262E+04	-1.434E+05	 5.161E+02	 3.015E+06	 6.099E+05	-9.587E+02	-1.917E-02	-4.350E-01	-1.942E-03	 1.131E-02	-2.563E-03	 8.133E-06
       0.240000	-1.333E+03	-1.420E+05	 3.843E+02	 3.113E+06	-1.073E+05	-1.088E+03	 3.139E+04	-1.385E+05	 3.843E+02	 3.054E+06	 6.121E+05	-1.088E+03	-2.018E-02	-4.696E-01	-2.300E-03	 1.234E-02	-2.847E-03	 3.409E-05
       0.250000	-1.562E+03	-1.401E+05	 2.544E+02	 3.189E+06	-1.159E+05	-1.227E+03	 3.073E+04	-1.367E+05	 2.544E+02	 3.130E+06	 6.213E+05	-1.227E+03	-2.071E-02	-5.033E-01	-2.672E-03	 1.333E-02	-3.085E-03	 6.344E-05
       0.260000	-1.931E+03	-1.418E+05	 1.452E+02	 3.311E+06	-1.263E+05	-1.370E+03	 3.077E+04	-1.385E+05	 1.452E+02	 3.251E+06	 6.392E+05	-1.370E+03	-2.069E-02	-5.359E-01	-3.052E-03	 1.427E-02	-3.268E-03	 9.400E-05
       0.270000	-2.398E+03	-1.470E+05	 6.756E+01	 3.476E+06	-1.379E+05	-1.517E+03	 3.150E+04	-1.436E+05	 6.756E+01	 3.414E+06	 6.658E+05	-1.517E+03	-2.009E-02	-5.673E-01	-3.432E-03	 1.518E-02	-3.390E-03	 1.234E-04
       0.280000	-2.905E+03	-1.548E+05	 2.305E+01	 3.677E+06	-1.502E+05	-1.670E+03	 3.281E+04	-1.513E+05	 2.305E+01	 3.613E+06	 7.003E+05	-1.670E+03	-1.884E-02	-5.972E-01	-3.805E-03	 1.603E-02	-3.442E-03	 1.492E-04
       0.290000	-3.395E+03	-1.644E+05	 4.684E+00	 3.905E+06	-1.626E+05	-1.835E+03	 3.453E+04	-1.607E+05	 4.684E+00	 3.837E+06	 7.406E+05	-1.835E+03	-1.692E-02	-6.253E-01	-4.161E-03	 1.681E-02	-3.418E-03	 1.691E-04
       0.300000	-3.833E+03	-1.747E+05	-1.277E-01	 4.146E+06	-1.745E+05	-2.020E+03	 3.648E+04	-1.709E+05	-1.277E-01	 4.075E+06	 7.846E+05	-2.020E+03	-1.430E-02	-6.511E-01	-4.490E-03	 1.748E-02	-3.311E-03	 1.808E-04
       0.310000	-4.204E+03	-1.850E+05	-5.657E+00	 4.391E+06	-1.856E+05	-2.232E+03	 3.849E+04	-1.810E+05	-5.657E+00	 4.316E+06	 8.301E+05	-2.232E+03	-1.098E-02	-6.744E-01	-4.784E-03	 1.802E-02	-3.118E-03	 1.824E-04
       0.320000	-4.513E+03	-1.947E+05	-2.397E+01	 4.630E+06	-1.958E+05	-2.475E+03	 4.042E+04	-1.905E+05	-2.397E+01	 4.551E+06	 8.753E+05	-2.475E+03	-6.984E-03	-6.950E-01	-5.038E-03	 1.841E-02	-2.842E-03	 1.721E-04
       0.330000	-4.773E+03	-2.034E+05	-6.240E+01	 4.857E+06	-2.049E+05	-2.749E+03	 4.217E+04	-1.990E+05	-6.240E+01	 4.774E+06	 9.186E+05	-2.749E+03	-2.360E-03	-7.130E-01	-5.253E-03	 1.865E-02	-2.488E-03	 1.485E-04
       0.340000	-4.997E+03	-2.110E+05	-1.231E+02	 5.067E+06	-2.130E+05	-3.051E+03	 4.371E+04	-2.065E+05	-1.231E+02	 4.980E+06	 9.591E+05	-3.051E+03	 2.807E-03	-7.286E-01	-5.435E-03	 1.878E-02	-2.072E-03	 1.114E-04
       0.350000	-5.190E+03	-2.175E+05	-2.044E+02	 5.259E+06	-2.198E+05	-3.375E+03	 4.502E+04	-2.129E+05	-2.044E+02	 5.168E+06	 9.966E+05	-3.375E+03	 8.413E-03	-7.425E-01	-5.594E-03	 1.882E-02	-1.610E-03	 6.207E-05
       0.360000	-5.353E+03	-2.231E+05	-3.020E+02	 5.432E+06	-2.254E+05	-3.716E+03	 4.614E+04	-2.183E+05	-3.020E+02	 5.338E+06	 1.031E+06	-3.716E+03	 1.434E-02	-7.551E-01	-5.742E-03	 1.883E-02	-1.127E-03	 3.303E-06
       0.370000	-5.481E+03	-2.280E+05	-4.097E+02	 5.588E+06	-2.296E+05	-4.067E+03	 4.715E+04	-2.231E+05	-4.097E+02	 5.491E+06	 1.063E+06	-4.067E+03	 2.045E-02	-7.671E-01	-5.891E-03	 1.886E-02	-6.461E-04	-6.064E-05
       0.380000	-5.566E+03	-2.325E+05	-5.179E+02	 5.728E+06	-2.323E+05	-4.420E+03	 4.810E+04	-2.275E+05	-5.179E+02	 5.627E+06	 1.092E+06	-4.420E+03	 2.664E-02	-7.789E-01	-6.051E-03	 1.896E-02	-1.889E-04	-1.247E-04
       0.390000	-5.607E+03	-2.368E+05	-6.141E+02	 5.851E+06	-2.333E+05	-4.764E+03	 4.904E+04	-2.317E+05	-6.141E+02	 5.747E+06	 1.120E+06	-4.764E+03	 3.281E-02	-7.908E-01	-6.226E-03	 1.914E-02	 2.260E-04	-1.836E-04
       0.400000	-5.604E+03	-2.407E+05	-6.842E+02	 5.956E+06	-2.326E+05	-5.086E+03	 4.996E+04	-2.356E+05	-6.842E+02	 5.849E+06	 1.145E+06	-5.086E+03	 3.889E-02	-8.030E-01	-6.419E-03	 1.942E-02	 5.856E-04	-2.332E-04
       0.410000	-5.560E+03	-2.442E+05	-7.178E+02	 6.038E+06	-2.303E+05	-5.374E+03	 5.080E+04	-2.389E+05	-7.178E+02	 5.929E+06	 1.166E+06	-5.374E+03	 4.483E-02	-8.154E-01	-6.629E-03	 1.979E-02	 8.835E-04	-2.704E-04
       0.420000	-5.480E+03	-2.466E+05	-7.138E+02	 6.094E+06	-2.264E+05	-5.614E+03	 5.143E+04	-2.413E+05	-7.138E+02	 5.983E+06	 1.183E+06	-5.614E+03	 5.062E-02	-8.277E-01	-6.853E-03	 2.024E-02	 1.119E-03	-2.938E-04
       0.430000	-5.369E+03	-2.475E+05	-6.826E+02	 6.118E+06	-2.209E+05	-5.802E+03	 5.176E+04	-2.421E+05	-6.826E+02	 6.004E+06	 1.193E+06	-5.802E+03	 5.627E-02	-8.395E-01	-7.083E-03	 2.072E-02	 1.298E-03	-3.034E-04
       0.440000	-5.230E+03	-2.466E+05	-6.434E+02	 6.106E+06	-2.139E+05	-5.936E+03	 5.167E+04	-2.411E+05	-6.434E+02	 5.991E+06	 1.197E+06	-5.936E+03	 6.182E-02	-8.505E-01	-7.313E-03	 2.122E-02	 1.428E-03	-3.010E-04
       0.450000	-5.064E+03	-2.435E+05	-6.175E+02	 6.057E+06	-2.054E+05	-6.025E+03	 5.111E+04	-2.381E+05	-6.175E+02	 5.941E+06	 1.194E+06	-6.025E+03	 6.730E-02	-8.602E-01	-7.533E-03	 2.170E-02	 1.521E-03	-2.892E-04
       0.460000	-4.870E+03	-2.383E+05	-6.194E+02	 5.973E+06	-1.955E+05	-6.084E+03	 5.012E+04	-2.330E+05	-6.194E+02	 5.858E+06	 1.185E+06	-6.084E+03	 7.279E-02	-8.683E-01	-7.734E-03	 2.214E-02	 1.589E-03	-2.717E-04
       0.470000	-4.645E+03	-2.315E+05	-6.522E+02	 5.862E+06	-1.841E+05	-6.131E+03	 4.877E+04	-2.264E+05	-6.522E+02	 5.747E+06	 1.170E+06	-6.131E+03	 7.834E-02	-8.744E-01	-7.908E-03	 2.252E-02	 1.644E-03	-2.525E-04
       0.480000	-4.385E+03	-2.237E+05	-7.071E+02	 5.730E+06	-1.713E+05	-6.185E+03	 4.723E+04	-2.187E+05	-7.071E+02	 5.616E+06	 1.152E+06	-6.185E+03	 8.400E-02	-8.783E-01	-8.047E-03	 2.282E-02	 1.699E-03	-2.358E-04
       0.490000	-4.088E+03	-2.156E+05	-7.672E+02	 5.589E+06	-1.571E+05	-6.259E+03	 4.566E+04	-2.108E+05	-7.672E+02	 5.475E+06	 1.134E+06	-6.259E+03	 8.984E-02	-8.799E-01	-8.144E-03	 2.304E-02	 1.764E-03	-2.255E-04
       0.500000	-3.752E+03	-2.080E+05	-8.145E+02	 5.448E+06	-1.416E+05	-6.360E+03	 4.424E+04	-2.033E+05	-8.145E+02	 5.335E+06	 1.116E+06	-6.360E+03	 9.592E-02	-8.791E-01	-8.193E-03	 2.319E-02	 1.851E-03	-2.251E-04
       0.510000	-3.374E+03	-2.015E+05	-8.348E+02	 5.316E+06	-1.248E+05	-6.486E+03	 4.310E+04	-1.969E+05	-8.348E+02	 5.202E+06	 1.102E+06	-6.486E+03	 1.023E-01	-8.756E-01	-8.190E-03	 2.325E-02	 1.968E-03	-2.370E-04
       0.520000	-2.956E+03	-1.965E+05	-8.210E+02	 5.199E+06	-1.068E+05	-6.627E+03	 4.235E+04	-1.919E+05	-8.210E+02	 5.084E+06	 1.093E+06	-6.627E+03	 1.089E-01	-8.695E-01	-8.131E-03	 2.322E-02	 2.126E-03	-2.625E-04
       0.530000	-2.497E+03	-1.931E+05	-7.729E+02	 5.099E+06	-8.763E+04	-6.770E+03	 4.203E+04	-1.885E+05	-7.729E+02	 4.982E+06	 1.088E+06	-6.770E+03	 1.160E-01	-8.606E-01	-8.012E-03	 2.309E-02	 2.334E-03	-3.014E-04
       0.540000	-1.999E+03	-1.914E+05	-6.955E+02	 5.017E+06	-6.746E+04	-6.897E+03	 4.211E+04	-1.867E+05	-6.955E+02	 4.898E+06	 1.089E+06	-6.897E+03	 1.234E-01	-8.487E-01	-7.831E-03	 2.285E-02	 2.597E-03	-3.520E-04
       0.550000	-1.465E+03	-1.910E+05	-5.966E+02	 4.952E+06	-4.636E+04	-6.991E+03	 4.254E+04	-1.862E+05	-5.966E+02	 4.829E+06	 1.095E+06	-6.991E+03	 1.312E-01	-8.337E-01	-7.587E-03	 2.249E-02	 2.921E-03	-4.111E-04
       0.560000	-8.968E+02	-1.916E+05	-4.845E+02	 4.898E+06	-2.445E+04	-7.039E+03	 4.323E+04	-1.866E+05	-4.845E+02	 4.772E+06	 1.104E+06	-7.039E+03	 1.394E-01	-8.156E-01	-7.283E-03	 2.199E-02	 3.307E-03	-4.740E-04
       0.570000	-2.979E+02	-1.928E+05	-3.671E+02	 4.852E+06	-1.824E+03	-7.032E+03	 4.409E+04	-1.877E+05	-3.671E+02	 4.722E+06	 1.115E+06	-7.032E+03	 1.479E-01	-7.944E-01	-6.924E-03	 2.135E-02	 3.755E-03	-5.348E-04
       0.580000	 3.270E+02	-1.942E+05	-2.511E+02	 4.808E+06	 2.140E+04	-6.962E+03	 4.502E+04	-1.889E+05	-2.511E+02	 4.674E+06	 1.128E+06	-6.962E+03	 1.568E-01	-7.702E-01	-6.521E-03	 2.057E-02	 4.257E-03	-5.872E-04
       0.590000	 9.718E+02	-1.956E+05	-1.419E+02	 4.764E+06	 4.509E+04	-6.830E+03	 4.596E+04	-1.901E+05	-1.419E+02	 4.625E+06	 1.140E+06	-6.830E+03	 1.658E-01	-7.433E-01	-6.086E-03	 1.966E-02	 4.804E-03	-6.246E-04
       0.600000	 1.628E+03	-1.967E+05	-4.391E+01	 4.715E+06	 6.911E+04	-6.634E+03	 4.686E+04	-1.910E+05	-4.391E+01	 4.572E+06	 1.153E+06	-6.634E+03	 1.750E-01	-7.142E-01	-5.634E-03	 1.865E-02	 5.383E-03	-6.414E-04
       0.610000	 2.288E+03	-1.975E+05	 3.991E+01	 4.660E+06	 9.333E+04	-6.379E+03	 4.769E+04	-1.917E+05	 3.991E+01	 4.513E+06	 1.163E+06	-6.379E+03	 1.843E-01	-6.832E-01	-5.180E-03	 1.756E-02	 5.979E-03	-6.335E-04
       0.620000	 2.941E+03	-1.980E+05	 1.079E+02	 4.597E+06	 1.176E+05	-6.068E+03	 4.844E+04	-1.920E+05	 1.079E+02	 4.446E+06	 1.173E+06	-6.068E+03	 1.934E-01	-6.511E-01	-4.740E-03	 1.643E-02	 6.574E-03	-5.989E-04
       0.630000	 3.578E+03	-1.982E+05	 1.604E+02	 4.525E+06	 1.418E+05	-5.707E+03	 4.911E+04	-1.921E+05	 1.604E+02	 4.371E+06	 1.180E+06	-5.707E+03	 2.024E-01	-6.183E-01	-4.325E-03	 1.530E-02	 7.152E-03	-5.382E-04
       0.640000	 4.194E+03	-1.982E+05	 1.999E+02	 4.444E+06	 1.658E+05	-5.301E+03	 4.969E+04	-1.919E+05	 1.999E+02	 4.287E+06	 1.184E+06	-5.301E+03	 2.111E-01	-5.855E-01	-3.942E-03	 1.420E-02	 7.698E-03	-4.550E-04
       0.650000	 4.784E+03	-1.977E+05	 2.308E+02	 4.352E+06	 1.895E+05	-4.860E+03	 5.017E+04	-1.913E+05	 2.308E+02	 4.191E+06	 1.186E+06	-4.860E+03	 2.194E-01	-5.531E-01	-3.597E-03	 1.316E-02	 8.198E-03	-3.552E-04
       0.660000	 5.349E+03	-1.968E+05	 2.582E+02	 4.246E+06	 2.129E+05	-4.392E+03	 5.051E+04	-1.903E+05	 2.582E+02	 4.083E+06	 1.184E+06	-4.392E+03	 2.273E-01	-5.214E-01	-3.290E-03	 1.219E-02	 8.645E-03	-2.469E-04
       0.670000	 5.893E+03	-1.952E+05	 2.864E+02	 4.123E+06	 2.360E+05	-3.913E+03	 5.066E+04	-1.886E+05	 2.864E+02	 3.958E+06	 1.179E+06	-3.913E+03	 2.347E-01	-4.907E-01	-3.020E-03	 1.131E-02	 9.032E-03	-1.390E-04
       0.680000	 6.420E+03	-1.925E+05	 3.171E+02	 3.981E+06	 2.588E+05	-3.440E+03	 5.057E+04	-1.859E+05	 3.171E+02	 3.815E+06	 1.168E+06	-3.440E+03	 2.416E-01	-4.613E-01	-2.783E-03	 1.052E-02	 9.359E-03	-4.058E-05
       0.690000	 6.938E+03	-1.887E+05	 3.492E+02	 3.819E+06	 2.813E+05	-2.992E+03	 5.019E+04	-1.821E+05	 3.492E+02	 3.651E+06	 1.153E+06	-2.992E+03	 2.479E-01	-4.330E-01	-2.577E-03	 9.819E-03	 9.628E-03	 4.057E-05
       0.700000	 7.450E+03	-1.835E+05	 3.791E+02	 3.634E+06	 3.034E+05	-2.591E+03	 4.950E+04	-1.769E+05	 3.791E+02	 3.467E+06	 1.132E+06	-2.591E+03	 2.537E-01	-4.060E-01	-2.397E-03	 9.190E-03	 9.843E-03	 9.838E-05
       0.710000	 7.959E+03	-1.770E+05	 4.028E+02	 3.429E+06	 3.251E+05	-2.254E+03	 4.849E+04	-1.704E+05	 4.028E+02	 3.262E+06	 1.106E+06	-2.254E+03	 2.590E-01	-3.801E-01	-2.240E-03	 8.626E-03	 1.001E-02	 1.292E-04
       0.720000	 8.465E+03	-1.692E+05	 4.168E+02	 3.205E+06	 3.463E+05	-1.997E+03	 4.718E+04	-1.627E+05	 4.168E+02	 3.039E+06	 1.075E+06	-1.997E+03	 2.638E-01	-3.554E-01	-2.102E-03	 8.116E-03	 1.014E-02	 1.320E-04
       0.730000	 8.963E+03	-1.604E+05	 4.200E+02	 2.968E+06	 3.669E+05	-1.825E+03	 4.564E+04	-1.540E+05	 4.200E+02	 2.804E+06	 1.040E+06	-1.825E+03	 2.682E-01	-3.315E-01	-1.982E-03	 7.650E-03	 1.024E-02	 1.082E-04
       0.740000	 9.448E+03	-1.510E+05	 4.130E+02	 2.724E+06	 3.866E+05	-1.737E+03	 4.395E+04	-1.447E+05	 4.130E+02	 2.562E+06	 1.003E+06	-1.737E+03	 2.722E-01	-3.086E-01	-1.876E-03	 7.217E-03	 1.033E-02	 6.140E-05
       0.750000	 9.912E+03	-1.414E+05	 3.978E+02	 2.481E+06	 4.052E+05	-1.719E+03	 4.220E+04	-1.353E+05	 3.978E+02	 2.321E+06	 9.654E+05	-1.719E+03	 2.758E-01	-2.865E-01	-1.782E-03	 6.810E-03	 1.040E-02	-3.014E-06
       0.760000	 1.035E+04	-1.322E+05	 3.766E+02	 2.244E+06	 4.226E+05	-1.749E+03	 4.049E+04	-1.262E+05	 3.766E+02	 2.086E+06	 9.278E+05	-1.749E+03	 2.791E-01	-2.651E-01	-1.700E-03	 6.421E-03	 1.046E-02	-7.855E-05
       0.770000	 1.074E+04	-1.236E+05	 3.510E+02	 2.021E+06	 4.385E+05	-1.802E+03	 3.892E+04	-1.178E+05	 3.510E+02	 1.866E+06	 8.920E+05	-1.802E+03	 2.820E-01	-2.442E-01	-1.626E-03	 6.040E-03	 1.054E-02	-1.581E-04
       0.780000	 1.110E+04	-1.162E+05	 3.223E+02	 1.818E+06	 4.527E+05	-1.846E+03	 3.755E+04	-1.105E+05	 3.223E+02	 1.665E+06	 8.590E+05	-1.846E+03	 2.847E-01	-2.238E-01	-1.561E-03	 5.657E-03	 1.062E-02	-2.342E-04
       0.790000	 1.139E+04	-1.101E+05	 2.913E+02	 1.639E+06	 4.650E+05	-1.857E+03	 3.642E+04	-1.045E+05	 2.913E+02	 1.488E+06	 8.297E+05	-1.857E+03	 2.871E-01	-2.038E-01	-1.501E-03	 5.262E-03	 1.072E-02	-3.000E-04
       0.800000	 1.163E+04	-1.054E+05	 2.592E+02	 1.486E+06	 4.752E+05	-1.812E+03	 3.557E+04	-9.984E+04	 2.592E+02	 1.336E+06	 8.044E+05	-1.812E+03	 2.893E-01	-1.840E-01	-1.447E-03	 4.841E-03	 1.084E-02	-3.493E-04
       0.810000	 1.180E+04	-1.020E+05	 2.275E+02	 1.360E+06	 4.832E+05	-1.700E+03	 3.497E+04	-9.657E+04	 2.275E+02	 1.212E+06	 7.832E+05	-1.700E+03	 2.913E-01	-1.644E-01	-1.399E-03	 4.386E-03	 1.099E-02	-3.768E-04
       0.820000	 1.190E+04	-1.000E+05	 1.978E+02	 1.261E+06	 4.888E+05	-1.516E+03	 3.460E+04	-9.459E+04	 1.978E+02	 1.114E+06	 7.659E+05	-1.516E+03	 2.930E-01	-1.449E-01	-1.355E-03	 3.887E-03	 1.115E-02	-3.789E-04
       0.830000	 1.193E+04	-9.918E+04	 1.717E+02	 1.188E+06	 4.920E+05	-1.266E+03	 3.443E+04	-9.377E+04	 1.717E+02	 1.042E+06	 7.522E+05	-1.266E+03	 2.944E-01	-1.255E-01	-1.317E-03	 3.342E-03	 1.134E-02	-3.536E-04
       0.840000	 1.188E+04	-9.934E+04	 1.496E+02	 1.138E+06	 4.929E+05	-9.608E+02	 3.442E+04	-9.394E+04	 1.496E+02	 9.941E+05	 7.416E+05	-9.608E+02	 2.955E-01	-1.064E-01	-1.285E-03	 2.753E-03	 1.155E-02	-3.007E-04
       0.850000	 1.176E+04	-1.003E+05	 1.310E+02	 1.110E+06	 4.914E+05	-6.160E+02	 3.454E+04	-9.495E+04	 1.310E+02	 9.673E+05	 7.337E+05	-6.160E+02	 2.962E-01	-8.779E-02	-1.259E-03	 2.127E-03	 1.176E-02	-2.223E-04
       0.860000	 1.156E+04	-1.021E+05	 1.139E+02	 1.102E+06	 4.876E+05	-2.492E+02	 3.475E+04	-9.667E+04	 1.139E+02	 9.598E+05	 7.281E+05	-2.492E+02	 2.965E-01	-6.986E-02	-1.241E-03	 1.480E-03	 1.198E-02	-1.220E-04
       0.870000	 1.131E+04	-1.044E+05	 9.556E+01	 1.110E+06	 4.817E+05	 1.218E+02	 3.503E+04	-9.898E+04	 9.556E+01	 9.692E+05	 7.242E+05	 1.218E+02	 2.963E-01	-5.297E-02	-1.230E-03	 8.317E-04	 1.219E-02	-5.529E-06
       0.880000	 1.100E+04	-1.072E+05	 7.349E+01	 1.133E+06	 4.739E+05	 4.805E+02	 3.537E+04	-1.018E+05	 7.349E+01	 9.931E+05	 7.218E+05	 4.805E+02	 2.955E-01	-3.750E-02	-1.224E-03	 2.046E-04	 1.237E-02	 1.203E-04
       0.890000	 1.064E+04	-1.103E+05	 4.624E+01	 1.167E+06	 4.643E+05	 8.121E+02	 3.575E+04	-1.049E+05	 4.624E+01	 1.029E+06	 7.205E+05	 8.121E+02	 2.941E-01	-2.384E-02	-1.222E-03	-3.764E-04	 1.253E-02	 2.476E-04
       0.900000	 1.025E+04	-1.137E+05	 1.437E+01	 1.210E+06	 4.533E+05	 1.104E+03	 3.614E+04	-1.083E+05	 1.437E+01	 1.074E+06	 7.197E+05	 1.104E+03	 2.920E-01	-1.238E-02	-1.221E-03	-8.874E-04	 1.264E-02	 3.681E-04
       0.910000	 9.832E+03	-1.171E+05	-1.933E+01	 1.259E+06	 4.410E+05	 1.344E+03	 3.653E+04	-1.117E+05	-1.933E+01	 1.124E+06	 7.191E+05	 1.344E+03	 2.892E-01	-3.435E-03	-1.215E-03	-1.307E-03	 1.270E-02	 4.740E-04
       0.920000	 9.408E+03	-1.204E+05	-5.021E+01	 1.311E+06	 4.277E+05	 1.523E+03	 3.688E+04	-1.150E+05	-5.021E+01	 1.177E+06	 7.180E+05	 1.523E+03	 2.855E-01	 2.711E-03	-1.203E-03	-1.619E-03	 1.269E-02	 5.582E-04
       0.930000	 8.983E+03	-1.234E+05	-7.282E+01	 1.361E+06	 4.137E+05	 1.632E+03	 3.714E+04	-1.180E+05	-7.282E+01	 1.229E+06	 7.159E+05	 1.632E+03	 2.809E-01	 5.858E-03	-1.181E-03	-1.811E-03	 1.262E-02	 6.152E-04
       0.940000	 8.569E+03	-1.257E+05	-8.225E+01	 1.407E+06	 3.991E+05	 1.665E+03	 3.728E+04	-1.204E+05	-8.225E+01	 1.277E+06	 7.122E+05	 1.665E+03	 2.755E-01	 5.887E-03	-1.146E-03	-1.876E-03	 1.247E-02	 6.414E-04
       0.950000	 8.170E+03	-1.274E+05	-7.524E+01	 1.446E+06	 3.840E+05	 1.617E+03	 3.727E+04	-1.221E+05	-7.524E+01	 1.319E+06	 7.065E+05	 1.617E+03	 2.692E-01	 2.754E-03	-1.098E-03	-1.813E-03	 1.225E-02	 6.354E-04
       0.960000	 7.791E+03	-1.282E+05	-5.094E+01	 1.477E+06	 3.685E+05	 1.488E+03	 3.708E+04	-1.229E+05	-5.094E+01	 1.353E+06	 6.987E+05	 1.488E+03	 2.620E-01	-3.510E-03	-1.039E-03	-1.623E-03	 1.195E-02	 5.981E-04
       0.970000	 7.433E+03	-1.280E+05	-1.100E+01	 1.500E+06	 3.528E+05	 1.281E+03	 3.670E+04	-1.229E+05	-1.100E+01	 1.378E+06	 6.885E+05	 1.281E+03	 2.540E-01	-1.281E-02	-9.707E-04	-1.313E-03	 1.158E-02	 5.322E-04
       0.980000	 7.092E+03	-1.271E+05	 4.095E+01	 1.515E+06	 3.367E+05	 1.005E+03	 3.615E+04	-1.220E+05	 4.095E+01	 1.396E+06	 6.763E+05	 1.005E+03	 2.451E-01	-2.500E-02	-8.974E-04	-8.916E-04	 1.113E-02	 4.424E-04
       0.990000	 6.765E+03	-1.254E+05	 1.000E+02	 1.524E+06	 3.202E+05	 6.736E+02	 3.544E+04	-1.205E+05	 1.000E+02	 1.409E+06	 6.624E+05	 6.736E+02	 2.355E-01	-3.988E-02	-8.235E-04	-3.683E-04	 1.062E-02	 3.349E-04
       1.000000	 6.443E+03	-1.232E+05	 1.610E+02	 1.531E+06	 3.031E+05	 3.040E+02	 3.463E+04	-1.184E+05	 1.610E+02	 1.421E+06	 6.475E+05	 3.040E+02	 2.251E-01	-5.722E-02	-7.544E-04	 2.443E-04	 1.005E-02	 2.165E-04
       1.010000	 6.118E+03	-1.208E+05	 2.191E+02	 1.541E+06	 2.855E+05	-8.264E+01	 3.376E+04	-1.162E+05	 2.191E+02	 1.433E+06	 6.325E+05	-8.264E+01	 2.141E-01	-7.674E-02	-6.951E-04	 9.323E-04	 9.431E-03	 9.468E-05
       1.020000	 5.781E+03	-1.185E+05	 2.705E+02	 1.556E+06	 2.671E+05	-4.640E+02	 3.290E+04	-1.140E+05	 2.705E+02	 1.453E+06	 6.181E+05	-4.640E+02	 2.025E-01	-9.815E-02	-6.504E-04	 1.681E-03	 8.765E-03	-2.317E-05
       1.030000	 5.424E+03	-1.166E+05	 3.128E+02	 1.581E+06	 2.478E+05	-8.185E+02	 3.211E+04	-1.122E+05	 3.128E+02	 1.482E+06	 6.052E+05	-8.185E+02	 1.904E-01	-1.211E-01	-6.241E-04	 2.473E-03	 8.065E-03	-1.301E-04
       1.040000	 5.038E+03	-1.152E+05	 3.453E+02	 1.621E+06	 2.275E+05	-1.127E+03	 3.143E+04	-1.110E+05	 3.453E+02	 1.525E+06	 5.946E+05	-1.127E+03	 1.779E-01	-1.453E-01	-6.187E-04	 3.291E-03	 7.341E-03	-2.202E-04
       1.050000	 4.619E+03	-1.147E+05	 3.684E+02	 1.678E+06	 2.061E+05	-1.377E+03	 3.090E+04	-1.106E+05	 3.684E+02	 1.586E+06	 5.869E+05	-1.377E+03	 1.650E-01	-1.704E-01	-6.357E-04	 4.118E-03	 6.604E-03	-2.884E-04
       1.060000	 4.162E+03	-1.152E+05	 3.841E+02	 1.755E+06	 1.836E+05	-1.558E+03	 3.057E+04	-1.111E+05	 3.841E+02	 1.666E+06	 5.827E+05	-1.558E+03	 1.520E-01	-1.961E-01	-6.750E-04	 4.936E-03	 5.863E-03	-3.315E-04
       1.070000	 3.666E+03	-1.167E+05	 3.948E+02	 1.853E+06	 1.598E+05	-1.669E+03	 3.043E+04	-1.127E+05	 3.948E+02	 1.767E+06	 5.821E+05	-1.669E+03	 1.387E-01	-2.220E-01	-7.354E-04	 5.729E-03	 5.129E-03	-3.479E-04
       1.080000	 3.130E+03	-1.193E+05	 4.030E+02	 1.972E+06	 1.349E+05	-1.714E+03	 3.050E+04	-1.153E+05	 4.030E+02	 1.888E+06	 5.853E+05	-1.714E+03	 1.254E-01	-2.478E-01	-8.149E-04	 6.482E-03	 4.409E-03	-3.380E-04
       1.090000	 2.557E+03	-1.229E+05	 4.107E+02	 2.113E+06	 1.089E+05	-1.700E+03	 3.077E+04	-1.190E+05	 4.107E+02	 2.031E+06	 5.924E+05	-1.700E+03	 1.121E-01	-2.735E-01	-9.110E-04	 7.187E-03	 3.712E-03	-3.043E-04
       1.100000	 1.952E+03	-1.275E+05	 4.188E+02	 2.273E+06	 8.196E+04	-1.641E+03	 3.124E+04	-1.236E+05	 4.188E+02	 2.193E+06	 6.030E+05	-1.641E+03	 9.886E-02	-2.988E-01	-1.021E-03	 7.837E-03	 3.043E-03	-2.509E-04
       1.110000	 1.320E+03	-1.329E+05	 4.268E+02	 2.451E+06	 5.415E+04	-1.551E+03	 3.188E+04	-1.291E+05	 4.268E+02	 2.373E+06	 6.170E+05	-1.551E+03	 8.571E-02	-3.236E-01	-1.144E-03	 8.431E-03	 2.404E-03	-1.836E-04
       1.120000	 6.673E+02	-1.392E+05	 4.331E+02	 2.646E+06	 2.567E+04	-1.447E+03	 3.269E+04	-1.353E+05	 4.331E+02	 2.569E+06	 6.340E+05	-1.447E+03	 7.269E-02	-3.479E-01	-1.278E-03	 8.973E-03	 1.798E-03	-1.091E-04
       1.130000	 1.272E+00	-1.461E+05	 4.350E+02	 2.853E+06	-3.304E+03	-1.343E+03	 3.363E+04	-1.422E+05	 4.350E+02	 2.777E+06	 6.535E+05	-1.343E+03	 5.983E-02	-3.718E-01	-1.422E-03	 9.471E-03	 1.222E-03	-3.452E-05
       1.140000	-6.708E+02	-1.535E+05	 4.298E+02	 3.070E+06	-3.257E+04	-1.256E+03	 3.468E+04	-1.495E+05	 4.298E+02	 2.995E+06	 6.749E+05	-1.256E+03	 4.715E-02	-3.954E-01	-1.578E-03	 9.937E-03	 6.750E-04	 3.316E-05
       1.150000	-1.342E+03	-1.613E+05	 4.153E+02	 3.293E+06	-6.191E+04	-1.197E+03	 3.582E+04	-1.573E+05	 4.153E+02	 3.219E+06	 6.978E+05	-1.197E+03	 3.465E-02	-4.188E-01	-1.746E-03	 1.038E-02	 1.518E-04	 8.808E-05
       1.160000	-2.005E+03	-1.692E+05	 3.902E+02	 3.519E+06	-9.116E+04	-1.177E+03	 3.700E+04	-1.651E+05	 3.902E+02	 3.445E+06	 7.212E+05	-1.177E+03	 2.233E-02	-4.421E-01	-1.928E-03	 1.083E-02	-3.529E-04	 1.259E-04
       1.170000	-2.655E+03	-1.771E+05	 3.547E+02	 3.742E+06	-1.201E+05	-1.199E+03	 3.817E+04	-1.729E+05	 3.547E+02	 3.669E+06	 7.445E+05	-1.199E+03	 1.018E-02	-4.655E-01	-2.126E-03	 1.128E-02	-8.452E-04	 1.442E-04
       1.180000	-3.287E+03	-1.846E+05	 3.103E+02	 3.960E+06	-1.486E+05	-1.266E+03	 3.930E+04	-1.804E+05	 3.103E+02	 3.887E+06	 7.668E+05	-1.266E+03	-1.801E-03	-4.890E-01	-2.342E-03	 1.175E-02	-1.331E-03	 1.427E-04
       1.190000	-3.898E+03	-1.917E+05	 2.592E+02	 4.167E+06	-1.765E+05	-1.372E+03	 4.034E+04	-1.875E+05	 2.592E+02	 4.096E+06	 7.874E+05	-1.372E+03	-1.362E-02	-5.129E-01	-2.578E-03	 1.226E-02	-1.817E-03	 1.234E-04
       1.200000	-4.486E+03	-1.981E+05	 2.041E+02	 4.360E+06	-2.037E+05	-1.508E+03	 4.123E+04	-1.938E+05	 2.041E+02	 4.290E+06	 8.054E+05	-1.508E+03	-2.527E-02	-5.371E-01	-2.836E-03	 1.280E-02	-2.307E-03	 9.014E-05
       1.210000	-5.051E+03	-2.036E+05	 1.471E+02	 4.536E+06	-2.301E+05	-1.659E+03	 4.194E+04	-1.993E+05	 1.471E+02	 4.467E+06	 8.202E+05	-1.659E+03	-3.674E-02	-5.617E-01	-3.116E-03	 1.339E-02	-2.805E-03	 4.834E-05
       1.220000	-5.594E+03	-2.080E+05	 8.939E+01	 4.692E+06	-2.556E+05	-1.810E+03	 4.244E+04	-2.037E+05	 8.939E+01	 4.625E+06	 8.313E+05	-1.810E+03	-4.804E-02	-5.865E-01	-3.420E-03	 1.402E-02	-3.315E-03	 4.349E-06
       1.230000	-6.118E+03	-2.114E+05	 3.144E+01	 4.827E+06	-2.802E+05	-1.940E+03	 4.270E+04	-2.071E+05	 3.144E+01	 4.762E+06	 8.383E+05	-1.940E+03	-5.912E-02	-6.116E-01	-3.748E-03	 1.470E-02	-3.836E-03	-3.510E-05
       1.240000	-6.626E+03	-2.136E+05	-2.736E+01	 4.940E+06	-3.040E+05	-2.034E+03	 4.272E+04	-2.094E+05	-2.736E+01	 4.877E+06	 8.413E+05	-2.034E+03	-6.996E-02	-6.367E-01	-4.098E-03	 1.541E-02	-4.369E-03	-6.352E-05
       1.250000	-7.121E+03	-2.148E+05	-8.813E+01	 5.032E+06	-3.268E+05	-2.075E+03	 4.251E+04	-2.107E+05	-8.813E+01	 4.972E+06	 8.402E+05	-2.075E+03	-8.052E-02	-6.617E-01	-4.470E-03	 1.616E-02	-4.910E-03	-7.529E-05
       1.260000	-7.606E+03	-2.150E+05	-1.522E+02	 5.105E+06	-3.488E+05	-2.053E+03	 4.210E+04	-2.110E+05	-1.522E+02	 5.048E+06	 8.356E+05	-2.053E+03	-9.075E-02	-6.863E-01	-4.858E-03	 1.692E-02	-5.455E-03	-6.612E-05
       1.270000	-8.084E+03	-2.145E+05	-2.204E+02	 5.160E+06	-3.698E+05	-1.963E+03	 4.151E+04	-2.106E+05	-2.204E+02	 5.106E+06	 8.278E+05	-1.963E+03	-1.006E-01	-7.103E-01	-5.260E-03	 1.770E-02	-5.998E-03	-3.347E-05
       1.280000	-8.558E+03	-2.134E+05	-2.933E+02	 5.201E+06	-3.900E+05	-1.808E+03	 4.079E+04	-2.096E+05	-2.933E+02	 5.151E+06	 8.176E+05	-1.808E+03	-1.100E-01	-7.335E-01	-5.668E-03	 1.847E-02	-6.532E-03	 2.321E-05
       1.290000	-9.026E+03	-2.119E+05	-3.703E+02	 5.230E+06	-4.093E+05	-1.593E+03	 4.000E+04	-2.083E+05	-3.703E+02	 5.184E+06	 8.056E+05	-1.593E+03	-1.188E-01	-7.555E-01	-6.075E-03	 1.922E-02	-7.048E-03	 1.024E-04
       1.300000	-9.489E+03	-2.103E+05	-4.500E+02	 5.252E+06	-4.277E+05	-1.333E+03	 3.917E+04	-2.068E+05	-4.500E+02	 5.209E+06	 7.927E+05	-1.333E+03	-1.271E-01	-7.760E-01	-6.471E-03	 1.993E-02	-7.536E-03	 2.004E-04
       1.310000	-9.945E+03	-2.087E+05	-5.300E+02	 5.269E+06	-4.451E+05	-1.044E+03	 3.835E+04	-2.054E+05	-5.300E+02	 5.230E+06	 7.796E+05	-1.044E+03	-1.347E-01	-7.946E-01	-6.846E-03	 2.059E-02	-7.988E-03	 3.117E-04
       1.320000	-1.039E+04	-2.073E+05	-6.072E+02	 5.283E+06	-4.616E+05	-7.447E+02	 3.760E+04	-2.041E+05	-6.072E+02	 5.248E+06	 7.670E+05	-7.447E+02	-1.416E-01	-8.112E-01	-7.190E-03	 2.117E-02	-8.393E-03	 4.296E-04
       1.330000	-1.082E+04	-2.062E+05	-6.781E+02	 5.298E+06	-4.769E+05	-4.542E+02	 3.694E+04	-2.032E+05	-6.781E+02	 5.266E+06	 7.555E+05	-4.542E+02	-1.477E-01	-8.254E-01	-7.493E-03	 2.168E-02	-8.743E-03	 5.460E-04
       1.340000	-1.123E+04	-2.056E+05	-7.389E+02	 5.315E+06	-4.911E+05	-1.909E+02	 3.640E+04	-2.027E+05	-7.389E+02	 5.285E+06	 7.455E+05	-1.909E+02	-1.529E-01	-8.370E-01	-7.744E-03	 2.208E-02	-9.030E-03	 6.528E-04
       1.350000	-1.162E+04	-2.055E+05	-7.864E+02	 5.335E+06	-5.039E+05	 2.894E+01	 3.600E+04	-2.027E+05	-7.864E+02	 5.307E+06	 7.375E+05	 2.894E+01	-1.573E-01	-8.458E-01	-7.937E-03	 2.238E-02	-9.248E-03	 7.421E-04
       1.360000	-1.197E+04	-2.059E+05	-8.181E+02	 5.358E+06	-5.154E+05	 1.926E+02	 3.575E+04	-2.032E+05	-8.181E+02	 5.333E+06	 7.317E+05	 1.926E+02	-1.608E-01	-8.517E-01	-8.065E-03	 2.256E-02	-9.394E-03	 8.070E-04
       1.370000	-1.229E+04	-2.069E+05	-8.328E+02	 5.385E+06	-5.254E+05	 2.915E+02	 3.566E+04	-2.042E+05	-8.328E+02	 5.361E+06	 7.281E+05	 2.915E+02	-1.633E-01	-8.547E-01	-8.126E-03	 2.262E-02	-9.466E-03	 8.427E-04