# vtk DataFile Version 3.0
Low resolution, disturbed wind of XZ Slice at time = 6 seconds.
ASCII
DATASET STRUCTURED_POINTS
DIMENSIONS   413     1    35
ORIGIN     -77.70       0.00       5.00
SPACING       9.71      10.00      10.00
POINT_DATA           14455
VECTORS DisXZ float
      3.94      -0.17       0.56
      4.24      -0.28       1.02
      4.33      -0.14       1.35
      4.35       0.34       0.55
      5.14      -0.10       0.25
      4.67      -0.01      -0.18
      3.94      -0.55       0.01
      4.84      -0.30      -0.15
      4.44      -0.10       0.23
      4.06      -0.32      -0.41
      4.00      -0.36      -0.74
      4.61      -0.27      -0.21
      4.58       0.06      -0.45
      3.83      -0.13       0.16
      4.09      -0.18       0.43
      4.88      -0.26      -0.14
      5.16      -0.65       0.70
      3.59      -0.70      -0.13
      4.55      -0.57      -0.16
      4.39      -0.94       0.33
      5.89      -1.56      -0.51
      5.26      -1.03      -0.37
      5.66      -0.91      -0.95
      6.07      -1.36      -0.52
      5.56      -1.27      -0.35
      5.06      -1.21      -0.21
      5.23      -0.97       0.10
      5.98      -0.88      -0.14
      6.45      -0.25       0.12
      6.39      -0.53       0.03
      6.05      -0.34      -0.40
      6.00      -0.79      -0.51
      5.92      -1.16      -0.32
      5.11      -0.93      -0.17
      4.37       0.09       0.12
      4.74       0.07       0.35
      5.63       0.09      -0.09
      5.88      -0.28       0.01
      5.38      -0.00      -0.00
      4.50       0.22      -0.07
      3.88       0.01       0.39
      4.51       0.18       0.18
      4.18      -0.40      -0.02
      4.38      -0.29      -0.42
      4.76      -0.33      -0.28
      4.77      -0.66       0.02
      4.59      -0.56       0.22
      5.24      -0.12      -0.36
      5.46      -0.56      -0.82
      4.58       0.49      -0.22
      6.14       0.53      -0.22
      5.49       0.34       0.02
      5.07      -0.10      -0.28
      5.15      -0.64       0.10
      4.48      -0.31       0.18
      4.55      -0.53       0.28
      4.36      -0.66       0.03
      3.94      -0.27      -0.18
      4.11       0.34       0.29
      4.21       0.29       0.03
      4.48       0.01       0.46
      4.35      -0.19       0.55
      3.94       0.88      -0.05
      3.37      -0.07      -0.12
      3.83      -0.08       0.12
      4.26      -0.15      -0.36
      4.84       0.17      -0.71
      4.07       0.67      -0.75
      3.86       0.54      -0.24
      3.82       1.24       0.08
      3.83       0.65      -0.28
      3.84      -0.06       0.42
      4.27      -0.03       0.31
      4.50       0.54       0.85
      5.14       1.00       0.26
      5.23       0.61      -0.30
      6.10       0.35       0.34
      6.02       0.14      -0.15
      5.62       0.48       0.71
      5.53       0.38       1.22
      4.85      -0.80       0.55
      4.70      -0.74       0.27
      4.64      -0.56       0.84
      5.05      -0.49       0.34
      5.59      -0.99      -0.72
      4.69      -1.31      -0.70
      4.98      -1.39       0.01
      4.77      -1.14       0.08
      5.03      -1.64       0.42
      4.78      -1.54       0.63
      4.77      -1.75       0.01
      3.95      -1.39      -0.24
      4.06      -1.13       0.01
      4.15      -1.05       0.97
      5.44      -1.69       0.35
      5.09      -0.89       0.50
      5.14      -1.01       0.31
      5.26      -1.10       0.90
      5.44       0.08       0.60
      5.75      -0.14      -0.29
      5.44       0.07       0.22
      5.45       0.68      -0.03
      5.93       0.89       0.07
      5.36      -0.31       0.32
      5.10       0.04       0.84
      4.62       0.57      -0.04
      4.45       0.56       0.53
      5.04       0.27       0.14
      5.34       0.58       0.62
      5.11       0.41       0.63
      5.47       0.66       0.18
      4.81      -0.18       0.12
      5.68       1.09       0.38
      5.57       0.31       0.05
      5.72       0.85      -0.29
      5.66       0.57      -0.53
      4.86       0.60      -0.32
      5.28       0.39      -0.20
      4.87       0.52       0.17
      5.70       1.03      -0.40
      5.18       0.73      -0.40
      4.96       1.48      -0.43
      4.77       1.63      -0.26
      4.51       0.91       0.14
      4.74       1.52      -0.26
      5.64       1.87      -0.26
      5.39       0.74      -0.33
      5.17       0.47      -0.02
      5.54       1.25       0.33
      4.89       1.40       0.25
      4.69       0.84       0.51
      4.17       0.64       0.68
      4.22       0.11       0.24
      4.49       0.01       0.18
      4.57       0.43       0.30
      4.74       1.09      -0.18
      4.54       1.31       0.09
      5.66       0.67      -0.78
      5.22      -0.34       0.61
      5.36      -0.17       0.98
      5.35      -0.18      -0.13
      5.38      -0.42       0.39
      4.53      -0.23      -0.06
      4.39      -0.60       1.25
      4.03      -0.05       0.62
      4.92       0.38       0.32
      5.26       0.35       0.60
      4.63       0.15      -0.34
      3.75       0.26      -0.38
      3.76       0.83      -0.38
      3.55      -0.05       0.01
      3.98      -0.30      -0.31
      3.70      -1.61      -0.78
      3.61      -1.36      -0.74
      3.12      -0.89      -0.88
      2.93      -0.74      -1.24
      3.21      -0.14      -1.04
      3.51      -0.36      -0.94
      2.64      -0.88      -0.02
      3.22      -0.27       0.43
      2.90      -0.29       0.14
      3.69      -0.25      -0.12
      3.29       0.43      -0.12
      3.46       0.66       0.04
      2.83       0.86      -0.06
      2.94       0.60      -0.79
      1.89       1.70       0.01
      2.32       1.35      -0.65
      1.78       0.26       0.06
      2.35       0.05       0.11
      2.85      -0.17      -0.07
      2.24       0.10       0.03
      3.15       0.44       0.38
      3.35       0.13       0.20
      2.80       1.04       0.21
      3.38       0.66       0.21
      3.83       0.98       0.16
      4.06       0.25      -0.20
      4.02       0.47       0.02
      4.20       1.05       0.35
      4.10       1.06       0.40
      4.65       0.74       0.07
      4.06       0.93       0.03
      4.20       0.86      -1.23
      4.23       0.86      -0.69
      3.41       0.85       0.01
      3.77      -0.82       0.69
      3.88       0.14      -0.06
      3.30       0.01      -0.22
      2.78      -0.13       0.23
      3.03      -0.29       0.78
      3.93      -0.09       0.49
      4.76       0.03       1.12
      4.07      -0.71       0.95
      4.32       0.11       0.65
      4.35      -0.76      -0.02
      4.13      -0.89      -0.14
      4.65      -0.11       0.13
      4.86      -0.19       0.29
      3.49      -0.41      -0.58
      3.79      -0.33      -0.82
      4.46      -0.22      -0.16
      4.54       0.23      -0.57
      4.34      -0.13       0.17
      4.44       0.17       0.26
      4.94      -0.42      -0.26
      5.33      -0.05       0.08
      3.83      -0.60       0.51
      4.40      -0.66      -0.39
      4.20      -1.04      -0.10
      5.39      -1.29      -0.62
      5.53      -1.80      -0.61
      4.70      -0.81      -0.60
      5.73      -1.02      -1.09
      5.07      -1.49      -0.14
      5.31      -1.16      -0.47
      5.08      -1.09       0.11
      5.25      -1.38       0.25
      6.31      -0.51      -0.03
      6.61      -0.46       0.47
      6.49      -0.29      -0.04
      5.45      -0.62      -1.07
      6.10      -1.62      -0.84
      5.40      -1.18      -0.79
      3.96      -0.61      -0.15
      4.95      -0.37       0.92
      5.26      -0.18       0.20
      5.57       0.09       0.35
      5.73      -0.44      -0.46
      4.73       0.15       0.08
      4.10      -0.61       0.05
      4.54       0.12       0.24
      5.05       0.03       0.21
      4.25      -0.19      -0.82
      4.43      -0.32       0.08
      4.90      -0.48       0.10
      3.99      -0.38       0.08
      4.38      -0.28      -0.32
      4.99       0.04      -0.22
      4.67       0.71      -0.31
      5.82       1.08      -0.17
      6.22       0.42      -0.38
      5.42      -0.00      -0.31
      4.98      -0.09       0.18
      3.73      -1.08      -0.26
      4.63      -0.48       0.46
      4.17      -1.22       0.15
      3.88      -0.21      -0.19
      4.28      -0.04       0.15
      3.67       0.19       0.13
      4.38       0.02       0.09
      4.19      -0.47       0.01
      4.26       0.43      -0.01
      3.61       0.26      -0.57
      3.47       0.22       0.02
      4.30      -0.05      -0.32
      4.00      -0.14      -0.54
      4.40       0.53      -0.73
      4.14       0.74      -1.06
      3.94       1.21      -0.05
      3.76       1.24      -0.03
      3.92       0.31       0.04
      3.84       0.09       0.16
      4.44       0.52       0.72
      4.89       0.27       0.31
      5.08       0.67      -0.01
      5.89       0.48      -0.12
      6.33       0.56      -0.52
      5.41       0.32       0.18
      5.49       0.28       0.69
      5.41      -0.28       0.12
      5.10      -0.42       0.48
      4.90      -0.45       0.98
      5.01      -0.58       0.74
      5.44      -1.14      -0.75
      4.70      -1.13      -0.81
      4.56      -1.06       0.10
      5.18      -1.47      -0.19
      5.10      -1.79       0.09
      4.30      -1.24       0.12
      4.69      -1.40       0.33
      4.59      -1.28       0.07
      3.91      -1.18       0.37
      4.46      -1.75       0.36
      5.33      -1.95       0.46
      5.25      -0.91       0.39
      5.03      -1.35       0.47
      5.18      -1.41       0.12
      5.32      -0.73       0.62
      5.83       0.30       0.09
      5.29      -0.11      -0.12
      5.07      -0.16      -0.07
      5.38       0.09      -0.28
      5.31       0.77       0.17
      4.86       0.01       0.98
      4.49       0.28       0.04
      4.62       0.86      -0.24
      4.79       0.76      -0.11
      6.10       0.23       0.52
      4.67       0.22       0.80
      5.07       0.48       0.31
      5.06       0.82       0.67
      5.65       0.33       0.57
      5.34       1.10       0.26
      5.46       1.36      -0.21
      5.60       0.56      -0.20
      5.24       0.70      -0.62
      5.57       0.51      -0.12
      4.85       0.11      -0.11
      5.32       0.75      -0.26
      4.99       0.82       0.01
      5.38       1.31      -0.06
      4.77       1.72      -0.28
      5.11       1.35       0.46
      4.22       1.36      -0.01
      5.43       1.90      -0.30
      5.28       0.93      -0.67
      5.70       0.43       0.15
      5.42       0.95      -0.07
      4.88       1.48       0.36
      4.53       0.65       0.28
      4.29       1.18       0.57
      3.99       0.57       0.33
      4.02       0.15       0.10
      4.59       0.39      -0.08
      4.03       0.61       0.14
      4.71       0.94      -0.41
      5.41       0.48      -0.29
      5.30      -0.25       0.14
      5.69      -0.38       0.43
      5.39      -0.18       0.81
      5.40       0.13       0.00
      5.02      -0.55      -0.49
      4.68      -0.41       0.59
      4.35      -0.41       1.03
      4.72      -0.18      -0.22
      5.44      -0.02       0.74
      5.22       0.30       0.16
      4.23      -0.11      -0.18
      3.07       0.83      -1.00
      4.47       0.47      -0.15
      4.41      -0.25      -0.72
      3.34      -1.27      -0.95
      3.75      -1.44      -0.43
      3.24      -1.22      -0.95
      3.12      -1.01      -1.18
      3.01      -0.39      -1.15
      3.44      -0.00      -0.90
      3.46      -0.40      -0.49
      2.71      -0.16       0.31
      2.99      -0.86      -0.03
      3.38      -0.59       0.19
      3.72       0.32      -0.05
      3.02       0.58       0.31
      3.34       0.47       0.07
      3.15       0.60      -0.25
      2.40       1.02      -0.30
      2.58       1.85      -0.13
      2.05       0.09      -0.03
      1.95       0.30      -0.31
      2.45      -0.59       0.13
      1.83       0.70       0.11
      2.31       0.49      -0.01
      3.05       0.42      -0.01
      3.11       1.26       0.58
      3.13       0.88      -0.05
      3.37       0.23       0.61
      3.67       0.24       0.02
      3.69       0.86      -0.16
      4.19       1.19       0.18
      3.78       1.33       0.18
      4.81       1.23       0.44
      4.28       0.91       0.14
      4.11       0.47      -0.62
      3.76       1.12      -0.72
      3.92       1.08      -0.76
      3.68       0.26       0.17
      3.82      -0.42       0.31
      3.25       0.31       0.02
      2.66      -0.20       0.08
      3.34       0.57       0.70
      3.75      -0.17       0.82
      4.26      -0.42       0.99
      4.21      -0.20       1.36
      4.26       0.45       0.68
      4.92      -0.51       0.26
      4.51      -0.10      -0.50
      4.43      -0.37      -0.19
      4.86       0.12       0.19
      4.49       0.15      -0.11
      4.50      -0.76      -0.42
      4.33       0.09      -0.49
      4.38      -0.39      -0.49
      4.86      -0.17      -0.23
      4.19      -0.16       0.25
      4.51      -0.61       0.28
      4.78      -0.25      -0.09
      4.94      -0.52       0.41
      4.40      -0.77      -0.27
      4.59      -0.78      -0.51
      4.71      -1.36      -0.22
      5.94      -2.00      -0.50
      4.61      -1.10      -0.55
      5.94      -0.72      -1.09
      5.48      -1.38      -0.29
      5.49      -1.12      -0.32
      5.14      -1.17      -0.45
      5.17      -1.36       0.68
      5.96      -0.63       0.05
      6.56      -0.19       0.34
      6.13      -0.52      -0.31
      5.64      -0.21      -0.64
      6.09      -1.05      -0.58
      4.75       0.25       0.05
      4.35       1.05       0.83
      4.51       1.52       0.96
      5.47       1.34       0.48
      5.92       0.19       0.11
      5.72      -0.30      -0.56
      5.19      -0.05      -0.37
      5.40      -0.22      -0.12
      5.10      -0.08      -0.03
      5.35       0.59      -0.01
      5.16      -0.37       0.30
      4.60      -0.68       0.35
      5.55      -1.04       0.18
      6.07      -1.27      -0.16
      6.00      -1.41      -0.12
      5.65      -1.68      -0.41
      6.10      -0.83      -0.52
      6.48      -1.95      -1.23
      6.02      -1.62      -0.93
      5.73      -0.87      -0.69
      5.80      -1.70      -0.85
      6.32      -0.90      -0.89
      6.43      -1.35      -0.72
      7.19      -0.77      -0.66
      7.15      -0.60       0.04
      6.78      -1.34      -0.31
      7.28      -1.35       0.00
      6.64      -1.34       0.21
      6.42      -0.94       0.48
      6.88      -1.04       0.27
      6.80      -0.39       0.55
      7.06      -0.74      -0.02
      7.07      -0.67       0.26
      6.47      -1.23       0.46
      6.44      -1.42       0.08
      6.30      -1.05       0.46
      6.70      -0.66       0.29
      7.01      -0.28      -0.38
      6.72       0.25      -0.19
      6.68       0.33      -0.39
      6.92      -0.01      -0.19
      7.44      -0.50       0.18
      7.35      -0.01       0.07
      6.92       0.29      -0.49
      6.32       0.06      -0.57
      6.34      -0.16       0.28
      6.88       0.11      -0.65
      6.58      -0.37      -0.53
      7.06       0.00       0.25
      6.23       0.32       0.28
      5.99       0.06      -0.04
      5.93       0.09      -0.37
      6.69      -0.95      -0.26
      6.50      -0.47      -0.40
      5.77      -0.40       0.20
      5.21       0.06      -0.34
      4.31      -0.14      -0.89
      4.42       0.07      -0.16
      4.33       0.44       0.24
      5.00       0.68       0.68
      5.45      -0.07       0.47
      4.80       0.56       1.17
      4.63       0.26       0.20
      4.58       0.19       0.44
      3.76      -0.18       0.16
      4.58      -0.40       0.38
      4.48       0.05       0.15
      5.04      -0.06       0.26
      4.85       0.06      -0.72
      5.35       0.07       0.19
      4.77       0.62       0.17
      5.18       1.66      -0.38
      5.20       1.10       0.71
      5.77       0.45       0.12
      7.11       1.21       0.23
      6.47       0.28      -0.36
      6.78       0.85       0.24
      7.21      -0.43       0.84
      7.10      -0.32      -0.02
      6.62       0.22       0.76
      6.89      -0.14       0.20
      6.93      -0.34      -0.67
      6.24       0.02       0.35
      6.00      -0.83       0.37
      5.87      -0.90      -0.43
      6.35      -0.67      -0.13
      6.56      -0.60       0.26
      6.22      -1.26       0.71
      6.17      -0.42       0.86
      6.13      -0.64       0.39
      5.58       0.35       0.25
      5.34      -0.33      -0.03
      4.88      -1.10       0.61
      6.26      -0.70       1.36
      5.95       0.03       0.40
      6.34      -0.42       0.37
      5.86      -0.16       1.07
      5.67       0.62       0.89
      6.04      -0.16       1.16
      6.20      -0.33       0.58
      5.72       0.20      -0.12
      7.47       0.79      -0.14
      7.19       0.12      -0.24
      7.51      -0.01      -0.29
      6.82       0.16       0.35
      6.49       0.87       0.46
      6.76       0.79       0.25
      6.37       0.99      -0.27
      6.09       0.68      -0.37
      6.86       0.24       0.30
      7.10       0.75      -0.04
      7.35       0.55       0.39
      7.53       0.12      -0.36
      8.17       0.83       0.28
      7.83       1.05      -0.36
      7.23       1.33      -0.46
      6.66      -0.04      -0.69
      6.75      -0.40      -0.91
      6.05       0.43      -0.55
      6.19       0.95       0.54
      5.72       1.26      -0.17
      6.13       1.68      -0.21
      5.19       1.42      -0.52
      5.27       1.14      -0.21
      6.52       1.37      -0.52
      6.77       0.90      -0.53
      6.11       1.00       0.03
      6.21       0.30      -0.49
      6.01       0.77       0.10
      6.19       0.33       0.13
      5.11       0.24       0.52
      5.39      -0.19       0.86
      5.28      -0.20       0.58
      5.71       0.23       0.86
      5.93      -0.31       0.35
      5.07       0.12       0.04
      5.98      -0.03      -0.40
      5.58      -0.48      -0.06
      4.81       0.11       0.42
      6.01      -0.11       0.32
      5.36      -1.00      -0.03
      4.39      -1.24       0.21
      4.56      -1.13       0.41
      5.30      -1.21       0.67
      5.71      -0.44      -0.06
      5.58       0.36       0.15
      5.66       0.22      -0.07
      5.01       0.18      -0.58
      4.86       0.98      -1.56
      4.42      -0.33       0.24
      4.35       0.25      -0.66
      3.23      -0.35      -0.16
      3.76      -0.65      -0.19
      3.55      -0.39      -0.65
      3.91      -0.52      -0.69
      4.61       0.04      -1.32
      4.44      -0.03      -0.55
      4.07      -0.19      -0.74
      3.72      -0.42      -0.59
      3.28      -0.31      -0.37
      3.30      -0.09       0.23
      3.61      -0.42       0.31
      3.51      -0.29      -0.24
      3.86      -0.39       0.75
      4.47       0.42       0.47
      4.43       0.45      -0.58
      4.10       0.85      -0.31
      3.58       0.26      -0.88
      4.39       0.38      -0.46
      4.08       0.27       0.54
      4.08       0.17      -0.58
      4.54       0.13      -0.42
      3.23       0.20       0.32
      4.06       0.06       0.14
      4.42      -0.21       0.53
      3.79       0.23       0.30
      4.76       0.93       0.48
      5.19       0.73       0.06
      4.78       0.80       0.15
      5.24       0.65       0.01
      5.75       1.43      -0.37
      5.80       1.40       0.03
      5.38       0.84       0.44
      5.20       1.22      -0.26
      5.56       0.76      -0.41
      6.05       0.66       0.02
      5.30       0.62       0.59
      5.31       0.63       0.43
      4.41       0.39      -0.22
      4.25       1.07      -0.61
      4.78       0.09      -0.50
      5.34       0.76       0.06
      4.75       1.20       0.87
      4.68       1.39       0.22
      6.46       1.16       0.30
      6.12      -0.32      -0.24
      5.40       0.01      -0.33
      5.41       0.13      -0.65
      5.10      -0.07       0.33
      4.75      -0.07       0.20
      5.84      -0.08       0.07
      5.06      -0.66       0.13
      5.59      -1.30       0.17
      5.60      -1.01       0.14
      6.55      -1.05      -0.51
      5.12      -1.97       0.26
      5.50      -1.17      -0.26
      5.80      -0.85      -0.99
      6.53      -1.56      -0.69
      6.03      -1.23      -0.46
      5.47      -1.33      -1.09
      6.23      -1.42      -0.63
      6.55      -1.32      -0.64
      6.72      -1.09      -0.59
      6.99      -1.20      -0.01
      7.15      -0.90      -0.41
      7.18      -1.43      -0.14
      6.65      -1.42       0.35
      6.73      -1.21       0.44
      7.07      -0.79       0.20
      6.44      -1.01       0.56
      6.73      -0.35       0.28
      6.83      -0.52       0.48
      6.72      -0.83       0.26
      6.15      -1.42      -0.04
      6.38      -1.29      -0.12
      7.48      -0.73       0.65
      7.08      -0.62      -0.18
      6.67      -0.02      -0.26
      7.15       0.29      -0.36
      7.29      -0.22      -0.44
      7.56      -1.06       0.39
      6.83       0.03       0.03
      7.29      -0.02      -0.45
      6.57      -0.05      -0.03
      6.47      -0.31       0.14
      6.90      -0.01      -0.50
      7.08       0.05      -0.11
      6.43       0.17      -0.53
      6.07       0.12       0.39
      5.94      -0.04      -0.11
      5.60      -0.12      -0.08
      6.43      -0.67      -0.42
      6.12      -0.39       0.06
      5.82      -0.26      -0.45
      5.43      -0.47      -0.06
      4.58      -0.31      -1.10
      4.47       0.10      -0.23
      4.67       0.55       0.20
      4.70       0.67       0.47
      4.87       0.09       0.94
      5.34       0.41       0.83
      4.43       0.38       0.05
      4.54       0.14       0.44
      3.95      -0.32       0.22
      4.96      -0.05       0.24
      4.94      -0.40      -0.02
      4.37      -0.19       0.20
      4.65      -0.32      -1.14
      4.92       0.12      -0.27
      5.26       0.56       0.10
      5.47       1.26      -0.22
      4.96       1.52       0.25
      5.05       0.63       0.54
      6.03       1.16       0.53
      7.17       0.46      -0.36
      6.49       0.58      -0.09
      7.20       0.16      -0.09
      7.23      -0.25       0.70
      6.61       0.09       0.76
      6.70       0.30       0.67
      6.72      -0.47      -0.28
      6.39      -0.34      -0.06
      5.85      -0.25       0.30
      5.58      -0.08       0.05
      6.21      -0.96       0.38
      6.68      -0.97      -0.17
      5.99      -1.37       0.88
      6.67      -1.04       1.15
      5.71      -0.34       0.42
      5.66       0.11       0.87
      5.88       0.28       0.05
      5.41      -1.23       0.03
      5.76      -1.11       0.79
      5.66       0.05       0.40
      5.88       0.07       0.48
      5.86      -0.09       0.74
      5.62       0.57       0.80
      5.76      -0.11       0.82
      5.91      -0.69       0.71
      6.12      -0.29      -0.76
      6.68      -0.19      -0.46
      7.37       0.49      -0.29
      7.27      -0.39       0.22
      6.69       0.32       0.21
      6.40       0.42       0.45
      6.46       0.86       0.37
      6.05       0.93       0.13
      6.53       0.93      -0.37
      6.36       0.45       0.33
      7.02       0.99      -0.11
      6.74       0.50       0.30
      7.33       0.42      -0.31
      7.79       0.20      -0.02
      8.02       0.89      -0.14
      7.40       0.95      -0.39
      7.24       0.50      -0.72
      6.58       0.20      -0.55
      6.37       0.07      -0.93
      6.84       0.60       0.69
      5.45       1.62      -0.07
      5.68       1.24      -0.58
      5.93       1.56      -0.45
      5.27       1.07      -0.54
      6.10       1.43      -0.93
      6.68       0.85      -0.75
      6.32       1.28      -0.27
      6.27       0.36      -0.25
      6.09       1.03      -0.03
      6.16       0.93      -0.38
      5.29       0.55       0.66
      5.62      -0.41       0.74
      5.66       0.49       0.46
      5.38       0.07       0.58
      5.61      -0.36       0.54
      5.58      -0.32       0.33
      5.42      -0.09      -0.34
      5.67      -0.31      -0.18
      5.11      -0.08       0.51
      5.91       0.06       0.10
      5.53      -0.58       0.01
      4.96      -1.36       0.35
      4.19      -1.50       0.47
      4.93      -1.69       0.32
      5.88      -0.94      -0.25
      5.20      -0.44       0.05
      5.32       0.21      -0.27
      5.18       0.17      -0.33
      4.95       1.41      -0.74
      4.86       0.54      -0.27
      4.31       0.42       0.07
      4.16       0.05      -0.35
      3.46      -0.44      -0.20
      3.48      -0.66      -0.67
      3.77      -0.01      -0.55
      4.07      -0.16      -1.17
      4.87      -0.17      -0.86
      4.30       0.58      -0.04
      3.94      -0.79      -0.30
      3.45      -0.37      -1.00
      3.43      -0.30       0.24
      3.72       0.56       0.29
      3.06      -0.44      -0.04
      4.11      -0.31       0.53
      3.89      -0.09       0.26
      4.44       0.78       0.25
      3.77       1.18       0.09
      3.69       0.67      -0.30
      3.46       0.67      -0.55
      4.60       0.75      -0.44
      4.34       0.80       0.07
      5.00       0.37       0.22
      3.89      -0.23       0.20
      3.92       0.27       0.30
      4.27       0.34       0.22
      3.44       0.03       0.37
      4.39       1.25       0.28
      4.91       0.30       0.34
      4.95       0.84       0.30
      4.76       0.31       0.12
      5.06       1.25      -0.55
      5.87       1.37       0.72
      5.07       1.21       0.11
      5.68       1.58      -0.27
      5.29       0.61      -0.29
      6.67       0.72       0.39
      5.73       0.58       0.11
      5.52       0.48       0.34
      4.86       0.55       0.38
      4.65       0.81      -0.17
      4.73       0.57       0.12
      5.16       0.53       0.19
      4.47       1.17       0.97
      4.38       1.64       0.69
      5.88       1.07       0.82
      6.23       0.09      -0.13
      5.59      -0.33      -1.06
      5.60      -0.22      -0.69
      5.44      -0.43      -0.48
      5.04       0.15       0.08
      5.31       0.08       0.22
      4.84      -0.80      -0.17
      5.44      -0.19       0.42
      5.87      -0.92       0.07
      5.93      -1.31       0.23
      5.47      -1.63      -0.43
      5.63      -1.45      -0.39
      5.73      -0.94      -0.64
      6.61      -1.42      -0.97
      5.66      -1.37      -1.16
      5.56      -1.34      -1.12
      6.23      -1.78      -1.12
      6.46      -0.96      -0.51
      6.77      -0.98      -0.50
      7.37      -0.78      -0.62
      7.41      -0.73      -0.01
      7.20      -1.05      -0.83
      7.14      -1.46      -0.04
      7.06      -1.26       0.11
      6.71      -1.24       0.43
      6.81      -1.12       0.26
      7.07      -0.36       0.43
      7.11      -0.84       0.06
      4.72       0.56       0.37
      4.72       0.38       0.80
      5.54       0.59       0.51
      4.88       0.36       1.06
      4.79       0.48       0.34
      6.20       0.06       0.24
      6.53      -0.24       0.20
      6.14       0.54      -0.50
      5.35       0.08      -0.56
      6.03       0.26      -0.34
      5.82      -0.76      -0.49
      5.85      -0.18       0.61
      5.83       0.07       0.35
      5.54      -0.26      -0.24
      5.69      -1.09      -0.61
      5.49      -1.80      -1.10
      6.07      -1.41      -1.01
      5.45      -1.61      -1.49
      6.09      -1.82      -0.30
      5.77      -1.89      -0.33
      6.27      -1.18      -0.59
      6.38      -0.91      -0.33
      7.00      -0.81      -1.00
      6.51      -1.77      -0.41
      5.84      -1.16      -0.17
      6.76      -0.87       0.41
      7.69      -0.22       0.22
      7.83      -1.12       0.01
      8.00      -1.61      -0.02
      8.17      -1.71      -0.19
      7.36      -1.14       0.31
      7.37      -1.20       0.21
      7.25      -0.91       0.61
      6.71       0.26       0.89
      6.61      -0.39       0.54
      6.87      -0.05       0.05
      7.63      -0.43       0.35
      7.70      -0.34       0.20
      6.99      -1.03       0.05
      7.21      -0.10      -0.44
      6.69      -0.44      -0.69
      7.65      -0.47      -0.47
      7.37      -0.20      -0.37
      7.44       0.07      -0.27
      7.51       0.76      -0.27
      7.63       1.37      -0.26
      7.56       0.61      -0.04
      9.00       0.55      -0.33
      8.84       0.96      -0.48
      7.95       0.13      -0.15
      7.88       0.43       0.35
      7.89       0.70       0.23
      7.39      -0.58       0.67
      7.89      -0.46      -0.44
      7.03      -0.61      -0.62
      6.57      -0.13      -0.54
      5.81      -0.32      -0.48
      5.42      -0.15      -0.49
      5.24      -0.73      -0.18
      6.08       0.23       0.11
      6.73       0.38       0.37
      5.85      -0.51       0.50
      5.13       0.11       0.55
      4.93      -0.18       0.38
      5.19      -0.12       0.20
      5.11      -0.44       0.07
      5.02       0.33      -0.21
      5.36       0.40      -0.26
      5.37       0.13       0.07
      5.97       0.14       0.38
      4.80       0.41       0.40
      5.08       0.16      -0.48
      6.33       0.36       0.52
      7.27      -0.03       0.30