# vtk DataFile Version 3.0
Low resolution, disturbed wind of YZ Slice at time = 6 seconds.
ASCII
DATASET STRUCTURED_POINTS
DIMENSIONS     1   101    35
ORIGIN    1630.00    -500.00       5.00
SPACING       9.71      10.00      10.00
POINT_DATA            3535
VECTORS DisYZ float
      4.98       0.82      -0.12
      5.05       1.39       0.78
      6.34       0.84       0.33
      5.54       0.70       0.12
      6.41       0.36       0.52
      4.80      -0.03       0.46
      5.13      -0.44       0.65
      5.29      -1.34       0.98
      5.14       0.03       0.35
      5.75       0.71      -0.43
      5.40       1.08       0.08
      5.00       0.59       0.65
      5.30       1.36       0.97
      4.67       0.20      -0.04
      3.35       0.95      -0.09
      3.69       1.32       0.49
      4.07       1.15       0.03
      5.64      -0.06       0.35
      5.78      -0.07       0.38
      6.85      -0.41      -0.17
      5.82      -0.22      -0.17
      5.24      -0.06       0.69
      3.85       1.26       0.38
      3.80       0.30      -0.28
      5.21       0.18      -0.12
      5.90      -0.52      -0.33
      5.86      -1.15      -0.31
      5.33      -0.77      -0.60
      5.40      -0.22      -0.77
      5.64      -0.92      -0.27
      5.15      -0.53      -0.26
      4.61       0.22      -0.08
      4.80       0.25      -0.23
      4.48      -0.32      -0.11
      4.16       0.10      -0.06
      3.78       1.67      -0.09
      3.76       1.25      -0.43
      5.11       1.46      -0.62
      5.05       0.98       0.12
      3.41       0.61      -0.53
      4.02       1.74      -0.10
      4.67       1.86      -0.54
      3.34       2.28      -0.63
      3.91       1.50      -0.35
      4.21       0.89       0.14
      3.94       0.75       0.10
      3.89       1.80      -0.22
      4.50       0.71      -0.24
      5.00       0.86      -0.40
      5.13       0.89       0.16
      3.77       0.94       0.16
      3.55       0.14       0.05
      2.36       0.69       0.15
      2.22       0.36       0.10
      3.44       0.43       0.30
      3.35       0.19      -0.57
      1.87       1.42      -0.49
      3.28       0.89       0.32
      2.10       1.00       0.03
      1.87       0.34      -0.18
      3.36       0.54      -0.28
      3.11       0.41       0.23
      2.20       1.50       0.24
      3.33       0.60       0.32
      2.32       0.53      -0.43
      3.80       0.86       0.26
      4.21       0.47       0.92
      4.26       0.73       0.10
      4.69       1.54       0.35
      4.83       1.02      -0.61
      4.86       0.92       0.79
      5.27      -0.40       0.06
      3.69       0.34      -0.30
      6.29      -0.39       0.02
      4.70       0.13       0.05
      4.60      -0.27       0.20
      5.21      -0.30       0.01
      5.43      -0.33      -0.29
      5.11       1.12      -0.21
      3.85       0.45       0.25
      3.59       1.08      -0.03
      3.65       1.71       0.46
      4.38       0.13       0.22
      4.27       0.56      -0.17
      4.50       0.35       0.26
      3.09       0.25      -0.63
      2.41      -0.32       0.16
      3.24      -1.14      -0.31
      3.83       0.58      -0.95
      4.53       0.08      -0.93
      4.87       0.50      -1.19
      4.18       0.16      -0.07
      4.97      -0.00      -0.31
      4.55       0.02      -0.39
      3.91       0.58       0.19
      3.28       0.69      -0.48
      2.86      -0.27       0.22
      3.72      -0.35       0.31
      5.08       0.10       0.13
      3.48      -0.80       0.13
      5.35       0.03      -0.19
      6.28       0.96       0.22
      5.64       0.47       0.37
      5.45       0.05       0.48
      5.90      -0.39       1.04
      6.29       0.62       0.62
      5.71       0.64       0.72
      6.58      -0.54       0.86
      6.15      -0.03       0.95
      6.92      -0.22       1.03
      6.56       0.56       0.40
      6.63       0.01       0.61
      5.60       0.05       0.56
      6.17       0.90       0.54
      6.61       0.77      -0.33
      5.75       0.43       0.26
      5.22       0.61       0.38
      6.36       0.53       0.58
      6.90      -0.23       0.95
      6.58       0.78       0.23
      7.47      -0.19       0.27
      7.49       0.05      -0.01
      5.29      -0.04       0.48
      5.24       0.99       0.84
      5.43      -0.46      -0.43
      6.08      -0.54       0.21
      6.85      -0.43       0.14
      6.64      -0.52      -0.04
      6.94      -0.49      -0.19
      6.96      -0.59      -0.55
      7.26      -0.96      -0.09
      7.25      -0.67       0.02
      7.01      -0.41      -0.48
      6.80      -0.27      -0.43
      5.87      -0.06      -0.67
      5.31       0.24      -0.38
      5.27       0.73       0.13
      5.53       0.64      -0.39
      6.24       0.63      -0.47
      5.66       1.28      -0.81
      5.64       1.15      -0.40
      5.00       1.41       0.17
      4.94       1.76      -1.14
      5.81       1.01      -0.25
      3.58       1.15       0.19
      5.26       0.83      -0.17
      5.76       1.20      -0.35
      6.04       1.03      -0.79
      5.11       0.98      -0.16
      4.98       0.75      -0.47
      5.12       1.59      -0.17
      4.64       0.84       0.46
      4.31       0.22       0.29
      4.47       0.95      -0.03
      4.08      -0.26      -0.37
      4.11       0.53       0.16
      5.26       0.43      -0.05
      4.30       0.78      -0.17
      5.13       1.43       0.23
      4.25       0.60       0.82
      4.37       0.30       0.69
      4.31       0.00       0.63
      5.17       0.59       1.05
      3.45       0.89       0.24
      2.48       0.37      -0.35
      4.89       0.73      -0.67
      4.76       0.66       0.13
      4.87       0.43       0.48
      4.82       0.89      -0.41
      5.07       1.18       0.37
      5.90       1.25       0.61
      6.22      -0.01       0.20
      5.12      -0.09       0.71
      5.78      -0.39       0.36
      5.44      -0.77       0.06
      6.17       0.35       0.16
      6.39      -0.29      -0.01
      6.21       0.18       0.29
      5.95       0.35       0.25
      6.06       0.67       0.18
      5.45      -0.48      -0.20
      4.38       0.38       0.10
      4.82       1.42       0.18
      4.89       0.95      -0.53
      5.12       0.12      -0.43
      4.93      -0.57      -0.30
      5.31      -1.09      -0.54
      4.37      -0.21       0.17
      3.19      -0.15      -1.03
      4.39      -0.94      -0.04
      5.04      -0.37      -0.54
      5.66      -0.15      -0.45
      5.90      -0.68      -0.00
      5.30      -1.06      -0.40
      4.87      -0.64       0.69
      5.20      -0.59      -0.32
      3.81      -0.52      -0.00
      3.87      -1.10       0.39
      3.80      -0.78      -0.33
      4.28      -1.04       0.12
      4.96      -0.35      -0.00
      6.01      -0.70      -0.73
      5.81       0.53       0.27
      6.73       0.66      -0.03
      7.07      -0.41       0.76
      6.82      -0.29       0.70
      7.15       0.52       0.29
      6.49       0.69       0.58
      6.30      -0.18       0.50
      7.31       0.24       0.43
      6.83       0.41       0.47
      6.92      -0.22       0.71
      5.61      -0.21       0.23
      6.23       0.17       0.54
      6.50       0.41       0.23
      6.76       0.44      -0.23
      6.52       0.07       0.34
      5.80       0.33       0.41
      5.74      -0.44       0.95
      6.58       0.05       0.71
      6.96       0.36       0.51
      7.55      -0.46       0.50
      7.25       0.32       0.52
      6.43       0.34       0.89
      6.44       1.51       0.08
      7.00       0.38      -0.05
      7.16      -0.56      -0.47
      6.91       1.10       0.10
      6.73       0.08      -0.09
      7.54      -0.40       0.17
      7.85      -0.27       0.68
      7.48      -0.47      -0.22
      8.03      -0.62       0.09
      7.11       0.41      -0.80
      6.69      -0.61      -0.53
      6.10       0.28      -0.61
      6.15       0.17      -0.08
      5.74       0.52      -0.76
      6.11       0.35      -0.49
      5.47       0.65      -0.50
      5.88       0.05      -0.32
      5.36       1.45      -0.25
      5.64       0.91      -0.56
      6.18       1.46      -0.13
      5.74       1.00       0.15
      5.76       0.32       0.30
      6.29       0.63      -0.03
      5.69       0.04      -0.04
      6.66       0.65       0.35
      6.06       0.35       0.33
      4.97       1.54      -0.06
      5.42       0.81      -0.46
      4.87       1.45      -0.29
      4.02       1.25       0.61
      4.68       0.22       0.46
      5.52       0.84      -0.09
      4.66       0.69       0.71
      5.74       0.94      -0.26
      5.37       1.15       0.45
      5.61       0.60      -0.64
      4.37       1.43      -0.26
      4.45       0.16       0.44
      3.98      -0.17       0.58
      4.66       0.12       0.14
      3.91       0.59       0.01
      4.32       0.30      -0.16
      5.33       0.11      -0.78
      5.33      -0.26       0.06
      5.63       0.64       0.05
      4.92       0.52       0.36
      7.20       1.24       0.46
      7.16       1.06      -0.32
      6.48       0.35       0.38
      6.00       0.19      -0.42
      4.82       0.37      -0.23
      5.72       0.33       0.25
      5.83      -0.11      -0.04
      5.60      -0.04      -0.49
      6.16      -0.04       0.27
      6.18      -0.04      -0.43
      5.37       0.55       0.32
      4.41       0.18       0.30
      6.76       0.84       0.30
      5.73       0.36       0.02
      5.04       0.42       0.03
      3.91      -0.29      -0.75
      4.73       0.50       0.10
      5.46      -0.39      -0.03
      4.76       0.11      -0.26
      5.48      -0.07       0.16
      5.83      -0.02      -0.52
      5.92      -0.27      -0.71
      6.39      -0.13      -0.75
      5.89      -0.93       0.17
      6.27      -0.52      -0.54
      5.51      -0.73       0.24
      4.49      -1.26       0.51
      4.56      -0.48      -0.19
      4.48      -0.94      -0.29
      4.29      -1.13       0.06
      6.13      -0.09       0.27
      6.69       0.47      -0.43
      6.51       0.40      -0.80
      6.38      -0.16       0.89
      5.58       0.03       0.59
      6.79      -1.31       0.64
      7.58      -0.95       0.60
      7.72       0.83       0.09
      7.16       0.28       0.34
      6.78       0.86       0.07
      5.96      -0.44      -0.31
      6.24       0.52      -0.06
      7.34       0.30       0.34
      6.81       0.38       0.47
      6.44      -0.00       0.07
      6.35      -0.35       0.06
      6.99       0.10      -0.22
      6.44      -0.49       0.88
      5.97      -0.14       0.76
      6.31      -0.02       0.35
      6.98       0.13       0.66
      7.41       0.17       0.54
      7.20       0.05       0.08
      7.35       0.43       0.48
      7.50       0.31       0.79
      7.60       1.05       0.47
      6.51      -0.34       0.33
      7.87      -0.84      -0.14
      7.79       0.56      -0.20
      6.98       0.34       0.31
      8.08       0.17      -0.02
      8.35       0.58       0.03
      7.67       0.11      -0.09
      7.37      -0.89      -0.09
      7.65      -0.48      -0.15
      6.95      -0.54      -0.06
      6.47      -1.38      -0.40
      6.50      -0.72       0.61
      5.81      -0.09       0.19
      5.10       0.68      -0.76
      6.45       0.92      -0.19
      5.87       0.57      -0.21
      7.38       0.81      -0.19
      6.81       1.52      -0.04
      5.68       1.02       0.08
      5.66       0.90      -0.27
      5.90       0.93      -0.27
      5.54       0.73       0.15
      6.68       0.81       0.31
      5.96       0.92      -0.14
      4.95       0.39       0.53
      5.98       0.60       0.27
      4.98       0.76      -0.69
      5.87       0.91      -0.01
      5.07       0.36      -0.23
      4.90       1.32       0.15
      4.72       1.12      -0.14
      4.84       1.09       0.36
      6.17       0.34       0.28
      6.17      -0.27       0.39
      5.64       0.94       0.45
      5.14       0.43      -0.34
      4.89      -0.17       0.15
      5.04       0.35       0.68
      5.44       0.25       0.46
      5.86       0.67      -0.12
      6.56      -0.26       0.34
      5.20      -0.24       0.18
      5.42       0.28      -0.77
      5.43       1.20      -0.48
      5.75       0.62       0.25
      6.72       0.77       0.35
      7.18       0.71       0.68
      6.56       0.67       0.31
      5.82       0.59      -0.31
      5.48       0.55      -0.37
      4.85      -0.51       0.20
      5.68      -0.51       0.13
      6.37      -0.12       0.23
      6.45      -0.24      -0.13
      6.13      -0.22       0.50
      5.45       1.11       0.63
      4.71       0.42      -0.39
      6.47       0.29      -0.15
      4.65       0.84      -0.26
      4.43      -0.40      -0.40
      5.82       0.02      -0.73
      4.26       0.79      -0.18
      5.12      -0.53      -0.28
      5.95      -0.24      -0.48
      5.64      -0.36       0.20
      5.84      -0.13      -0.13
      5.68      -1.65      -0.53
      5.62      -1.02      -0.75
      5.33      -0.30       0.39
      5.57      -0.35      -0.01
      6.04       0.08      -1.10
      6.18      -0.86      -0.07
      5.87      -1.27      -0.73
      6.19      -0.03      -0.40
      6.34      -0.98      -0.25
      6.67      -0.51      -0.05
      6.50      -0.33      -0.45
      5.30       0.67      -0.68
      6.81       0.42       0.64
      8.30       0.04       0.59
      7.24      -0.12       0.14
      7.57       0.26       0.42
      7.37       0.17       0.82
      7.54      -0.37      -0.08
      6.99       0.85       0.11
      6.96      -0.21      -0.23
      7.20       0.20       0.46
      7.62      -0.21       0.07
      6.78       0.21       0.64
      5.59      -0.98       0.92
      7.50      -0.89       0.41
      5.73      -0.37       0.75
      6.22      -0.46       0.57
      7.12       0.62       0.42
      6.95       0.89       0.14
      7.34       1.13       0.66
      8.00       0.81       0.06
      7.57       0.86       0.10
      6.84       0.50       0.04
      8.15       1.00       0.65
      6.72       1.18       0.16
      7.49      -0.16       0.27
      7.61       0.21      -0.17
      7.12      -0.21      -0.45
      7.87       0.47      -0.15
      7.46       0.18       0.16
      8.51       0.13       0.04
      8.05      -0.17      -0.01
      8.76      -0.49      -0.21
      8.78      -1.02       0.10
      7.94      -1.13      -0.03
      7.29      -1.08       0.13
      6.95      -0.07      -0.06
      6.80       0.13      -0.42
      6.18      -0.08      -0.57
      6.21       0.30      -0.95
      6.24       0.63      -0.14
      7.02       1.33      -0.02
      6.20       1.33       0.11
      6.54       0.72      -0.04
      6.80       1.05      -0.28
      6.72       1.05      -0.45
      6.46       0.24       0.49
      6.30       0.62       0.30
      6.67       0.57      -0.23
      5.12       0.90       0.48
      5.90       0.60       0.80
      5.06       1.52      -0.15
      4.82       0.85       0.03
      5.69       0.32       0.38
      6.49       0.43       0.39
      5.88       0.42      -0.07
      5.88       0.14       0.46
      6.10       0.26       0.02
      5.52       0.62      -0.04
      5.98      -0.18       0.35
      6.25       0.52       0.55
      5.35      -0.32       0.85
      6.11      -0.90       0.53
      5.23       0.31       0.58
      5.79      -0.40       0.11
      6.06      -0.10       0.06
      6.24       0.33      -0.04
      4.25       0.29      -0.11
      6.34       0.97      -0.05
      7.56       0.51       0.53
      7.08       0.50       0.37
      7.12       0.22       0.31
      6.96      -0.36       0.90
      6.18      -0.03      -0.33
      6.86      -0.19      -0.37
      7.16      -0.85      -0.10
      6.88      -0.56       0.55
      5.68      -0.37       0.39
      6.56       0.07       0.21
      5.68      -0.31       0.05
      6.04       1.00      -0.13
      5.94       0.51       0.67
      6.21       0.74      -0.12
      5.74       0.63       0.45
      6.55       0.05       0.05
      4.85       0.14       0.44
      4.89      -0.08      -0.10
      6.43      -0.17       0.06
      5.77       0.57       0.03
      5.36       0.16      -0.05
      6.32      -0.49      -0.77
      5.42      -0.20      -0.26
      5.02      -0.39      -0.73
      6.84       0.08      -0.30
      6.90       0.03      -0.80
      5.97       0.77      -0.48
      5.47      -0.12      -0.50
      6.57       0.01      -0.12
      7.08      -1.06      -0.02
      8.33      -0.20      -0.52
      7.88      -0.78      -0.80
      7.83      -0.61       0.01
      8.32      -0.05      -0.24
      7.11      -0.28       0.22
      6.73       0.56       0.25
      7.20       0.82       0.10
      7.38       0.54       0.24
      6.83       0.72       0.35
      8.53       1.01       0.07
      7.09       0.78       0.05
      7.33       0.11       0.22
      7.48       0.35       0.15
      6.95      -0.29      -0.42
      7.76      -0.02       0.69
      6.63      -0.41       0.73
      7.29      -0.54       0.23
      5.83       0.23      -0.07
      6.87      -0.50       0.14
      7.01      -0.06       0.31
      7.98       0.29       0.30
      8.20       0.75       0.44
      8.14       0.69      -0.25
      6.78       0.63      -0.44
      7.72       0.30       0.02
      7.76      -0.09       0.89
      6.58       0.58      -0.20
      7.63       0.38      -0.04
      6.98      -0.62      -0.13
      8.33      -0.69      -0.19
      7.93      -0.17       0.17
      7.35      -0.65       0.23
      8.83      -0.40      -0.02
      8.35      -0.16       0.23
      8.69      -0.53       0.54
      9.35      -0.42       0.51
      8.49      -1.08       0.08
      9.10      -0.29      -0.47
      8.31      -0.08      -0.10
      7.58      -0.57      -0.76
      7.75       0.36      -0.12
      7.40      -0.77       0.23
      6.91       0.57      -0.43
      6.23       0.55       0.11
      4.93       2.17       0.51
      7.17       0.30      -0.30
      6.39       0.74       0.16
      6.10       1.48       0.34
      5.92       0.88       0.38
      4.87       0.82       0.64
      5.81       1.56       0.81
      6.13       0.70      -0.21
      6.20       0.84       0.34
      5.39       0.85      -0.06
      5.42       0.10       0.11
      6.27       0.51      -0.44
      6.10       1.61      -0.08
      5.22       0.49       0.44
      6.62       1.17      -0.03
      6.45      -0.04       0.49
      6.52       0.24       0.06
      6.09      -0.69       0.09
      6.02       0.06       0.61
      6.26       0.10       0.23
      6.22       0.20      -0.26
      5.85      -0.09       0.27
      6.44      -0.45       0.59
      6.59      -0.97       0.12
      5.33       0.87       0.17
      5.69       1.49      -0.19
      7.06      -0.11       0.06
      8.08       0.16       0.12
      8.06       0.72       0.04
      6.54       0.02       0.04
      7.02      -0.53       0.07
      7.81       0.25      -0.08
      7.79       0.06       0.21
      7.09      -0.20       0.19
      6.43      -1.05      -0.45
      7.59      -0.68      -0.09
      7.37      -0.08      -0.70
      7.49       0.48      -0.11
      6.44       0.42      -0.45
      6.10       0.57      -0.40
      5.63       0.24      -0.60
      5.50      -0.15      -0.05
      5.17      -0.28      -0.22
      4.71       0.40       0.22
      5.83       0.60      -0.49
      6.48       0.38      -0.49
      6.50       0.58      -0.75
      6.63       0.52      -0.68
      6.35       0.00      -1.19
      6.30      -0.05      -0.54
      6.43       0.44      -0.50
      7.94       0.85      -0.52
      7.78      -0.29      -0.12
      6.78       1.03      -0.53
      6.04       1.24      -0.17
      7.60       0.15       0.07
      6.97      -0.05      -0.10
      7.79       0.24      -0.41
      7.65      -0.51      -0.76
      8.36      -0.31      -0.27
      8.73       0.66      -0.80
      7.40      -0.06      -0.38
      7.86       0.88       0.16
      8.74       0.56      -0.51
      7.77       0.70       0.04
      7.69       0.60       0.18
      8.09       0.42       0.34
      7.62       0.02      -0.07
      7.75      -0.77       0.07
      6.49      -0.66      -0.09
      7.25      -0.57       0.48
      8.03       0.89       0.05
      6.78      -0.01       0.23
      6.60       0.28      -0.85
      7.78       0.09      -0.66
      6.72      -0.96       0.22
      6.58      -1.16       0.37
      7.72      -0.10       0.15
      8.82       0.47      -0.31
      8.75       0.90       0.13
      7.95       1.56       0.43
      7.80       0.70      -0.17
      6.66       0.19      -0.16
      8.07       0.98      -0.03
      7.62       0.91       0.34
      8.64      -0.54       0.18
      7.46      -0.53       0.32
      7.76       0.39       0.14
      7.17      -0.23       0.32
      8.00       0.14      -0.19
      8.65      -0.54      -0.01
      7.80      -0.04      -0.43
      8.38      -0.22       0.26
      8.81      -0.15       0.48
      8.64      -0.19       0.37
      8.34      -0.04      -0.23
      8.66       0.12       0.23
      8.74      -0.43      -0.24
      7.78       0.28       0.10
      7.76       0.54       0.20
      5.79       0.38       0.19
      6.87       0.28      -0.87
      5.75       0.17      -0.49
      6.20       0.26       0.31
      6.09       0.50       0.30
      6.17       0.61       0.16
      5.76       0.68       0.13
      6.53      -0.00      -0.46
      6.92       0.82      -0.51
      7.02       0.43      -0.08
      6.68       0.89      -0.36
      6.78       0.41      -0.15
      6.43       1.35       0.72
      6.49       1.37      -0.23
      6.03       0.87      -0.58
      6.22       1.23       0.43
      6.38       0.94       0.17
      5.98      -0.85       0.25
      5.73      -0.27       0.33
      6.57      -0.37       0.37
      7.20       0.00       0.43
      7.04       0.47       0.51
      6.88       0.47       1.31
      7.12      -0.10       1.01
      7.09       0.89       0.35
      6.95       0.46      -0.19
      6.42       0.68       0.11
      8.28       0.66       0.10
      8.02       0.04       0.32
      7.47      -0.64       0.33
      6.36      -0.33       0.00
      7.33      -0.48      -0.02
      7.48      -0.57       0.03
      6.61       0.05      -0.14
      7.82      -1.02       0.40
      7.73      -0.20      -0.68
      6.96      -0.77      -0.52
      7.32      -0.53      -0.40
      7.94      -0.06      -0.12
      8.00       0.10      -0.34
      6.47       0.10      -0.56
      6.02       0.05      -0.00
      6.53       0.60      -0.23
      6.51       0.78       0.14
      5.03       0.93      -0.31
      5.39      -0.24      -0.50
      5.13      -0.26      -0.44
      6.02       0.04      -0.44
      7.13       1.04      -0.19
      7.60       0.44      -0.92
      7.48       0.37       0.01
      7.25       1.07      -0.58
      7.19       0.32      -0.57
      7.57      -0.07      -0.17
      7.78       0.82      -0.38
      6.54       0.74      -0.55
      6.69       0.10      -0.56
      7.72      -0.65      -0.61
      8.64      -0.21      -0.64
      8.30      -0.10      -0.15
      7.85      -0.04       0.09
      8.70       0.22       0.02
      7.36      -0.54      -0.32
      8.21      -0.02       0.02
      7.48       0.13       0.48
      6.96       0.88      -0.38
      7.07       1.20       0.00
      7.70       0.18      -0.20
      6.89      -0.29       0.32
      6.94       0.29       0.02
      7.37       0.19      -0.11
      7.92       0.23       0.45
      7.96       0.45       0.22
      7.29      -0.31      -0.33
      6.72      -0.24       0.36
      7.17       0.03       0.21
      7.46      -0.17      -0.10
      6.62       0.02       0.21
      7.35      -0.72       0.33
      9.12      -0.56       0.10
      9.25       0.29       0.39
      7.81       0.71       0.13
      8.08       0.24       0.14
      7.77      -0.06      -0.39
      7.57       0.20      -0.20
      7.77       0.82       0.16
      8.66       0.30      -0.04
      7.81      -0.38       0.08
      8.51      -0.16      -0.14
      8.24      -0.23       0.12
      7.93      -0.19       0.12
      7.62       0.59       0.27
      7.70       0.88       0.12
      7.95       0.94       0.13
      7.70      -0.12       0.29
      9.05      -0.66       0.16
      8.28      -0.21       0.57
      9.05       0.18      -0.22
      8.02       0.01      -0.14
      8.61       0.15      -0.05
      6.44      -0.02      -0.55
      6.88       0.02      -1.27
      6.44       0.97      -0.12
      7.14      -0.28      -0.11
      7.29       0.23       0.20
      6.66       0.38      -0.25
      6.34       0.59       0.15
      6.23       0.57       0.30
      6.53       0.64      -0.94
      5.81       0.21      -0.22
      7.04       0.15       0.21
      6.78       0.85      -0.71
      7.31       1.71      -0.14
      7.38       1.61       0.15
      7.17       0.65       0.20
      6.37       0.82      -0.12
      6.89       1.62      -0.31
      6.68       1.73       0.23
      7.64       0.64      -0.30
      6.66       0.32      -0.01
      6.77       0.41       0.23
      6.79       0.45       0.49
      7.78       0.71      -0.03
      7.59       1.05       0.63
      6.42       0.18       0.59
      7.52       0.27       0.08
      6.99      -0.04      -0.01
      7.52      -0.30       0.04
      8.86      -1.32      -0.27
      8.07      -0.17      -0.41
      8.99      -0.82       0.95
      7.32      -0.59       0.72
      7.08      -0.37       0.58
      6.64      -0.18       0.05
      7.40      -0.27       0.25
      7.37       0.26       0.28
      8.81      -0.89       0.21
      8.69      -0.82      -0.36
      7.58      -0.63      -0.49
      7.90      -0.40      -0.16
      6.63      -0.20      -0.66
      6.79       0.03      -0.67
      6.19       0.97      -0.20
      6.24       0.74      -0.09
      5.86      -0.04       0.03
      6.15       0.77       0.68
      5.48       0.34       0.23
      6.92       0.11      -0.42
      5.87      -0.30      -0.37
      7.08      -0.35      -0.59
      7.67       0.01      -1.05
      7.10       0.40      -0.55
      6.24       0.70      -0.32
      7.03      -0.13      -0.11
      7.19       0.84       0.12
      7.28       0.92       0.02
      7.53       1.34      -0.50
      7.32       0.89      -0.34
      8.41      -0.19      -0.52
      7.94       0.48      -0.39
      7.77      -0.68      -0.01
      8.72      -1.00      -0.48
      7.31      -0.88       0.41
      7.73      -0.32       0.14
      7.53      -0.17       0.32
      8.10      -0.90      -0.09
      7.03      -0.20      -0.64
      7.04       0.75       0.52
      6.35      -0.19       0.28
      6.14      -0.30       0.33
      6.89      -0.58      -0.27
      6.98      -0.25       0.34
      7.83       0.53       0.15
      6.85       1.24      -0.03
      7.60       0.07      -0.28
      7.10      -0.06      -0.53
      7.77       1.38      -0.03
      7.13      -0.43      -0.01
      6.93      -0.68       0.58
      7.65      -0.28      -0.08
      7.69       1.03       0.10
      8.18      -0.39       0.07
      7.48       0.56       0.11
      7.33       0.30      -0.73
      6.83       1.16      -0.10
      8.11       0.28      -0.15
      7.93       1.46      -0.42
      8.45       0.09      -0.77
      8.38      -0.91      -0.75
      7.47      -1.01       0.02
      7.79       0.58       0.72
      7.87       0.02       0.23
      7.33       0.80       0.13
      8.10       0.75      -0.27
      8.39       0.62       0.43
      8.40       0.92       0.19
      7.81       0.88       0.77
      8.32       0.27      -0.62
      8.51       0.86       0.35
      7.61       0.90      -0.61
      7.68       0.26       0.39
      7.66       0.85      -0.47
      6.90      -0.80      -0.73
      7.15       0.14       0.16
      7.08       0.03      -0.15
      8.64       0.71      -0.49
      7.81       0.15       0.62
      5.79      -0.06      -0.02
      7.03       0.58      -0.44
      7.05       0.44       0.22
      6.33       0.42       0.50
      6.49       0.32       0.17
      7.57       1.10      -0.45
      7.59       0.78      -0.26
      6.72       1.24       0.35
      6.71       0.72      -0.13
      7.09       0.25      -0.54
      7.67       1.16      -0.35
      7.20       0.68       0.20
      6.47       1.03       0.40
      6.79       1.22      -0.04
      7.76       0.86       0.18
      7.17       0.97       0.28
      8.24      -0.35       0.51
      7.28      -0.69       0.85
      7.12       0.88      -0.11
      7.35       0.18       0.68
      7.83       0.26      -0.09
      8.50      -0.38       0.24
      9.44       0.02       0.35
      9.23       0.30      -0.40
      7.92      -0.70       0.56
      7.11      -0.46       0.38
      7.49      -0.64       0.17
      7.19      -0.64       0.70
      7.28       0.19       0.51
      8.38      -0.43       0.56
      8.56       0.97       0.45
      8.82      -0.29       0.28
      9.34      -0.81      -0.46
      8.04       0.36      -0.06
      7.62       0.74      -0.71
      7.11       0.57      -0.53
      6.43       0.48      -0.70
      5.88       0.24      -0.85
      7.08      -0.24       0.46
      7.21       0.37       0.76
      6.48       0.25       0.48
      7.45       0.77       0.44
      6.44      -0.27      -0.37
      7.13      -0.29       0.49
      6.95      -0.30       0.16
      6.54       0.42       0.13
      5.74       0.72       0.22
      7.19       0.03      -0.18