# vtk DataFile Version 3.0
Low resolution, disturbed wind of XY Slice at time = 0 seconds.
ASCII
DATASET STRUCTURED_POINTS
DIMENSIONS   413   101     1
ORIGIN     -77.70    -500.00      85.00
SPACING       9.71      10.00      10.00
POINT_DATA           41713
VECTORS DisXY float
      8.56      -1.40       0.23
      8.87      -0.93      -0.01
      8.34      -0.81       0.04
      8.11      -0.33      -0.09
      8.21       0.30       0.24
      8.20      -0.00       0.33
      8.24      -0.65       0.23
      7.43       0.05       0.39
      8.48       0.40       0.31
      8.47       0.48       0.04
      7.98       1.00       0.22
      8.10       0.37       0.02
      8.36      -0.14      -0.81
      7.80       0.41      -0.82
      7.91       0.37      -0.74
      6.92       0.19      -0.01
      6.82       0.67      -1.36
      7.14       0.95      -0.57
      7.55       0.71      -0.14
      8.09       0.90       0.15
      7.84       0.90       0.13
      9.13       0.30       0.10
      8.98       0.39      -0.18
      9.42       0.84      -0.70
      9.73       1.17      -0.55
      9.93       0.64      -0.08
      9.32       0.16      -0.21
      9.51      -0.11       0.08
      8.72       0.77      -0.10
      9.19       0.14      -0.19
      9.44       1.05      -0.51
      9.97       0.82      -0.81
     10.06       1.62      -0.07
      8.80       1.52      -0.16
      9.01       0.05      -0.42
      8.57       0.66      -1.45
      8.46       0.92      -0.20
      8.56       1.00      -0.34
      8.31       0.76      -0.59
      7.83       0.45      -0.23
      6.58       0.17      -0.40
      7.19       0.01      -0.41
      7.59       0.47      -0.78
      7.98       1.03      -0.12
      7.55       0.23      -0.21
      7.74       0.72      -0.19
      8.09       0.29      -0.13
      7.45       0.44       0.06
      7.67      -0.18       0.02
      7.46       0.17       0.08
      7.45       0.09       0.85
      7.66       0.10       0.57
      7.80      -0.07       0.68
      8.17      -0.00       0.46
      7.73      -0.31       0.34
      8.25      -0.49      -0.61
      8.08      -0.37       0.07
      7.36      -0.08      -0.69
      8.22      -0.61      -0.75
      8.02      -0.43      -0.23
      7.91      -0.86      -0.63
      8.52      -1.03      -1.36
      8.09      -0.35      -0.91
      8.70       0.11      -1.19
      8.41       0.09       0.05
      7.75      -0.09       0.28
      8.02      -0.10      -0.19
      7.94      -0.30       0.11
      7.79      -0.67       0.19
      8.71      -1.16       0.14
      8.56      -1.13       0.36
      8.56      -0.77      -0.01
      8.13      -0.04      -0.53
      8.19       0.79      -0.04
      8.51       1.46      -0.87
      9.10       1.25      -0.78
      8.65       1.35      -0.15
      9.11       0.90       0.01
      9.33       0.81       0.10
      8.84       0.49      -0.29
      9.17       0.30       0.33
      9.41      -0.54       0.49
      8.21      -0.93       0.16
      8.13      -0.61       0.26
      8.25      -0.56      -0.56
      8.35       0.17      -0.21
      7.77      -0.84       0.51
      7.54      -0.79       0.10
      7.95      -0.49       0.27
      8.00      -0.40       0.90
      7.87       0.21       0.38
      8.72       0.76       0.06
      8.28       1.11      -0.11
      8.45       0.24       0.12
      7.22       0.00       0.18
      8.01       0.33       0.27
      6.97       0.67       0.10
      6.88       0.06       0.57
      7.57       0.64       0.44
      8.10       0.54       0.30
      7.61      -0.16      -0.46
      7.83       0.20       0.39
      8.13      -0.16       0.23
      7.45      -1.22       0.29
      7.32      -0.68       1.00
      7.71      -0.72       0.37
      8.40      -0.13       0.24
      9.87      -0.63       0.03
      8.79      -0.91      -0.53
      8.67      -0.31      -0.12
      7.64       0.34       0.07
      7.30       0.01       0.52
      6.84      -0.66       0.07
      7.14      -0.73       0.46
      6.76      -0.49      -0.17
      7.21      -0.22       0.33
      6.93       0.11       0.12
      7.33       0.15      -0.03
      7.68       0.85       0.27
      7.32       1.03       0.14
      8.17       0.34       0.68
      8.11       0.04       0.61
      7.98       0.08       0.30
      7.96       0.30       1.25
      8.80       0.14       1.20
      8.52       0.37       0.34
      8.26       0.70       0.46
      8.73       0.10      -0.16
      8.19      -0.02      -0.24
      9.16       0.13      -0.04
      7.56      -0.68       0.98
      8.10      -0.32       1.10
      8.25      -0.90       0.60
      8.35      -0.56      -0.17
      8.73      -0.65       0.84
      8.83      -1.09       0.45
      9.12       0.03      -0.39
      8.65       0.54      -0.71
      8.04       0.09      -0.83
      7.18      -0.62      -0.24
      7.69      -0.19       0.38
      8.26       0.43      -0.70
      7.92       0.28      -0.67
      8.09      -0.41      -0.73
      8.53      -0.15      -0.29
      7.57      -0.26       0.71
      7.43      -0.05       0.96
      7.13      -0.45       0.02
      7.09      -0.05       0.05
      7.45      -0.17      -0.07
      7.31       0.15       0.15
      6.66      -0.90      -0.31
      6.42      -0.65      -0.43
      6.18       0.31      -0.16
      5.40      -0.58      -0.01
      5.25       0.45       0.25
      5.90       0.13      -0.43
      5.62       0.14      -0.36
      5.68       0.14       0.61
      6.00      -0.19       0.30
      6.53      -0.12       0.15
      6.89      -0.90      -0.16
      7.77      -1.31       0.32
      7.33      -1.03      -0.10
      7.84      -0.52      -0.21
      7.96      -1.34       0.92
      7.92      -0.36      -0.18
      7.88       0.04      -0.31
      8.25      -0.38       0.10
      8.19       0.28       0.08
      8.72       0.45       0.36
      8.11      -0.31       0.18
      8.08      -0.69      -0.05
      8.12      -0.46      -0.10
      7.52      -0.67      -0.07
      8.65       0.17      -0.01
      8.43       0.14      -0.07
      7.83       0.21      -0.14
      7.12       0.16       0.30
      7.57      -0.52      -0.27
      8.53      -0.26       0.19
      8.55      -0.58      -0.09
      7.99       0.13       0.23
      7.75       0.04       0.14
      8.06      -0.48      -0.41
      8.31      -0.29       0.14
      8.11       0.21       0.51
      8.61      -1.05      -0.05
      7.46      -1.74       0.30
      8.13      -1.29       0.11
      8.60      -1.12      -0.18
      8.74      -0.85       0.18
      8.55      -0.56       0.29
      8.60      -0.39       0.21
      8.37       0.45      -0.33
      8.14      -0.33      -0.10
      8.29      -0.47       0.42
      7.97      -0.22      -0.14
      7.65       0.23       0.46
      7.97       0.73       0.54
      8.05       0.57      -0.24
      7.55      -0.16       0.22
      8.21      -0.12       0.02
      7.90       0.05      -0.46
      7.28       0.42      -0.51
      7.56       0.23      -0.23
      7.02       0.37      -0.35
      7.14       1.04      -1.20
      7.42       0.77      -0.04
      8.15       1.04      -0.22
      8.43       0.68       0.07
      8.60       0.48       0.45
      8.85       0.46      -0.40
      9.14       0.37      -0.60
      9.30       1.29      -0.17
     10.01       1.29      -0.58
      8.94       0.29      -0.69
      9.28       0.23      -0.66
      8.65       0.44       0.18
      8.67       0.83      -0.35
      9.80       0.66       0.10
      9.49       0.36      -0.78
      9.66       1.04      -0.18
      9.48       1.54      -0.02
      8.58       0.54      -0.31
      8.62       0.44      -1.30
      8.51       0.64      -0.92
      8.08       1.15      -0.24
      8.51       0.82      -0.56
      8.21       0.73      -0.56
      6.81       0.41      -0.19
      7.44       0.17      -0.27
      7.84       0.30      -0.09
      7.66       1.25      -0.18
      7.88      -0.13      -0.40
      7.92       0.16       0.11
      7.97       0.78      -0.57
      7.35       0.34      -0.25
      8.08      -0.04       0.01
      7.73       0.46      -0.16
      8.10       0.34       0.04
      7.77       0.33       0.72
      7.93       0.06       0.63
      7.76       0.17       0.43
      8.01      -0.31      -0.15
      8.04      -0.53      -0.58
      7.62      -0.18      -0.39
      8.42      -0.06      -0.72
      7.94      -0.20      -0.78
      7.64      -0.62      -0.39
      7.86      -0.85      -0.19
      8.45      -1.08      -1.60
      8.51      -0.35      -1.03
      8.98      -0.17      -1.15
      8.54      -0.03      -0.18
      7.51       0.20      -0.46
      8.39      -0.12       0.19
      8.16       0.34      -0.87
      7.93      -0.56      -0.21
      8.61      -0.40      -0.05
      8.50      -1.04       0.08
      8.64      -0.96       0.20
      8.78       0.05      -0.24
      7.99       0.28      -0.01
      8.25       1.30      -0.69
      8.59       1.33      -0.73
      8.91       1.22      -0.06
      9.12       0.66      -0.48
      8.99       0.68      -0.41
      8.74       1.13       0.01
      9.52       0.22      -0.63
      8.85       0.15       0.42
      8.95      -0.26       0.55
      7.97      -0.91       0.11
      8.32      -0.14       0.03
      8.48      -0.11       0.25
      8.16      -0.37       0.58
      7.72      -0.79       0.21
      8.60      -0.38       0.62
      8.38       0.02       0.55
      7.50      -0.31       0.04
      8.35       0.16      -0.31
      9.15       0.34      -0.41
      8.51       0.76      -0.04
      7.74       0.45      -0.11
      7.83       0.25       0.10
      6.93       0.33       0.25
      6.97       0.26       0.50
      7.51       0.01       0.17
      8.13       0.72       0.33
      7.37       0.04      -0.09
      7.94      -0.12       0.09
      8.35      -0.09       0.63
      8.58      -1.43       0.14
      7.17      -0.42       1.10
      7.70      -0.45       0.09
      8.11       0.16       0.40
      9.21      -0.21      -0.38
      9.08      -0.75       0.08
      8.60      -0.43      -0.41
      7.89       0.29      -0.31
      7.37      -0.63       0.53
      7.23      -0.27       0.23
      7.27      -1.24       0.90
      6.66      -0.16      -0.12
      6.50      -0.25       0.04
      6.55       0.34      -0.22
      6.80      -0.13       0.12
      7.81       0.54      -0.17
      7.84       1.02       0.21
      7.97       0.46       0.67
      8.15       0.28       0.65
      8.28       0.38       0.59
      7.91       0.55       0.97
      8.27       0.29       1.35
      8.30       0.94       0.92
      8.56       0.54       0.41
      8.58      -0.03       0.44
      8.14      -0.10      -0.20
      9.45      -0.02       0.04
      8.40      -0.42       0.19
      7.99      -0.45       0.81
      8.20      -0.35       1.03
      8.15      -0.94       0.66
      9.03      -0.50       0.18
      8.36      -0.42       0.59
      9.51      -0.60      -0.39
      8.71       0.36      -0.67
      7.89       0.26      -0.76
      6.81       0.19      -0.06
      7.45       0.34      -0.54
      8.18       0.05      -0.19
      8.49       0.02      -0.51
      7.73       0.40      -0.68
      8.33       0.04      -0.60
      7.89      -0.27       0.66
      7.87      -0.27       0.50
      6.95      -0.40       0.32
      6.82      -0.47       0.57
      7.06       0.34       0.17
      7.38      -0.10      -0.27
      6.61      -0.96      -0.49
      6.43      -0.55      -0.31
      6.56      -0.15      -0.49
      5.59      -0.19       0.14
      5.47       0.23       0.36
      5.42       0.14       0.75
      5.55      -0.04      -0.16
      5.21       0.46       0.23
      5.71      -0.62       1.15
      6.04      -0.27       0.25
      6.75      -0.57       0.21
      7.78      -1.23       0.60
      7.97      -1.19       0.41
      7.63      -0.72       0.18
      7.74      -1.53       0.38
      8.21      -0.87      -0.17
      8.49       0.25      -0.42
      7.71      -0.04      -0.22
      8.04      -0.06      -0.43
      9.03       0.61       0.62
      8.23      -0.28       0.11
      8.11      -0.57       0.32
      8.14      -0.48      -0.37
      7.94       0.06      -0.02
      8.49      -0.36       0.40
      8.56       0.36      -0.07
      8.12       0.05      -0.07
      7.74       0.52       0.26
      7.45      -0.31       0.20
      7.75      -0.53       0.46
      8.10      -0.22       0.12
      8.63      -0.22       0.29
      7.83       0.49      -0.20
      7.93      -0.13      -0.23
      8.73      -0.19      -0.76
      7.80       0.06       0.16
      8.56      -0.94       0.44
      8.15      -1.05       0.34
      7.88      -1.35       0.52
      8.44      -1.20       0.21
      8.26      -1.38       0.21
      8.75      -0.67       0.33
      8.45      -0.62      -0.00
      8.25      -0.02      -0.04
      8.05      -0.11       0.39
      8.46      -0.73       0.11
      7.92      -0.70       0.60
      7.58       0.10       0.66
      8.11       0.99       0.33
      8.84       0.53       0.04
      7.90       0.09       0.07
      8.16       0.36      -0.14
      8.50      -0.15      -0.35
      7.46       0.72      -0.80
      7.27       0.34      -0.54
      7.04       0.18      -0.29
      7.07       0.95      -1.35
      7.27       0.71      -0.13
      7.58       0.36      -0.09
      7.88       0.89       0.70
      7.89       0.48       0.33
      9.25       1.01      -0.03
      9.19       0.38      -0.29
      9.36       1.51      -0.75
     10.01       0.96      -0.75
      9.23       0.50      -0.12
      9.04       0.17      -0.23
      9.16       0.34      -0.06
      8.67       0.74      -0.18
      9.03       0.17       0.02
      9.38       0.99      -0.34
     10.19       1.47      -0.30
      8.23      -0.21      -0.05
      7.82      -1.02       0.14
      6.82       0.03       0.68
      6.44      -0.25      -0.30
      7.20      -0.44      -0.41
      8.34      -0.59      -0.42
      8.52      -0.81       0.31
      8.96      -1.59       0.08
      8.91      -0.05       0.72
      8.86      -0.00       0.68
      9.53       0.03      -0.22
      8.66       0.72      -1.14
      8.60       0.68       0.07
      7.41       0.48       0.06
      7.63       0.40      -0.32
      7.66       0.50       0.08
      8.28       1.01      -1.01
      7.38       1.08      -1.26
      7.82       0.80       0.08
      8.24       1.00       0.01
      8.49       1.73       0.30
      8.46       0.81       0.19
      9.49       1.15      -0.35
      9.53       0.99      -0.52
      8.82       1.31      -0.79
      8.42       0.59      -0.54
      8.63       0.35      -0.09
      9.55       0.52       0.17
      9.28       0.71       0.38
      9.69       0.13       0.29
      9.94       0.84       0.03
     10.68       1.27       0.07
      9.93       1.21      -0.90
      9.61       1.86      -0.84
     10.07       1.05      -0.45
      9.78       0.94      -0.94
      9.52       1.35      -0.77
      8.87       1.21      -0.94
      9.29       1.11      -0.45
      9.11       0.83      -0.24
      9.03       0.18      -0.84
      8.54      -0.24      -0.53
      8.14       0.24      -0.63
      8.14       1.05      -0.61
      9.41       0.97      -0.36
      8.07       0.53      -0.25
      7.66      -0.27      -0.38
      8.50      -0.55      -0.37
      6.87      -0.89       0.06
      7.00      -0.21       0.67
      6.64      -0.80       0.11
      6.95      -0.55      -0.13
      7.51      -0.52       0.54
      7.70      -0.29      -0.02
      7.62       0.59       0.26
      7.52      -0.60       0.75
      6.98       0.14      -0.19
      7.95       0.65      -0.26
      8.12      -0.10      -0.17
      7.38      -0.36       0.03
      7.61       0.12      -0.26
      6.91       0.43      -0.68
      7.93      -0.39      -0.59
      7.63      -0.81      -0.06
      7.63      -1.17      -0.94
      7.68      -1.04      -1.09
      7.82      -0.38      -0.57
      8.02      -0.13      -0.39
      8.32       0.53      -0.64
      8.34       0.63      -0.23
      8.62       0.29       0.17
      8.73       0.73      -0.45
      9.00       0.37      -0.07
      8.52       1.25      -0.29
      7.71       1.37      -1.34
      8.17       0.76      -0.24
      8.24       0.67      -0.21
      8.00      -0.45       0.16
      7.73       0.15      -0.48
      8.01       0.28       0.63
      8.73       0.32      -0.36
      8.01       0.25       0.38
      7.95      -0.74       0.47
      7.87      -0.94       0.78
      7.80      -0.65       0.59
      8.02      -0.24      -0.03
      8.46       0.22       0.04
      8.48      -0.22       0.19
      7.64      -0.40       0.38
      7.77       0.68      -0.06
      8.47       0.68      -0.19
      8.54       0.10       0.02
      8.12       0.29      -0.12
      8.19       0.23      -0.26
      7.38       0.64       0.02
      7.62       0.36       0.54
      6.61       0.83      -0.02
      7.39       0.17       0.24
      7.01       0.21      -0.12
      7.15       0.35       0.76
      7.79       0.61       0.50
      7.97       0.18       0.20
      7.55      -0.23      -0.06
      6.86      -1.04       0.48
      7.45      -0.67       0.56
      7.12       0.03       0.72
      8.31      -0.84       0.57
      8.27       0.00       1.07
      8.01       0.12      -0.19
      7.78      -0.18       0.16
      7.07       0.19       0.34
      6.43       0.01       0.40
      7.48      -0.34      -0.24
      7.93      -0.10       0.09
      8.36      -0.80       1.01
      7.44      -0.84       0.17
      8.57      -1.15      -0.09
      8.20      -0.22       0.65
      8.98      -0.17      -0.08
      7.57      -0.20       0.32
      8.06       0.02       0.39
      7.81      -0.23       0.53
      7.82       0.11       0.60
      7.79       0.12       1.01
      7.90       0.29       0.13
      8.23      -0.12       0.50
      8.40      -0.43       0.52
      8.06      -0.74       0.03
      8.26      -0.43       1.04
      8.66      -0.48       0.29
      8.59       0.08       0.34
      8.81       0.01       0.21
      8.43      -0.12       0.19
      9.22      -0.36       0.08
      8.15       0.68      -0.31
      8.25      -1.04      -0.23
      8.10      -0.37       0.04
      7.92      -0.57       0.41
      8.59       0.14      -0.47
      7.49       0.34      -0.18
      8.10       0.37      -0.19
      7.44      -0.06      -0.14
      7.58      -1.08      -0.32
      7.50      -0.90      -0.22
      7.60      -0.57      -0.21
      7.29      -1.08       0.50
      7.24      -1.35       0.31
      7.08      -1.32       0.11
      6.96      -1.22      -0.37
      6.99      -1.22       0.12
      7.02      -1.66      -0.50
      6.63      -0.65      -0.42
      6.24      -0.57      -0.29
      5.65      -0.33      -0.25
      6.35      -0.01       0.48
      6.65       0.78      -0.09
      6.52      -0.07       0.71
      6.66      -0.31       0.60
      7.29      -0.68       0.62
      7.24       0.05      -0.15
      7.31      -0.22       0.56
      7.98      -0.27      -0.07
      8.22      -0.56       0.17
      8.08      -1.49       0.20
      7.98      -1.00      -0.30
      8.45      -1.01      -0.10
      9.19      -0.91       0.03
      8.85      -0.52      -0.47
      8.80       0.47      -0.36
      9.27       0.09      -0.10
      9.26       0.09       0.05
      8.33      -0.05       0.17
      8.15      -0.61       0.10
      7.44       0.13       0.42
      7.60      -0.38       0.37
      8.15      -0.04       0.25
      7.51       0.35      -0.30
      7.35       0.52       0.26
      7.98       0.05       1.04
      7.89       0.04       0.40
      7.70      -0.10      -0.15
      8.31      -0.22       0.08
      8.40      -0.06       0.14
      7.27       0.46      -0.19
      8.03       0.16      -0.18
      7.64       0.18       0.02
      7.21       0.67       0.33
      7.46       0.77      -0.16
      7.93      -0.24      -0.00
      7.60      -0.91       0.38
      8.20      -0.20       0.27
      8.37      -0.99       0.39
      7.32      -0.52       0.33
      6.02      -0.55       0.01
      7.10      -0.33      -0.12
      7.60      -0.28      -0.07
      8.07      -0.58       0.05
      8.95      -1.39       0.33
      8.64      -0.53       0.24
      8.65       0.64       1.25
      8.96      -0.35      -0.21
      9.16       0.25      -0.75
      8.42       1.15      -0.05
      8.07       0.84      -0.28
      7.25       0.42       0.01
      7.86       0.53       0.03
      7.56       0.53      -1.02
      7.73       1.11      -1.35
      7.52       0.77      -0.07
      8.41       1.20       0.42
      8.53       1.51       0.22
      7.88       0.62      -0.21
      8.85       1.65       0.02
      9.17       1.14      -0.30
      8.91       1.29      -0.81
      8.78       0.62      -0.80
      8.67       0.82      -0.67
      9.83       0.71       0.56
      9.13       0.39       0.11
      9.67       0.34       0.43
      9.79       0.28      -0.28
     10.79       0.83       0.04
     10.28       1.21      -0.45
      9.56       1.79      -0.66
     10.18       1.28      -0.53
      9.67       0.95      -1.07
      9.26       0.97      -0.23
      8.80       1.33      -0.89
      8.67       1.64      -0.45
      9.17       0.05      -0.21
      8.74       0.02      -0.78
      8.40      -0.16      -1.03
      8.35       0.56      -0.93
      7.86      -0.00      -0.71
      8.71       0.79      -0.33
      9.01       0.25       0.00
      8.59       0.13       0.04
      7.90       0.10      -0.12
      7.40      -0.46       0.56
      7.65       0.27       0.22
      6.98      -0.36       0.29
      6.28      -0.33      -0.23
      7.29      -0.31       0.16
      7.57      -0.34       0.14
      7.75       0.93       0.26
      7.59       0.21      -0.39
      7.02      -0.05      -0.05
      7.54       0.48       0.17
      7.89      -0.21      -0.06
      7.88      -0.65      -0.09
      6.73      -0.11      -0.44
      6.85       0.24       0.16
      7.54      -0.10      -0.54
      7.55      -0.62      -0.28
      7.75      -1.34      -0.59
      7.24      -1.16      -1.02
      7.79      -0.76      -0.77
      7.88      -0.34      -0.67
      8.31       0.36      -0.30
      7.93       0.09      -0.44
      8.71       0.41      -0.29
      8.96       0.07      -0.22
      9.28       1.03      -0.13
      8.60       0.40       0.06
      8.10       1.12      -0.90
      8.11       1.17      -0.63
      7.89       1.08      -0.17
      7.87       0.04      -0.13
      8.30      -0.20      -0.33
      8.02       0.39       0.50
      8.85       0.60      -0.12
      8.54      -0.02       0.54
      8.14      -0.37      -0.06
      7.83      -1.01       0.46
      8.18      -0.67       0.76
      7.89      -0.05       0.54
      8.75       0.18       0.03
      8.43       0.73       0.10
      7.98       0.18       0.08
      8.06       0.29      -0.33
      7.75       1.00      -0.58
      8.26       0.34      -0.04
      7.98       0.10       0.26
      7.93      -0.00      -0.13
      7.74       0.39       0.43
      6.90       0.70       0.45
      6.55       0.58       0.38
      6.64       0.15      -0.06
      7.16       0.75       0.20
      6.97       1.18       0.08
      7.44       0.57       0.52
      7.35       0.33       0.78
      7.36       0.14       0.50
      7.20      -0.89       0.37
      7.33      -0.37       0.98
      6.74      -0.11       0.89
      8.01      -0.84       0.61
      8.73      -0.27       0.71
      8.59       0.12      -0.19
      8.10       0.08      -0.16
      7.23       0.18       0.53
      6.47       0.08       0.45
      7.25      -0.58      -0.23
      7.24      -0.18       0.04
      8.43      -0.99       0.24
      7.69      -0.76       1.05
      7.69      -1.06       0.20
      8.42      -0.60       0.31
      8.46      -0.37      -0.45
      7.93      -0.57       0.17
      8.10       0.01       0.91
      7.73      -0.07       0.28
      7.58      -0.08       0.55
      7.81      -0.10       1.49
      8.24       0.06       0.51
      8.69      -0.08       0.46
      8.49      -0.55       0.22
      8.07      -0.57      -0.63
      8.16      -0.85       1.05
      8.51      -0.83       0.57
      8.38      -0.42       0.32
      8.69       0.03       0.10
      8.52      -0.28       0.31
      8.77      -0.31      -0.01
      8.68       0.30      -0.56
      8.42       0.13      -0.21
      8.22      -0.58      -0.21
      8.11      -0.61       0.60
      8.36      -0.34      -0.35
      7.67       0.09      -0.03
      7.91       0.08       0.59
      8.05       0.06      -0.40
      7.70      -0.63      -0.08
      7.49      -1.00      -0.16
      7.80      -0.74      -0.22
      7.41      -0.96       0.11
      7.15      -1.54      -0.04
      7.41      -1.38       0.58
      6.41      -1.23      -0.16
      7.18      -0.99      -0.12
      7.13      -1.31       0.19
      7.03      -1.16      -0.13
      6.79      -0.47       0.34
      5.70      -0.24      -0.22
      5.73      -0.57       0.14
      6.44       0.25       0.47
      6.59       0.24       0.65
      6.47       0.15       0.55
      7.48      -0.53       0.62
      7.11      -0.50       0.31
      7.32       0.42       0.23
      7.53      -0.39       0.34
      7.86      -0.67      -0.21
      8.02      -1.13       0.00
      7.78      -0.67      -0.54
      8.09      -1.13      -0.31
      8.76      -1.38       0.03
      9.37      -0.12      -0.43
      8.92      -0.00      -0.89
      9.28       0.21      -0.48
      8.95      -0.21      -0.62
      8.59       0.01      -0.22
      8.21      -0.51       0.25
      7.36      -0.17       0.30
      7.27      -0.62       0.35
      7.74      -0.17       0.27
      8.00       0.51       0.14
      6.99       0.60      -0.09
      8.10       0.49       0.49
      7.67       0.31       0.25
      7.75       0.12      -0.08
      8.43       0.04       0.30
      8.36      -0.09       0.40
      7.65       0.38       0.13
      7.89       0.20      -0.37
      7.77       0.14       0.08
      7.37       0.52      -0.17
      7.29       0.04       0.06
      7.92       0.32       0.26
      7.48      -0.77      -0.50
      8.64      -0.29      -0.22
      8.34      -0.67       0.35
      7.49      -0.72       0.24
      6.70      -0.60       0.14
      6.91      -0.52       0.02
      6.92      -0.20       0.16
      8.55      -0.15      -0.49
      9.25      -1.16       0.23
      8.58      -0.80       0.14
      8.72       0.32       0.77
      9.09       0.01       0.19
      8.89      -0.02      -0.53
      8.53       0.84      -1.06
      8.28       0.80      -0.35
      7.28       0.26      -0.19
      7.41       0.99       0.22
      7.65       0.80      -0.55
      8.13       1.03      -0.74
      7.61       1.09      -0.90
      7.75       1.13       0.47
      8.60       1.05       0.25
      8.51       1.43       0.21
      8.44       0.89       0.25
      9.23       1.34      -0.18
      9.06       0.91      -0.70
      8.72       1.00      -0.97
      8.38       0.95      -0.76
      9.22       0.73      -0.24
      9.05       0.32       0.81
      9.45       0.68       0.51
      9.67       0.32       0.24
     10.64       0.87      -0.02
     10.33       1.43      -0.44
      8.59      -0.07       0.78
      8.97      -0.26       0.29
      8.34      -0.12       0.16
      7.12      -0.44      -0.07
      7.84       0.02       0.02
      8.24      -0.61       0.12
      8.63       0.30       0.50
      8.39       0.10      -0.25
      8.48       0.84      -0.21
      8.92       0.30      -0.08
      8.64       0.04      -0.10
      9.33      -0.02      -0.50
      9.14       0.01      -0.62
      9.16       0.38       0.03
      8.49       0.15      -0.28
      8.94       0.43       0.20
      9.03       0.65      -0.60
      9.31       1.35      -0.17
      9.04       1.43      -0.34
      8.81       0.25       0.21
      8.56      -0.06       0.56
      9.06       0.45       0.60
      8.77       0.66       0.15
      8.98       0.26       0.56
      8.69       0.65       0.07
      8.61       0.27      -0.20
      8.98       0.24      -0.72
      8.87       0.39      -1.02
      7.97       0.50      -1.04
      7.79       0.27      -0.48
      9.24       0.09      -0.96
      8.91       0.79      -0.66
      9.32       0.67      -0.33
      9.11       0.61      -0.88
      8.07       0.87      -0.05
      8.64       1.45      -0.54
      8.08       0.82      -0.58
      8.40       0.87      -0.62
      8.52       0.57      -0.37
      8.84       0.57      -0.44
     10.09       0.21      -0.18
      9.14       0.68      -0.20
      8.98       0.73      -0.16
      9.42       0.58      -0.34
      8.22       0.39      -0.90
      8.72      -0.21      -0.33
      8.32      -0.41      -0.36
      7.57      -0.36      -0.37
      7.15      -0.42      -0.25
      7.21      -0.11      -0.02
      7.98      -0.96       0.34
      7.66      -0.55      -0.20
      7.31      -1.33       0.47
      7.66      -1.26       0.39
      8.09      -1.14      -0.17
      8.74      -1.54       0.01
      7.89      -1.19      -0.07
      8.29      -1.10      -0.73
      8.30      -0.27      -0.43
      8.33       0.32      -0.17
      8.30       0.40      -0.04
      7.56       0.00       0.31
      8.27       0.26       0.40
      8.41      -0.14       0.53
      8.26      -0.12      -0.67
      7.19      -0.41      -0.49
      7.08      -0.37      -0.85
      7.73      -0.45      -1.12
      7.86      -0.22       0.23
      7.73      -0.00      -0.47
      7.74       0.20      -0.32
      8.22       0.12      -1.07
      7.67       0.28      -0.60
      7.71       0.63      -0.35