# vtk DataFile Version 3.0
Low resolution, disturbed wind of YZ Slice at time = 6 seconds.
ASCII
DATASET STRUCTURED_POINTS
DIMENSIONS     1   101    35
ORIGIN    1756.00    -500.00       5.00
SPACING       9.71      10.00      10.00
POINT_DATA            3535
VECTORS DisYZ float
      5.05       0.48       0.23
      4.97       1.05      -0.05
      5.14       0.43       0.04
      5.83       0.75      -0.19
      6.14      -0.03       0.14
      5.23       0.49       0.37
      5.46      -0.43       0.16
      5.32      -0.58       0.07
      5.38      -1.50      -0.36
      6.09      -2.15       0.16
      5.64      -0.94       0.15
      6.68       0.65      -0.33
      5.03      -0.46      -0.08
      4.57      -0.94       0.30
      3.60      -0.31       0.81
      3.17      -0.46       1.22
      3.09       1.64       0.09
      3.73       0.73       0.06
      4.43       0.16      -0.29
      4.05       1.74       0.16
      4.82       0.05       0.62
      5.54       0.29       0.34
      5.84      -0.20       0.40
      5.11      -0.53       0.89
      6.08       0.36       0.61
      5.45      -0.82       0.44
      6.70      -0.84       0.93
      5.72      -0.88       0.59
      5.35      -0.32       0.51
      5.20      -0.81       0.77
      5.64       0.62       0.80
      5.59       0.81       1.15
      6.46       0.38       0.07
      5.69      -0.25       0.13
      5.02      -0.21      -0.23
      4.64       0.44      -0.18
      5.05       1.00       0.59
      5.28       1.04      -0.13
      6.14       1.45       0.49
      5.86       0.35       0.43
      5.39       0.86       0.03
      5.13       1.40       0.89
      4.97       1.23      -0.00
      4.39       1.37       0.24
      4.48       1.67       0.30
      4.80       1.48       1.48
      4.14       1.74       0.64
      4.25       1.71       0.50
      3.89       1.05       1.23
      3.34      -0.00       0.92
      2.86      -0.11       0.17
      4.11       0.12       0.42
      4.71       0.92       0.13
      3.92       0.60      -0.69
      3.90       0.50      -0.18
      4.14       1.56       0.52
      4.78       1.24      -0.14
      5.08       0.26       0.29
      3.73      -0.37      -0.07
      3.27      -0.42      -0.27
      3.65       0.16      -0.18
      2.29       0.35      -0.48
      1.79       0.85       0.33
      2.72      -0.01       0.02
      1.70       0.19      -0.56
      2.17      -0.36       0.40
      2.74       0.18       0.68
      2.71       0.85      -0.19
      3.37       1.08      -0.05
      2.93       0.83       0.28
      3.63       0.16       0.47
      3.10       0.77       0.34
      4.03       1.16       0.10
      3.76       0.89      -0.64
      4.80      -0.62       0.44
      3.69       0.08       0.07
      3.48      -0.01      -0.24
      5.02      -0.06      -0.67
      3.90      -0.13      -0.14
      3.47       0.20      -0.18
      3.15      -1.26      -0.51
      2.93      -0.82      -0.23
      2.70       0.12       0.25
      3.53      -0.19       0.59
      3.97      -0.78       0.05
      4.72       0.48       0.53
      3.69       0.48      -0.10
      2.90       0.36       0.88
      3.61       1.60       0.52
      3.51       1.06       0.44
      4.01       0.87       0.72
      3.93       1.63      -0.16
      3.77       0.78      -0.39
      3.30       1.43       0.02
      3.23       0.36      -0.28
      2.55       0.23      -0.26
      2.95       1.81      -0.55
      2.70       0.69      -1.18
      2.00      -0.06      -0.57
      2.79      -0.89       0.24
      3.72      -0.71       0.21
      5.74       0.18      -0.54
      6.65       0.42       0.29
      6.50       0.20       0.42
      6.62       0.38      -0.67
      6.59       0.36       0.55
      6.19       0.10       0.56
      5.60      -0.07      -0.32
      6.38       0.47       0.22
      7.26      -0.92       0.31
      6.20      -0.61      -0.30
      6.79      -0.24      -0.18
      7.76      -0.09      -0.47
      6.53       0.39       0.09
      6.16       0.36      -0.21
      4.45      -1.00       0.47
      4.71       0.07       0.59
      4.20       0.38       0.58
      5.40       1.18       0.13
      6.39       1.28       0.02
      5.93       0.23       0.16
      6.91       0.26       0.28
      6.96      -0.30      -0.13
      7.64      -0.65       0.82
      7.77       0.01       0.73
      6.16      -0.54       0.18
      6.82      -1.00      -0.15
      7.77      -0.67       0.20
      6.66      -0.37       0.70
      6.11      -0.64       0.54
      7.23      -0.15       0.78
      5.64       0.42       0.84
      6.14      -0.06       0.89
      5.85      -0.26      -0.10
      6.34       0.20      -0.43
      5.68      -0.15       0.25
      5.29      -0.16      -0.12
      6.34       0.04       0.30
      6.81       0.21       0.07
      7.06       0.83       0.05
      6.87       0.42      -0.30
      7.00       1.47       0.37
      6.15       1.63       0.38
      5.61       1.46      -0.25
      5.47       2.14       0.09
      5.46       1.80       0.33
      5.59       1.83       0.54
      4.79       0.68       0.40
      5.31       0.99       0.41
      5.89       1.68       0.62
      4.39       1.61       0.58
      4.27       0.96      -0.55
      4.70       0.22       0.62
      5.63       0.74       0.62
      5.75       1.33       0.07
      5.96       1.39       0.15
      5.17       0.62      -0.41
      4.79       1.95      -0.43
      5.25       0.35      -0.21
      6.52      -0.21       0.05
      4.13      -0.57      -0.16
      4.23      -0.19      -0.68
      3.95      -0.18      -0.67
      4.33       0.46       0.55
      4.99      -0.63       0.35
      3.78      -0.74       0.47
      3.52      -0.46      -0.35
      2.75       0.05       0.38
      4.06       0.13      -0.89
      3.95       0.35      -0.33
      4.50       0.25      -0.14
      4.63      -0.51      -0.03
      4.84       0.74       0.30
      4.18       0.42      -0.29
      3.58       0.28      -0.41
      4.19      -0.46       0.00
      5.69       0.82       0.35
      5.49       1.02       0.12
      5.07       0.46      -0.64
      4.80       0.22       0.07
      5.08       0.50       0.78
      4.88      -0.73       0.26
      4.39      -0.57      -0.26
      4.59      -0.49       0.67
      3.89      -1.04       0.43
      5.05      -0.30       0.83
      5.01       0.04       0.54
      5.04       0.37      -0.42
      4.63       0.90       0.53
      5.45       0.65      -0.00
      4.52       1.25      -0.40
      4.41       1.46      -0.76
      5.54       1.03      -0.23
      4.27       0.43      -0.94
      4.13      -0.19      -0.07
      4.11       0.32      -0.13
      5.24       1.26      -0.17
      3.63       0.37      -0.17
      3.13       0.53      -0.56
      3.99      -0.63      -0.55
      4.43      -1.00      -0.54
      5.24      -0.92      -0.15
      6.93       0.23      -0.06
      6.31       0.32      -0.45
      7.10      -0.18      -0.35
      6.68       0.55      -0.34
      5.89       0.43      -0.20
      5.63       0.40      -0.45
      6.64       0.22       0.58
      7.34       0.59       0.54
      7.91       0.38       0.64
      8.01      -0.27       0.20
      7.84      -0.09      -0.06
      7.83      -1.20       0.27
      6.31      -0.19       0.33
      7.48       0.77       0.12
      6.06       0.36       0.40
      5.89       0.07       0.71
      6.16       0.51       0.19
      6.69       0.64      -0.19
      7.73       0.33       0.14
      7.51      -0.18       0.53
      7.82       0.71       0.30
      7.61       0.17       0.39
      7.80       0.11       1.03
      6.63       0.05       0.59
      7.34      -0.15      -0.07
      6.86      -0.12       0.29
      6.89      -0.53      -0.10
      8.13      -0.40       0.34
      8.02       0.03       0.73
      7.19       0.68       0.52
      6.95       0.37      -0.04
      6.67       0.06      -0.02
      6.39      -0.23       0.06
      6.20      -0.07      -0.28
      5.82       0.38       0.25
      6.46       0.00       0.01
      7.21       0.13       0.07
      6.67      -0.14      -0.37
      7.46       1.08      -0.15
      7.50       1.67       0.10
      7.44       1.43      -0.14
      6.65       1.85       0.57
      6.35       1.04       0.89
      6.41       2.24      -0.19
      5.52       0.96       0.14
      5.08       1.34      -0.22
      5.51       0.16       0.21
      5.10       1.27       0.00
      4.86       1.83       0.14
      4.74       0.46       0.00
      5.10       0.54       0.10
      5.56      -0.19       0.56
      6.11      -0.08       0.31
      5.63       1.30      -0.18
      5.73       0.88      -0.40
      5.88       0.42       0.22
      6.29       1.27       0.23
      6.84      -0.72      -0.11
      6.47      -0.36       0.42
      6.11      -0.92       0.46
      5.15      -0.39      -0.14
      4.66       0.04      -0.18
      5.16       0.03       0.48
      5.27      -0.85       0.56
      4.95      -0.77      -0.75
      3.51      -0.31       0.37
      3.00      -0.28       0.54
      4.26       0.04      -0.27
      6.28       0.73      -0.35
      4.88       0.11      -0.65
      5.27       0.27       0.15
      4.92      -0.29       0.09
      4.86       0.76       0.14
      5.12       0.19       0.11
      5.44      -0.41      -0.06
      5.46      -0.07       0.11
      5.49       0.29       0.18
      4.49       1.48       0.37
      4.12       0.97       0.33
      3.97       0.32       0.68
      3.87       0.62       0.26
      5.10      -0.39       0.48
      5.55      -0.17      -0.11
      4.84      -0.77       0.29
      5.12      -0.43       0.16
      5.84       0.35       0.59
      5.70      -0.45      -0.23
      4.82       0.67       0.08
      4.63       0.33      -0.13
      5.50      -0.10       0.52
      5.48       1.22      -0.39
      5.56       1.45      -0.56
      4.95       1.05      -0.99
      5.02       1.71      -0.57
      5.35       0.15      -0.39
      5.38       1.09      -0.48
      4.52       0.10      -0.85
      5.14      -0.44      -0.74
      4.27      -0.10      -0.20
      5.60      -0.85      -0.42
      4.98      -0.68      -0.16
      8.13      -0.52      -0.04
      7.66       0.18      -0.26
      7.51       0.22      -0.75
      6.63       0.62      -0.14
      7.53       0.38      -0.12
      6.62       0.02      -0.22
      7.25       0.81      -0.18
      7.51      -0.48       0.44
      8.60       0.14       0.23
      8.25      -0.20      -0.06
      8.06      -1.18       0.64
      8.05      -1.51       0.39
      7.66      -0.68       0.72
      6.51      -0.30       1.38
      7.35       0.35       1.25
      7.03       0.95      -0.30
      5.82       1.14       0.37
      6.71       0.33      -0.18
      7.96       0.02       0.65
      6.97       0.87       0.02
      7.29       0.26       1.03
      7.47       0.53       0.88
      7.68       0.18       0.90
      7.54       0.38       0.53
      6.33      -0.92       0.59
      6.60       0.71      -0.05
      6.62       0.24       0.48
      6.47      -0.04       0.02
      7.19      -0.06       0.55
      7.26      -0.14       0.65
      7.32      -0.22       0.24
      6.53       0.02      -0.08
      6.82       0.09      -0.13
      6.55       1.20      -0.30
      7.13       0.62       0.06
      6.72       0.66       0.54
      7.22       1.24       0.61
      7.01       1.12       0.15
      7.86       0.94       0.57
      6.71       0.97       0.37
      6.36       0.88       0.38
      6.03       1.62       0.05
      5.66       1.32      -0.03
      5.28       1.59       0.01
      6.91       0.86      -0.29
      6.91       1.87      -0.60
      6.38       0.56      -0.25
      6.71       0.76      -0.33
      6.63       0.98       0.26
      4.80       1.04       0.18
      6.06       0.57       0.12
      6.43       0.82      -0.15
      6.02       0.75       0.01
      6.18       0.98       0.13
      7.45       0.70       0.03
      7.00       0.01       0.31
      7.03       0.48       0.23
      6.73      -0.31       0.68
      6.03      -0.59       0.21
      6.84      -0.60       0.53
      6.64       0.14       0.12
      5.33       0.26      -0.24
      6.23      -0.10       0.30
      5.34      -0.25       0.41
      5.38      -0.53      -0.08
      5.06       0.21       0.31
      4.25       1.48       0.45
      4.88       1.16      -0.72
      5.71      -0.06       0.17
      6.37      -0.30      -0.07
      6.13       0.47       0.02
      6.52      -0.18       0.86
      6.24      -1.23       0.47
      6.64      -0.04       0.64
      6.76       0.21       0.21
      5.88       0.65       0.58
      5.21       0.47       0.09
      6.13       0.82       0.34
      5.81       0.52       0.73
      4.39       0.43       0.12
      5.36       0.16       0.58
      5.63       0.16       0.26
      5.82       0.54       0.07
      5.03      -0.25      -0.29
      5.82      -0.73      -0.98
      4.73      -1.00       0.34
      6.34       0.13      -0.17
      5.63      -0.02      -0.08
      5.17      -0.46      -0.29
      5.46      -0.07      -0.51
      5.27       0.78      -0.42
      5.60       1.05      -0.24
      5.25       0.56      -0.38
      6.35       1.13      -0.13
      5.27       0.36       0.27
      5.13      -0.88      -0.52
      4.41      -0.20      -0.42
      5.00      -1.03      -0.85
      5.00      -0.77      -0.13
      6.08      -0.41      -0.22
      6.79      -0.23      -0.52
      7.52      -0.35       0.33
      6.62       0.30       0.43
      6.97       0.33      -0.29
      6.96       0.43      -0.29
      7.43       0.68       0.18
      6.96       0.28      -0.07
      7.29       0.31      -0.15
      7.62       0.25       0.87
      8.53       0.53       0.34
      9.58       0.34       0.40
      8.38      -0.28       0.94
      8.18      -0.02       0.59
      8.27      -0.28       0.29
      7.01       0.29       0.05
      8.17      -0.49       0.69
      7.04       0.84       0.16
      7.82       0.83       0.53
      7.44       0.47      -0.07
      7.81       0.86      -0.08
      7.39       1.63       0.71
      7.69       0.32       0.25
      8.48       0.31       0.52
      8.04      -0.14       0.39
      7.62       0.36       0.07
      6.65       1.12       0.74
      6.88       0.71       0.68
      7.14      -0.65       0.47
      7.98       0.30       0.64
      8.30       0.49       1.29
      8.67       0.02       0.14
      7.50      -0.28      -0.04
      6.41       0.07       0.20
      7.47       0.62       0.18
      8.26       0.31      -0.03
      7.86       1.09       0.29
      6.37       0.86      -0.08
      7.50       0.20       0.05
      7.47       0.48       0.57
      6.94       0.78       0.11
      7.29       0.79      -0.11
      7.00       0.95      -0.63
      5.96       0.63       0.18
      6.05       1.90      -0.76
      5.72       1.52      -0.94
      5.83       0.69      -0.85
      6.20       0.65      -1.10
      7.15       0.61      -0.93
      8.09       1.05      -0.31
      6.56       0.78      -0.29
      6.80       1.08      -0.06
      7.07       0.92      -0.28
      7.22       1.21       0.13
      5.45       0.58       0.41
      6.01       0.20      -0.03
      6.41       1.12       0.31
      8.05      -0.72      -0.10
      7.42      -0.56      -0.14
      6.08       0.06       0.81
      5.75      -0.25       1.00
      7.33       0.10      -0.07
      7.36       0.45      -0.38
      7.49      -0.31       0.08
      6.57       0.48      -0.36
      5.55      -0.23       0.67
      5.35      -0.17       0.54
      5.70       0.05       0.69
      4.77       0.80       0.27
      6.19       0.90      -0.20
      5.71       0.68      -0.65
      6.36      -0.45       0.29
      6.23      -0.32      -0.10
      7.05      -0.09       0.46
      7.55      -0.69       0.57
      8.27       0.78       0.94
      6.67       0.94       0.87
      6.69       0.51       0.21
      5.97       0.30       0.55
      6.36       0.43      -0.07
      5.33       1.41       0.10
      6.11       0.25       0.33
      5.19       0.78       0.22
      6.14       1.09       0.89
      6.32       0.99      -0.47
      4.37       1.02       0.04
      6.02      -0.09      -0.25
      5.89      -0.78      -0.33
      7.25      -1.00      -0.04
      6.48      -0.48       0.15
      6.38      -0.11      -0.21
      6.04       0.56      -0.35
      6.36       1.13      -0.62
      5.86       0.90      -1.08
      5.74      -0.42      -0.41
      5.85      -0.30      -0.70
      5.63       0.40      -0.42
      4.44      -0.03      -0.35
      5.33      -0.77       0.12
      6.22      -1.67      -0.23
      6.34      -1.12       0.42
      6.67       0.03      -0.27
      6.74       0.27       0.30
      7.48       0.00       0.37
      6.94      -0.62      -0.38
      7.22      -0.16      -0.43
      7.40      -0.42      -0.21
      8.45       0.23      -0.47
      8.80       0.30       0.12
      9.01      -0.02       0.86
      8.89      -0.39      -0.24
      8.61      -0.11       0.33
      8.81      -0.05       0.33
      7.72       0.27       0.53
      8.50      -0.58       0.56
      8.45       0.03       0.55
      8.43      -0.41       0.56
      7.32       0.53       1.03
      6.75       1.24       0.60
      7.30       1.65       0.15
      7.18       0.96       0.00
      7.29       1.16       0.49
      8.26       1.43       0.89
      8.70       0.95       0.46
      8.94       1.63       0.50
      8.91       0.08       0.87
      7.90       0.54       0.27
      8.11       0.54       0.28
      8.02       0.93       0.80
      7.37       0.19       0.66
      8.03      -0.21      -0.09
      7.76       0.59       0.24
      7.64       0.46       0.82
      8.02       0.87       0.35
      8.02      -0.06       0.06
      8.25       0.44      -0.33
      7.94       1.23      -0.26
      7.90       0.53      -0.11
      7.51       0.53      -0.27
      7.13       0.03      -0.98
      6.99       0.46      -0.02
      8.23       0.59      -0.30
      7.52      -0.60      -0.51
      6.84       0.56      -0.65
      5.76       1.42      -0.10
      5.72       1.82      -0.61
      6.12       2.43      -0.68
      5.77       0.79      -1.25
      6.26       0.78      -0.38
      7.62       0.63      -1.14
      7.61       0.09      -0.38
      7.41       0.53      -0.99
      7.02       1.61      -0.07
      6.31       1.09      -0.01
      7.53       1.26      -0.24
      7.37      -0.04       0.93
      6.15      -0.23       0.72
      7.54       0.83       0.65
      7.97       0.02       0.04
      7.87       0.03       0.53
      6.90       0.45       0.78
      6.85       0.15       0.26
      7.77       0.53      -0.14
      7.67       0.93      -0.26
      7.15       0.97      -0.51
      6.60       1.30      -0.26
      6.38       0.13       0.09
      6.55      -0.31       0.59
      5.13       0.59       0.67
      5.07       0.36       0.02
      5.27       0.08       0.43
      6.13       0.22      -0.40
      7.26       0.41      -0.15
      6.24      -0.09       0.02
      6.28      -0.12       0.01
      7.17       0.12       0.04
      7.85      -0.19       0.98
      7.38       0.75       0.65
      6.88       0.31       0.86
      6.66       0.41       0.77
      7.13       0.55      -0.35
      7.17       0.37       0.55
      7.03      -0.11       0.44
      6.13       0.56       0.26
      6.56       0.40       0.40
      6.80       0.61       1.06
      6.01       1.10      -0.05
      6.10      -0.57      -0.10
      6.14       0.28      -0.33
      7.11       0.89       0.48
      6.93       0.14      -0.20
      6.86       0.00      -0.03
      6.41       0.59      -0.54
      5.94       0.72      -0.86
      5.51       1.07      -0.73
      5.81       0.22      -0.89
      5.99      -0.49      -0.87
      6.46      -0.20      -1.13
      5.78      -0.60      -0.33
      6.56      -2.01       0.05
      7.37      -0.43       0.06
      6.85      -1.26      -0.21
      6.19       0.01      -0.64
      6.75      -0.60       0.13
      7.19      -0.41      -0.21
      7.55      -1.18       0.16
      7.94      -0.83       0.35
      7.94      -0.06      -0.67
      7.38       0.58      -0.10
      8.24      -0.15       0.57
      9.03       0.26       0.87
      8.04       0.52       1.04
      8.48      -0.28       0.62
      8.87      -1.19       1.13
      8.67      -0.74       1.67
      8.61      -0.03       0.33
      8.79      -0.13       1.32
      7.26      -0.33       0.54
      8.01      -0.10       1.06
      7.94      -0.15       0.41
      7.06       0.75      -0.22
      7.60       0.72      -0.40
      8.07       0.97      -0.58
      8.52       0.68       0.74
      9.22       0.89       1.04
      9.45       0.59       0.41
      9.17       0.15       1.02
      8.09       0.45       0.60
      8.23       0.74       0.23
      7.29       0.77       0.49
      7.80       0.58       0.55
      8.28       0.31       0.42
      7.54       0.30      -0.02
      7.75       1.38       0.33
      8.41       0.10      -0.53
      9.64      -0.50       0.22
      8.11      -0.33      -0.33
      8.53       0.86      -0.34
      7.26       0.26      -0.02
      7.87      -0.34      -0.71
      7.60       0.03      -0.60
      8.36       0.45      -0.35
      8.30       0.28      -0.84
      7.34       0.77      -0.77
      6.10       1.03      -1.06
      5.68       0.76      -0.50
      6.54       0.78      -0.70
      7.12       0.64      -0.86
      6.31       1.52      -0.78
      6.59       0.98      -0.64
      7.27       0.50      -0.18
      7.48       0.56      -0.54
      7.09       0.63      -0.82
      7.18       0.36      -0.74
      6.83       1.19      -0.72
      7.32       0.23      -0.14
      8.00       0.38      -0.07
      6.46       0.19       0.31
      7.39      -0.42       0.75
      7.94       0.55       0.29
      7.78       0.11       0.83
      7.54       1.54       0.37
      8.16       0.10       0.32
      7.72       1.03      -0.73
      7.72       0.61      -0.01
      7.03       0.67       0.13
      6.46       0.91      -0.17
      7.40       0.47      -0.19
      5.35       0.63       0.76
      7.17       0.10       0.87
      5.82      -0.34      -0.03
      5.45      -0.65      -0.09
      6.21       0.98       0.82
      6.71       0.16       0.02
      5.32      -0.44      -0.21
      7.11      -0.53      -0.51
      7.06      -0.15       0.13
      7.49       0.02       0.73
      7.88       0.30      -0.19
      7.48      -0.22       0.63
      7.87      -0.89      -0.16
      7.50      -0.32       0.22
      7.49      -0.27       0.07
      6.34       0.67      -0.17
      6.15       0.39       0.38
      5.97      -0.01       0.22
      6.93       1.26       0.44
      5.89       0.58       0.51
      5.78       0.83      -0.11
      5.94       1.22      -0.21
      6.42      -0.39      -0.50
      7.76       0.42      -0.21
      6.86       0.10      -0.28
      7.61       0.39      -0.17
      6.63      -0.17      -0.75
      6.04       0.05      -0.50
      6.00       0.15      -0.94
      6.42      -0.23      -0.62
      5.86      -0.11      -1.09
      7.45      -0.56      -0.54
      6.48      -1.15       0.16
      6.61      -1.17       0.42
      7.44      -0.65      -0.11
      6.98       0.29      -0.10
      7.19       0.01       0.57
      7.92      -0.90      -0.29
      7.56      -0.43      -0.25
      7.76      -0.30      -0.18
      8.31       1.14      -0.10
      8.23       0.35      -0.06
      8.79       0.79       0.47
      8.59      -0.41       1.45
      8.55      -0.27       0.87
      8.71      -1.01       0.52
      8.24      -0.65       1.14
      8.56      -0.92       1.00
      8.58       0.59       1.02
      8.41      -0.27       0.98
      7.93       0.42       0.58
      7.82       0.13       0.36
      8.39       0.45       0.23
      7.57      -0.26      -0.38
      7.85       0.73      -0.37
      7.65      -0.41       0.25
      8.71       0.90      -0.10
      9.79       0.64       0.32
      9.56      -0.35      -0.23
      9.47       0.24       0.06
      9.77       0.39       0.01
      9.45       0.57       0.91
      9.40       0.80       0.75
      8.96       1.53       0.94
      8.70       1.22       0.90
      8.01       1.75       0.29
      8.00       1.71      -0.70
      7.63      -0.01      -0.34
      8.85      -0.30      -0.11
      8.18       0.99      -0.10
      7.78      -0.04      -1.02
      7.95       0.44       0.33
      7.38       0.87      -0.85
      7.23       0.34      -0.22
      8.39       0.98      -0.76
      8.66       0.30      -0.99
      7.59      -0.41      -1.15
      5.82      -0.15      -0.89
      5.81       1.17      -0.37
      5.91       0.86      -1.37
      7.17       1.06      -0.82
      6.27       0.55      -0.80
      6.29       0.89      -0.45
      6.46       0.62      -1.05
      8.36       0.78      -0.59
      8.13      -0.04      -1.30
      8.54       0.21      -0.32
      7.38      -0.05       0.03
      6.98       0.26      -0.40
      7.77       0.43      -0.44
      6.78      -0.75       0.72
      6.94       0.33       0.13
      7.90       0.26       0.01
      8.27      -0.27       0.11
      7.02       0.64       0.75
      7.23       0.11       0.56
      6.69       0.43       0.73
      6.97       0.77       0.16
      7.93       0.89      -0.06
      6.27       0.14       0.15
      5.77       0.96      -0.47
      6.01       0.97      -0.19
      6.28       0.74      -0.28
      6.92      -0.03       0.34
      6.44       0.34       0.17
      6.72      -0.46       0.39
      6.66      -0.39       0.28
      6.08      -0.48      -0.46
      6.38       0.10      -0.65
      6.73       0.16      -0.19
      7.75      -0.12      -0.76
      7.64      -0.10       0.52
      7.16       0.08      -0.32
      7.92      -0.22       0.21
      8.17       0.57       0.01
      7.68      -0.60       0.84
      7.44      -0.35       0.05
      7.19       0.21       0.41
      6.94       0.59       0.35
      6.05       0.38       0.12
      5.77       1.23       0.27
      6.83       1.24      -0.85
      7.68       1.11      -0.50
      7.78       1.16      -0.52
      6.92       1.30      -0.12
      7.96       1.42      -0.33
      7.31       0.28      -0.36
      7.05       1.02      -0.10
      7.58      -0.22      -0.56
      7.33       0.09       0.25
      6.13       0.57      -0.57
      6.16      -0.05      -0.58
      7.02      -0.38      -0.15
      8.06      -0.76      -0.45
      7.10      -0.08       0.31
      7.38      -0.98       0.04
      8.54       0.16       0.50
      8.38       0.69       0.37
      8.26      -0.02       0.25
      7.22       0.56      -0.04
      7.53       0.40       0.05
      8.82       0.59       0.20
      8.86      -0.07       0.35
      8.26      -0.47       0.64
      9.19      -0.13       0.72
      9.51       0.31       0.38
      8.62      -0.14       1.02
      8.36       0.09       0.56
      8.22      -0.42       1.08
      8.84       0.05       0.36
      8.08       0.59      -0.08
      8.01       0.40       0.12
      8.75       0.63       0.62
      8.37       0.61      -0.45
      8.31       0.45      -0.05
      7.35       0.96      -0.19
      8.00       0.40      -0.13
      8.95       0.83       0.18
      8.74       0.12      -0.46
      9.99       0.66       0.19
      9.85       0.12      -0.61
      8.87       0.45       0.23
      9.27       1.14      -0.40
      8.93       0.90      -0.04
      8.52       1.54      -0.31
      8.54       1.10       0.29
      8.09       0.78       0.19
      7.88       1.48      -0.44
      7.53       0.60      -0.22
      8.74       1.16       0.07
      8.77       0.10      -0.16
      7.73      -0.77      -0.99
      8.07      -0.53      -0.23
      8.28       0.02      -0.64
      8.62       0.09      -0.89
      8.67       0.88      -0.51
      8.05       0.97      -0.16
      8.24       0.42      -0.68
      6.95      -0.18      -0.27
      6.21       0.20      -1.56
      4.43       1.42      -1.25
      5.55       0.91      -1.16
      6.81       1.43      -0.54
      7.03       1.79      -0.67
      6.62       0.52      -0.23
      6.50       0.83      -0.94
      6.93       0.80      -0.92
      8.41      -0.23      -0.26
      8.31       0.19       0.06
      6.48      -0.13       0.05
      6.65       0.21       0.13
      6.32      -0.18      -0.75
      8.01      -0.30      -0.41
      7.23       0.39       0.77
      7.59       0.50       0.53
      8.22      -0.27       0.38
      8.49       0.58       1.01
      7.70       0.35      -0.20
      7.91       0.63      -0.09
      7.10       0.30       0.10
      7.55       0.23       0.37
      6.99       0.79       0.08
      7.09      -0.31      -0.11
      5.56       0.00       0.40
      5.91       0.19       0.72
      6.81       0.15       0.59
      7.13      -0.40       1.10
      6.95       0.84      -0.14
      6.63       0.45       0.41
      7.89      -0.20       0.21
      7.75      -0.51       0.05
      8.15      -0.95       0.58
      8.32      -0.56       0.52
      9.85      -0.11       0.02
      8.31       0.80      -0.24
      9.03       0.53       0.43
      7.40       0.29       0.74
      7.16       0.19       0.29
      7.80      -0.00      -0.47
      7.29       1.18      -0.87
      7.51       1.52      -0.15
      5.99       1.08      -0.19
      7.59       1.25      -0.27
      6.71       0.70      -0.58
      7.39       1.50      -0.24
      6.87       0.33      -0.18
      7.09       1.29      -0.75
      7.26       0.99      -0.75
      7.47       1.02      -0.36
      7.48       0.58      -0.25