# vtk DataFile Version 3.0
Low resolution, disturbed wind of XZ Slice at time = 3 seconds.
ASCII
DATASET STRUCTURED_POINTS
DIMENSIONS   413     1    35
ORIGIN     -77.70       0.00       5.00
SPACING       9.71      10.00      10.00
POINT_DATA           14455
VECTORS DisXZ float
      4.24      -0.22       0.61
      4.98      -0.09       0.47
      4.53      -0.13      -0.15
      4.22      -0.71      -0.21
      4.61      -0.25      -0.35
      4.66       0.21       0.42
      3.55      -0.30      -0.34
      4.28      -0.12      -0.80
      4.77      -0.42      -0.08
      4.51       0.00      -0.27
      3.90       0.19       0.01
      3.93       0.12       0.50
      4.79      -0.35       0.03
      5.27      -0.14       0.35
      3.83      -0.78       0.17
      4.63      -0.54      -0.36
      4.53      -0.99       0.09
      5.40      -1.50      -0.61
      5.25      -1.39      -0.28
      5.18      -0.96      -0.76
      6.10      -1.04      -1.02
      5.23      -1.33      -0.38
      5.19      -1.31      -0.34
      5.25      -1.27      -0.13
      5.83      -0.87      -0.05
      6.25      -0.26       0.55
      6.53      -0.57       0.33
      6.17      -0.29      -0.27
      6.06      -0.99      -0.75
      5.71      -1.29      -0.44
      5.31      -1.16       0.02
      4.13      -0.29       0.01
      4.88      -0.26       0.43
      5.70       0.10       0.08
      5.53      -0.37       0.03
      5.42      -0.17      -0.26
      4.33       0.04      -0.14
      4.05       0.19       0.53
      4.37       0.33       0.09
      4.52      -0.26      -0.07
      4.57      -0.32      -0.47
      4.56      -0.36      -0.15
      5.03      -0.57       0.46
      4.44      -0.46       0.35
      4.92      -0.28      -0.14
      5.45      -0.28      -0.26
      4.90       0.45      -0.02
      6.05       0.97      -0.08
      5.68       0.50      -0.03
      5.16      -0.02      -0.24
      5.08      -0.52       0.10
      4.26      -0.69       0.19
      4.67      -0.46       0.37
      4.31      -0.87      -0.05
      3.90      -0.37      -0.11
      3.98       0.22       0.41
      3.84      -0.02       0.26
      4.53      -0.07       0.11
      4.37      -0.08       0.33
      3.96       0.86      -0.07
      3.22       0.02      -0.09
      3.83      -0.03       0.22
      4.41      -0.29      -0.44
      4.48      -0.04      -0.85
      4.29       0.72      -0.66
      3.98       0.65      -0.64
      3.58       1.29       0.13
      3.74       0.62       0.08
      4.40       0.36       0.47
      4.39       0.18       0.05
      4.57       0.46       1.11
      5.26       0.79       0.31
      5.22       0.61      -0.18
      6.15       0.36      -0.23
      6.35       0.24      -0.25
      5.60       0.34       0.24
      5.68       0.53       1.20
      5.06      -0.65       0.43
      4.76      -0.24       0.27
      4.80      -0.47       0.77
      5.31      -0.50       0.16
      5.47      -1.00      -0.79
      4.82      -1.17      -0.87
      4.34      -1.40      -0.31
      4.91      -1.17      -0.34
      5.14      -1.68       0.25
      4.45      -1.16       0.33
      4.63      -1.86      -0.09
      4.44      -1.00      -0.41
      3.85      -1.16       0.16
      4.42      -1.16       0.61
      5.63      -1.78       0.44
      4.94      -1.09       0.46
      4.93      -0.96       0.18
      5.22      -1.46       0.75
      4.98      -0.09       0.41
      5.85       0.05      -0.49
      5.22      -0.15      -0.02
      5.43       0.19      -0.21
      5.68       0.37       0.30
      5.55      -0.02       0.19
      4.92       0.38       0.80
      4.36       0.65       0.03
      4.63       0.27       0.45
      5.05       0.71       0.07
      5.84       0.64       0.47
      5.14       0.34       0.49
      4.92       0.30       0.21
      4.94      -0.16       0.36
      5.67       0.59       0.59
      5.44       0.76      -0.05
      5.82       0.94      -0.38
      5.96       0.52      -0.45
      5.12       0.44      -0.51
      5.15       0.54       0.08
      4.88       0.20       0.22
      5.41       0.86      -0.32
      4.97       0.73      -0.24
      5.09       1.65      -0.59
      4.66       1.65      -0.47
      4.63       0.81       0.41
      4.73       1.34      -0.53
      5.51       1.54      -0.34
      5.58       0.31      -0.15
      5.38       0.70       0.26
      5.70       1.16       0.11
      4.82       1.48       0.42
      4.72       0.97       0.22
      4.36       0.95       0.42
      4.15       0.42       0.38
      4.34      -0.01       0.09
      4.92       0.70       0.05
      4.67       0.70      -0.01
      4.73       1.02      -0.31
      5.50       0.09      -0.19
      4.58      -0.26       0.23
      5.26      -0.10       0.97
      5.35       0.05       0.31
      5.26      -0.08       0.26
      4.56      -0.34      -0.51
      4.45      -0.35       1.34
      4.14      -0.39       0.87
      4.97       0.38       0.15
      5.48       0.42       0.57
      4.89       0.37      -0.27
      4.23       0.29      -0.44
      3.16       0.86      -0.45
      3.81       0.10       0.16
      3.97      -0.23      -0.59
      3.73      -1.59      -0.81
      3.69      -1.31      -0.85
      3.23      -0.89      -1.28
      3.21      -0.86      -1.17
      3.03      -0.21      -1.13
      3.43      -0.61      -0.90
      3.18      -0.41      -0.38
      3.04      -0.24       0.30
      2.91      -0.56      -0.04
      3.66      -0.54      -0.28
      3.39       0.35       0.23
      3.46       0.86       0.34
      2.80       0.58       0.04
      2.96       0.40      -0.55
      2.12       1.72       0.12
      2.58       1.65      -0.56
      1.90      -0.03       0.12
      2.04       0.39      -0.08
      2.67      -0.35       0.05
      2.03       0.38      -0.03
      2.56       0.43       0.42
      2.99       0.23       0.01
      2.71       1.18       0.40
      3.05       0.96      -0.01
      3.42       0.63       0.60
      3.85       0.04      -0.05
      3.90       0.72      -0.31
      4.38       1.02       0.12
      3.81       0.91       0.15
      4.76       1.06       0.51
      4.33       0.82       0.17
      4.02       0.90      -0.69
      4.08       0.91      -0.40
      3.52       0.84      -0.20
      3.54      -0.41       0.30
      4.01      -0.04       0.11
      3.22       0.43      -0.21
      2.81      -0.23      -0.05
      3.15       0.06       0.75
      3.46      -0.46       0.43
      4.79      -0.31       0.84
      4.28      -0.48       1.66
      4.26       0.17       0.80
      4.35      -0.79       0.03
      4.39      -0.78      -0.35
      4.71      -0.35       0.13
      4.83      -0.05       0.16
      4.01      -0.06      -0.64
      4.00      -0.40      -0.68
      4.08      -0.08      -0.24
      4.32       0.10      -0.67
      4.03      -0.48      -0.17
      4.38       0.18       0.05
      4.60      -0.29      -0.09
      5.29       0.08       0.10
      4.31      -0.43       0.38
      4.45      -0.66      -0.62
      4.35      -0.79      -0.02
      5.08      -1.19      -0.49
      5.67      -1.84      -0.61
      5.16      -0.61      -0.47
      5.79      -1.28      -1.02
      4.90      -1.51       0.06
      5.15      -1.06      -0.15
      4.66      -1.22      -0.24
      5.25      -1.35       0.89
      6.31      -0.40       0.17
      6.57      -0.49       0.35
      6.73      -0.43      -0.18
      5.49      -0.26      -0.84
      5.91      -1.45      -0.75
      5.61      -0.71      -0.54
      4.25      -0.44      -0.39
      5.05      -0.32       0.97
      5.34      -0.05       0.33
      5.43       0.47      -0.03
      5.83       0.02      -0.12
      5.19      -0.08       0.06
      4.40      -0.31       0.08
      4.04       0.04       0.50
      4.85      -0.02       0.14
      4.00      -0.22      -0.51
      4.53      -0.51      -0.10
      4.94      -0.31      -0.18
      4.28      -0.62      -0.12
      4.21      -0.41      -0.48
      5.02       0.11      -0.03
      4.90       0.61      -0.47
      5.46       1.01      -0.19
      6.37       0.43      -0.30
      5.66      -0.10       0.25
      5.05      -0.22       0.29
      4.31      -1.00      -0.50
      4.76      -0.10       0.52
      4.48      -1.32       0.20
      4.18      -0.32      -0.09
      4.36       0.14       0.35
      3.92       0.40       0.25
      4.42       0.29      -0.14
      4.60      -0.21       0.09
      4.11       0.45       0.13
      3.63       0.36      -0.33
      3.39      -0.03       0.14
      3.78      -0.16      -0.26
      4.06      -0.01      -0.39
      4.36       0.40      -0.93
      4.20       0.89      -0.91
      4.25       1.06      -0.27
      3.69       1.32      -0.16
      4.04       0.68      -0.19
      4.00       0.02       0.15
      4.57       0.59       0.53
      4.37       0.63       0.79
      5.31       0.64      -0.16
      5.81       0.22       0.06
      6.28       0.76      -0.48
      5.67       0.20      -0.37
      5.62       0.50       0.70
      5.27      -0.14       0.29
      4.87      -0.66       0.71
      4.64      -0.58       0.86
      4.77      -0.68       0.98
      5.25      -0.91      -0.29
      5.07      -1.24      -0.57
      4.50      -1.13       0.03
      5.07      -1.46      -0.10
      4.92      -1.59       0.38
      4.69      -1.50      -0.02
      4.66      -1.05       0.49
      4.77      -1.47       0.19
      4.17      -1.33       0.06
      4.34      -1.43       0.10
      5.14      -1.88       0.45
      4.95      -0.96       0.47
      5.08      -1.41       0.67
      4.92      -1.29       0.44
      4.86      -0.87       0.72
      5.69      -0.16      -0.09
      5.38       0.07      -0.03
      4.79      -0.04      -0.15
      5.28       0.08      -0.21
      5.43       0.93       0.20
      5.01      -0.03       0.98
      4.77       0.28      -0.05
      4.70       1.33      -0.31
      4.63       0.61      -0.27
      5.76       0.50       0.46
      4.73       0.41       0.65
      5.12       0.10       0.65
      5.18       0.87       0.49
      5.22       0.31       0.45
      5.40       0.97       0.19
      5.66       0.96      -0.25
      5.67       0.37      -0.24
      5.43       0.45      -0.54
      5.31       0.79      -0.27
      5.06       0.04      -0.33
      5.51       0.69      -0.58
      5.01       0.89      -0.15
      5.77       1.03       0.13
      5.23       1.81      -0.73
      5.18       1.34       0.15
      4.17       1.36       0.11
      5.29       1.83       0.02
      5.46       1.57      -0.79
      5.64       0.55       0.36
      4.86       0.64      -0.11
      5.57       1.02      -0.02
      4.40       0.98       0.60
      4.39       1.17       0.97
      4.21       0.75      -0.10
      3.82       0.24      -0.05
      4.38       0.43      -0.39
      4.26       0.39       0.61
      4.59       0.95      -0.08
      5.29       0.80      -0.21
      5.29      -0.11       0.07
      5.25      -0.46       0.53
      5.41      -0.02       0.60
      5.31       0.02      -0.24
      4.86      -0.53      -0.15
      4.18      -0.73       0.62
      4.43      -0.79       0.87
      4.38       0.20      -0.01
      5.07       0.06       0.61
      5.38       0.27       0.36
      4.79      -0.05      -0.58
      3.24       0.69      -0.89
      4.07       0.57       0.06
      4.39      -0.12      -0.52
      3.61      -1.21      -0.73
      3.83      -1.48      -0.46
      3.63      -1.38      -0.94
      3.30      -1.10      -0.97
      2.73      -0.33      -0.94
      3.52       0.01      -0.74
      3.79      -0.68      -0.68
      2.83      -0.53       0.12
      3.08      -0.63       0.01
      2.97      -0.58       0.17
      3.53       0.46      -0.23
      3.08       0.60       0.08
      3.55       0.46      -0.18
      2.87       0.52      -0.30
      2.30       0.96      -0.78
      2.61       1.61       0.17
      2.38       0.18      -0.08
      2.23       0.16      -0.56
      2.09      -0.48      -0.03
      2.05       0.71      -0.02
      2.25       0.66       0.13
      3.07       0.26       0.13
      3.02       1.35       0.31
      2.79       0.91       0.01
      3.47       0.46       0.44
      3.71       0.15       0.16
      3.90       0.81      -0.09
      4.36       1.16       0.25
      4.13       1.02       0.28
      4.82       1.22       0.74
      4.52       0.83      -0.00
      4.15       0.69      -0.20
      3.78       0.89      -0.51
      4.01       1.19      -0.69
      3.32       0.26       0.34
      3.63      -0.57       0.17
      3.28       0.20       0.17
      2.89      -0.24       0.16
      3.11       0.24       0.87
      3.92      -0.30       0.60
      4.30      -0.24       1.03
      4.29      -0.21       1.36
      4.19       0.48       0.62
      4.89      -0.13       0.29
      4.68      -0.01      -0.31
      4.05      -0.46       0.13
      5.03      -0.08       0.11
      4.45      -0.16       0.12
      4.30      -0.48      -0.48
      4.05      -0.14      -0.64
      4.63      -0.19      -0.41
      4.35      -0.07      -0.43
      3.78      -0.21       0.29
      4.18      -0.28       0.59
      4.74      -0.05      -0.32
      5.22      -0.44       0.46
      4.00      -0.65      -0.18
      4.70      -0.41      -0.41
      4.31      -1.08       0.31
      5.77      -1.48      -0.70
      5.16      -0.80      -0.54
      5.85      -0.98      -1.14
      5.90      -1.41      -0.55
      5.83      -0.93      -0.32
      5.05      -1.05      -0.33
      5.32      -1.27       0.64
      5.89      -0.81      -0.06
      6.52      -0.16       0.25
      6.27      -0.48      -0.11
      6.06      -0.34      -0.56
      5.93      -0.94      -0.56
      5.90      -1.15      -0.20
      4.94      -0.86      -0.35
      4.56       0.06       0.00
      5.35       1.26       0.19
      5.91       0.84       0.33
      5.81      -0.11      -0.45
      4.98       0.03      -0.42
      5.40      -0.20      -0.17
      5.20      -0.23       0.17
      5.14       0.53       0.43
      5.23      -0.45       0.05
      4.55      -0.34      -0.22
      5.69      -1.40       0.07
      5.95      -1.09       0.05
      6.08      -1.37      -0.18
      5.10      -1.75      -0.42
      5.60      -1.07      -0.39
      5.73      -1.83      -1.07
      6.33      -1.91      -0.86
      5.54      -0.79      -0.84
      5.80      -1.38      -0.88
      6.54      -1.04      -0.72
      6.55      -1.51      -0.63
      7.02      -0.90      -0.48
      6.92      -1.00      -0.18
      7.08      -1.36       0.17
      7.26      -1.67      -0.04
      6.59      -1.38       0.42
      6.68      -0.98       0.42
      6.92      -1.24       0.21
      6.66      -0.67       0.26
      7.25      -0.77      -0.12
      6.89      -0.87       0.44
      6.52      -1.21       0.49
      6.19      -1.25       0.09
      6.33      -1.04      -0.15
      7.25      -0.79       0.39
      7.09      -0.24      -0.06
      6.47       0.11      -0.15
      6.67       0.47      -0.36
      7.41       0.10      -0.28
      7.42      -0.39      -0.11
      6.95      -0.26      -0.25
      6.98       0.20      -0.19
      6.54       0.23      -0.30
      6.04      -0.39      -0.01
      6.89       0.05      -0.73
      6.85      -0.23      -0.32
      6.70      -0.12      -0.12
      6.10       0.22       0.11
      6.15       0.16       0.11
      5.93      -0.19      -0.35
      6.80      -0.83      -0.00
      6.52      -0.56      -0.30
      5.74      -0.73       0.04
      5.52      -0.08      -0.29
      4.44      -0.31      -1.13
      4.29       0.31      -0.23
      4.47       0.75       0.41
      4.64       0.35       0.38
      5.14       0.12       0.18
      4.98       0.21       1.32
      4.43       0.18       0.35
      4.46       0.48       0.42
      3.81      -0.43       0.13
      4.28      -0.18       0.47
      4.44       0.24       0.47
      4.92       0.32       0.27
      4.83      -0.13      -0.47
      4.79       0.01       0.06
      4.89       0.47       0.14
      4.98       1.53      -0.32
      5.26       1.15       0.31
      5.40       0.45       0.68
      6.42       1.01       0.34
      6.98       0.68      -0.27
      6.43       0.93       0.03
      7.07      -0.33       0.37
      7.05      -0.55       0.05
      6.75       0.03       0.44
      6.80      -0.02       0.45
      7.10      -0.55      -0.84
      6.44      -0.20       0.42
      6.16      -0.26       0.74
      5.95      -0.69      -0.66
      6.51      -0.55      -0.13
      6.88      -0.74       0.26
      6.04      -1.43       0.80
      5.97      -0.45       1.22
      6.01      -0.53       0.54
      5.82       0.47       0.49
      5.58       0.03      -0.13
      5.05      -1.03       0.41
      6.16      -0.92       0.78
      5.92      -0.21       0.57
      6.15      -0.40       0.18
      5.41      -0.22       0.89
      5.29       0.42       0.97
      5.60      -0.27       1.06
      5.82      -0.47       0.19
      6.00      -0.05      -0.29
      7.40       0.25      -0.55
      7.74       0.31      -0.11
      7.59      -0.01      -0.20
      6.75       0.32       0.28
      6.15       0.52       0.64
      6.85       0.74       0.13
      5.95       0.79       0.17
      6.12       0.61       0.02
      6.27       0.42       0.14
      6.68       0.54       0.21
      7.00       0.13       0.29
      7.45       0.13      -0.15
      7.72       0.57       0.06
      7.88       1.27       0.03
      7.62       1.38      -0.32
      6.79       0.16      -0.63
      6.54      -0.14      -0.60
      6.19       0.29      -0.34
      6.22       1.09       0.44
      5.65       1.23      -0.17
      5.54       1.38      -0.55
      5.41       1.65      -0.32
      5.22       1.08      -0.62
      6.59       1.46      -0.74
      6.59       0.72      -0.45
      6.08       0.80      -0.10
      5.93       0.27      -0.45
      6.17       0.87       0.41
      6.00       0.68      -0.08
      5.08       0.11       0.47
      5.62      -0.16       0.72
      5.41      -0.01       0.49
      5.71       0.33       0.74
      5.63      -0.48       0.35
      4.99       0.10       0.01
      5.83       0.13      -0.75
      5.63      -0.36      -0.01
      4.95       0.40       0.29
      5.97       0.16       0.41
      5.43      -0.63      -0.11
      4.48      -1.28       0.32
      4.45      -1.42       0.62
      5.23      -1.24       0.74
      5.46      -0.75      -0.57
      5.50       0.41       0.08
      5.51       0.22       0.02
      4.90      -0.15      -0.55
      4.78       1.24      -1.12
      4.54      -0.17       0.12
      4.31       0.56      -0.42
      3.71      -0.42      -0.48
      3.85      -0.59      -0.10
      3.53      -0.79      -0.51
      3.77      -0.45      -0.37
      4.32      -0.32      -1.02
      4.25      -0.22      -0.81
      4.14      -0.01      -0.33
      3.84      -0.44      -0.57
      3.48      -0.95      -0.77
      3.61      -0.15       0.27
      3.50      -0.11       0.52
      3.26      -0.40      -0.45
      3.43      -0.25       0.61
      3.92       0.18       0.20
      4.48       0.58      -0.08
      3.80       1.00      -0.21
      3.47       0.29      -0.42
      3.84       0.09      -0.38
      4.11       0.65       0.05
      4.10       0.16      -0.21
      4.92      -0.06      -0.32
      3.49       0.16       0.31
      3.94       0.44       0.14
      4.12      -0.02       0.43
      3.73       0.01       0.21
      4.46       0.99       0.14
      4.81       0.71       0.34
      5.04       0.84       0.15
      5.14       0.61      -0.06
      5.32       1.89      -0.30
      5.71       1.27       0.39
      5.07       0.95       0.42
      5.28       1.70      -0.23
      5.40       0.70      -0.24
      6.61       0.79       0.06
      5.62       0.67       0.46
      5.38       0.62       0.51
      4.55       0.31      -0.01
      4.46       0.98      -0.70
      4.66       0.50      -0.23
      5.50       0.69       0.11
      4.61       1.31       1.01
      4.46       1.13       0.37
      6.42       1.27       0.69
      6.19      -0.28      -0.25
      5.60      -0.36      -0.80
      5.43      -0.13      -0.73
      5.10      -0.49      -0.23
      5.08       0.02       0.03
      5.65       0.09      -0.02
      5.12      -0.71       0.03
      5.55      -0.79       0.47
      5.69      -0.93       0.39
      6.53      -1.16       0.02
      5.25      -1.76      -0.01
      5.56      -1.17      -0.44
      5.47      -1.02      -0.85
      6.30      -1.22      -0.64
      6.26      -1.11      -0.41
      5.63      -1.09      -0.78
      6.39      -1.81      -0.70
      6.71      -0.89      -0.53
      6.77      -1.00      -0.61
      6.88      -1.24      -0.08
      7.30      -0.66      -0.48
      7.23      -1.28      -0.65
      6.91      -1.44      -0.08
      6.89      -1.30       0.30
      6.85      -0.74       0.38
      6.56      -1.01       0.83
      6.60      -0.30       0.40
      6.58      -0.75       0.55
      6.93      -0.73       0.03
      6.04      -1.75       0.13
      6.05      -1.56      -0.04
      7.38      -0.66       0.70
      7.31      -0.54      -0.05
      6.95      -0.14      -0.10
      7.03       0.43      -0.02
      7.01      -0.17      -0.28
      7.79      -0.86       0.17
      7.29      -0.06      -0.07
      7.21      -0.19      -0.66
      6.50       0.05      -0.18
      6.55      -0.22      -0.01
      6.57      -0.15      -0.26
      7.17       0.10      -0.52
      6.47       0.18      -0.67
      6.52       0.39       0.21
      6.02       0.09      -0.18
      5.72      -0.28      -0.14
      6.08      -0.64      -0.33
      6.39      -0.36      -0.25
      6.15      -0.50      -0.51
      5.35      -0.44      -0.41
      4.89      -0.18      -0.87
      4.34      -0.42      -0.23
      4.79       0.14       0.05
      5.04       0.67       0.23
      4.85       0.55       1.02
      5.37       0.40       0.84
      4.21       0.31       0.13
      4.76       0.18       0.60
      3.99      -0.51       0.12
      4.70      -0.32       0.39
      4.77      -0.49       0.04
      4.32      -0.51       0.03
      4.66       0.06      -0.90
      5.00       0.27      -0.14
      5.22       0.27      -0.01
      5.45       1.00      -0.07
      4.86       1.26       0.07
      4.87       0.76       0.73
      5.74       0.73       0.28
      7.12       0.43      -0.56
      6.47       0.47      -0.22
      7.03       0.29      -0.18
      7.29      -0.20       0.73
      6.64       0.12       0.66
      6.65       0.26       1.14
      6.73      -0.07      -0.61
      6.70      -0.40      -0.24
      5.76      -0.37       0.06
      5.61      -0.42       0.03
      6.44      -0.83       0.49
      6.78      -0.87      -0.17
      6.21      -1.09       0.70
      6.35      -1.07       1.31
      6.09      -0.14       0.42
      5.57      -0.39       0.82
      5.54       0.17       0.32
      5.27      -1.24      -0.09
      5.90      -1.09       0.49
      5.77      -0.24       0.44
      5.84       0.24       0.46
      6.18      -0.19       0.82
      5.76       0.36       0.66
      5.59      -0.14       0.40
      6.33      -0.74       0.77
      6.08      -0.17      -0.61
      6.33      -0.16      -0.69
      7.21       0.41      -0.40
      7.28      -0.25      -0.14
      6.80       0.25       0.10
      6.89       0.41       0.21
      6.28       0.84       0.18
      6.16       1.07      -0.01
      6.10       0.52      -0.26
      6.05       0.43       0.08
      7.14       1.01       0.43
      6.83       0.45       0.18
      7.38       0.11      -0.46
      7.54       0.22       0.12
      7.87       0.91      -0.34
      7.58       0.79      -0.26
      7.47       0.78      -0.95
      6.71       0.22      -0.80
      6.62       0.16      -0.92
      6.95       0.79       0.35
      5.58       1.47       0.33
      5.89       1.35      -0.57
      6.04       1.17      -0.41
      5.48       1.10      -0.67
      5.91       1.34      -0.56
      6.50       0.94      -0.57
      5.99       1.44      -0.35
      6.11       0.67      -0.14
      5.82       0.76      -0.16
      6.26       0.80       0.04
      5.34       0.50       0.68
      5.47      -0.31       0.80
      5.87       0.81       0.59
      5.50       0.04       0.71
      5.69      -0.17       0.49
      5.61       0.02       0.57
      5.34      -0.36      -0.17
      5.19      -0.33       0.16
      5.23      -0.22       0.02
      5.50      -0.04       0.08
      5.71      -0.62      -0.14
      5.10      -1.37       0.31
      4.58      -1.45       0.44
      4.88      -1.76       0.57
      6.02      -1.09      -0.03
      5.37      -0.72       0.30
      5.39       0.36      -0.14
      5.36       0.62      -0.30
      4.69       1.19      -0.77
      4.71       0.53      -0.51
      4.60       0.75       0.37
      4.04       0.16      -0.37
      3.52      -0.55      -0.34
      3.31      -0.68      -0.73
      3.57      -0.15      -0.72
      4.05      -0.51      -1.01
      4.83       0.35      -1.24
      3.98       0.74      -0.14
      4.33      -0.57      -0.44
      3.84      -0.45      -0.67
      3.31      -0.18      -0.14
      3.80       0.62       0.45
      3.09      -0.52       0.05
      4.00      -0.17       0.48
      3.85      -0.11       0.33
      4.83       0.85       0.19
      4.02       1.23       0.13
      3.82       0.66      -0.21
      3.59       0.63      -0.27
      4.47       0.61      -0.59
      4.44       0.97       0.08
      4.66       0.14      -0.09
      4.07      -0.39       0.03
      3.78       0.35       0.42
      4.12       0.27       0.06
      3.81       0.06       0.25
      4.19       1.13       0.21
      4.79       0.49       0.27
      4.70       0.81       0.19
      5.00       0.68       0.21
      4.81       0.73      -0.32
      5.72       1.65       0.67
      5.23       1.26      -0.14
      5.88       1.03      -0.10
      5.72       0.52      -0.61
      6.38       1.01       0.17
      5.58       0.43       0.18
      5.39       0.26       0.63
      4.38       0.41       0.54
      4.62       0.48      -0.13
      4.34       0.44      -0.11
      4.96       0.30      -0.09
      4.31       0.94       0.92
      4.45       1.42       1.01
      5.80       1.33       0.64
      5.95      -0.04       0.12
      5.63      -0.26      -0.53
      5.30      -0.19      -0.56
      5.56      -0.53      -0.23
      5.14      -0.30       0.35
      5.52       0.43       0.19
      5.14      -0.34       0.02
      4.85      -0.59       0.34
      5.89      -0.95       0.02
      6.13      -1.13      -0.05
      5.66      -1.56      -0.23
      5.68      -1.51      -0.40
      5.71      -0.77      -0.34
      6.60      -1.89      -1.25
      5.84      -1.38      -1.03
      5.79      -1.02      -0.86
      6.02      -2.05      -0.85
      6.22      -0.98      -0.78
      6.88      -1.08      -0.85
      7.28      -0.88      -0.53
      7.23      -0.84       0.09
      6.80      -1.02      -0.58
      6.82      -1.32       0.35
      6.82      -1.42       0.14
      6.93      -0.99       0.40
      6.94      -1.01       0.32
      6.95      -0.38       0.58
      6.90      -0.67       0.15
      6.94      -0.44       0.28
      6.37      -1.14       0.51
      6.28      -1.67       0.09
      5.22       0.48       1.19
      4.74       0.66       0.44
      6.12       0.24      -0.11
      6.41      -0.16      -0.04
      6.41       0.37      -0.23
      5.73       0.28      -0.38
      6.08       0.24      -0.34
      5.65      -0.76      -0.03
      6.08      -0.23       0.23
      5.97       0.33      -0.08
      5.67      -0.36      -0.05
      5.33      -0.89      -0.68
      5.21      -1.80      -1.17
      5.52      -1.26      -1.07
      5.17      -1.68      -1.45
      5.61      -1.95      -0.28
      6.23      -1.80      -0.61
      6.08      -1.29      -0.20
      6.52      -0.96      -0.29
      6.89      -1.15      -0.87
      6.29      -1.51      -0.80
      5.90      -1.74      -0.38
      6.61      -0.85       0.50
      7.79      -0.55       0.19
      7.78      -1.43      -0.17
      8.04      -1.43       0.04
      8.06      -1.76      -0.05
      7.83      -1.10       0.02
      7.34      -0.77       0.66
      7.43      -1.07       0.36
      6.89       0.26       1.03
      6.64      -0.23       0.72
      6.93      -0.36       0.06
      7.63      -0.25       0.17
      7.75      -0.42       0.22
      7.20      -0.84      -0.47
      7.25      -0.14      -0.50
      6.40      -0.38      -0.71
      7.65      -0.45      -0.52
      7.48       0.04      -0.26
      7.51       0.19      -0.47
      7.59       1.33       0.04
      7.83       1.40      -0.33
      7.20       0.46       0.22
      8.81       0.46      -0.41
      9.08       1.00      -0.03
      8.19       0.21      -0.22
      7.87       0.58       0.39
      7.92       0.78       0.11
      7.88      -0.38       0.46
      7.72      -0.30      -0.33
      6.90      -0.30      -0.42
      6.53      -0.36      -1.12
      6.02      -0.41      -0.43
      5.65      -0.52      -0.09
      5.31      -0.33      -0.22
      6.07       0.29       0.03
      6.61       0.30       0.21
      5.93      -0.26       0.54
      5.21       0.17       0.47
      5.15      -0.16       0.32
      4.84      -0.24      -0.03
      5.03      -0.07      -0.30
      5.18       0.21      -0.19
      5.11       0.53      -0.12
      5.06       0.32      -0.01
      5.56       0.21       0.23
      4.78       0.59       0.10
      4.98       0.20      -0.31
      5.97       0.22       0.42
      7.29      -0.03       0.07
      7.11      -0.28      -0.02
      7.74      -0.22       0.05
      7.61       0.21      -0.13