# vtk DataFile Version 3.0
Low resolution, disturbed wind of YZ Slice at time = 3 seconds.
ASCII
DATASET STRUCTURED_POINTS
DIMENSIONS     1   101    35
ORIGIN    1378.00    -500.00       5.00
SPACING       9.71      10.00      10.00
POINT_DATA            3535
VECTORS DisYZ float
      4.30       0.20      -0.44
      3.99      -0.14      -0.70
      3.50       0.21      -0.48
      4.23       0.33      -0.41
      3.84      -0.07      -0.78
      3.90      -1.24       0.58
      3.71       0.18      -0.25
      4.47       0.56      -0.38
      4.59       0.82      -0.13
      4.10       0.76      -0.85
      4.56       0.01      -0.54
      4.78       0.57      -0.03
      2.97       0.05       0.42
      4.19      -0.80      -0.08
      3.27      -0.36       0.36
      4.11      -0.82      -0.23
      3.92      -0.34      -0.07
      3.39      -0.24       0.27
      3.51       0.04       0.14
      3.19      -1.55       0.51
      4.06      -1.45      -0.55
      3.45      -2.42      -0.64
      3.61      -2.47      -0.10
      4.61      -1.57       0.68
      4.25      -1.78       0.39
      3.93      -0.51       0.67
      3.17      -1.29      -0.16
      2.74      -0.83      -0.11
      3.08      -1.55      -0.61
      2.73      -0.65      -0.06
      2.81      -0.07      -0.36
      3.00      -0.90      -0.39
      3.98      -0.12       0.61
      4.00       0.54      -0.66
      2.89      -0.43      -0.65
      3.60       0.01      -0.47
      3.73       0.20      -0.67
      4.46       0.45       0.13
      3.21      -0.16       0.52
      4.21       0.60       0.23
      3.70       0.17       0.45
      3.64      -0.07      -0.06
      2.87      -0.33       0.10
      2.34      -1.47       0.20
      3.37      -1.95       0.21
      3.38      -1.18       0.22
      3.01      -0.52      -0.29
      2.99      -1.72      -0.47
      4.78      -1.60      -1.28
      3.10      -1.38      -0.39
      3.69      -1.33      -0.85
      3.74      -0.18      -0.50
      3.39      -0.14      -0.28
      3.35       0.31      -0.50
      4.15       0.62       0.23
      3.71       0.18      -0.45
      3.90      -1.04      -0.79
      4.10      -0.24      -0.77
      4.11      -0.04       0.15
      4.19       0.84      -0.70
      3.95       0.15      -0.08
      4.76       0.18       0.19
      4.99      -0.06      -0.21
      5.86       0.06      -0.01
      5.12      -0.32       0.05
      4.70      -0.25      -0.12
      4.56      -0.20       0.50
      4.50      -0.73       0.25
      6.09      -0.19      -0.77
      6.04      -0.19      -0.65
      5.92      -0.30       0.33
      5.29       0.45       0.14
      5.91       0.40       0.84
      5.16      -0.12      -0.07
      4.05      -0.07      -0.08
      4.43       0.56      -0.16
      5.75       0.18      -0.49
      5.33       1.32      -0.14
      6.98       2.22      -0.91
      5.44       1.42      -0.93
      5.90       0.53      -0.57
      4.35       0.91       0.39
      4.23       0.51      -0.30
      4.43       0.60      -0.51
      3.18       0.72      -0.24
      4.35      -0.03      -0.11
      3.77      -0.00      -0.58
      4.76      -0.74      -0.27
      3.85      -0.58      -0.35
      4.16      -0.83      -0.97
      4.43       0.18      -0.39
      5.30       0.31      -0.32
      4.42      -0.11      -0.24
      4.09       0.21      -0.45
      4.00       0.43      -0.53
      3.31       0.47      -0.40
      3.76       0.68       0.26
      4.27       0.72      -0.36
      3.97      -0.41       0.04
      4.53      -1.21      -0.91
      4.15      -0.89      -0.13
      4.90       0.84       0.64
      5.70      -0.25      -0.82
      4.85       0.53      -0.63
      4.67       0.25      -0.33
      4.91      -0.33      -0.61
      4.56      -0.80       0.03
      4.41       0.24       0.11
      5.16       0.28      -0.21
      5.11       0.14      -0.59
      4.74       0.75      -0.83
      5.18       0.96      -0.68
      5.33       0.02      -0.46
      5.90      -0.41      -0.62
      5.07      -0.29      -0.56
      4.16      -0.41       0.00
      4.90       0.02      -0.18
      5.72      -0.78      -0.55
      4.14      -0.89      -0.01
      3.48      -1.12       0.72
      6.20      -1.22       0.50
      5.07      -1.49      -0.03
      5.30      -1.32       0.24
      4.84      -2.43       0.10
      5.40      -1.59       1.07
      5.23      -1.22      -0.28
      4.62      -0.03      -0.59
      3.96      -0.77      -0.54
      3.66      -0.54      -0.12
      3.24      -0.69      -0.21
      3.39      -0.28      -0.65
      3.97      -0.47       0.65
      4.15      -0.66       0.31
      5.89       0.12       0.06
      4.21       0.02      -0.57
      4.96      -0.94      -0.60
      4.99      -0.44       0.04
      5.11       1.29      -0.41
      5.20       1.17       0.10
      4.67       1.57      -0.17
      3.73       0.22      -0.02
      4.04       1.00      -0.30
      4.45       0.43       0.18
      3.98      -0.96       0.02
      3.69      -1.11      -0.93
      3.30      -1.18      -0.26
      3.43      -1.87      -0.30
      3.77      -1.64      -0.45
      3.78      -0.55      -0.38
      4.36      -1.79      -0.62
      3.00      -0.78      -0.80
      3.56      -0.77      -0.47
      4.29      -0.34      -0.90
      5.19       0.20      -0.39
      5.01       0.22      -0.38
      5.17       0.04       0.04
      4.76      -0.11      -0.49
      4.36      -0.15      -0.82
      4.73       0.05      -0.23
      4.80       0.25      -0.32
      4.82       0.34      -0.54
      5.61       0.23      -0.18
      5.38       0.17       0.35
      6.19       0.83      -0.39
      6.11      -0.18       0.25
      6.77       0.45      -0.20
      6.12       0.41      -0.05
      5.97      -0.39      -0.38
      6.28      -0.32       0.18
      6.78      -0.77      -0.68
      6.20      -0.96      -0.39
      7.52       0.13      -0.01
      6.78      -0.24       0.47
      6.44      -0.17       0.86
      6.35       0.02       0.18
      5.68      -0.15       0.13
      6.69       0.09      -0.27
      6.18      -0.04       0.78
      6.24       1.05      -0.15
      6.18       0.64      -0.26
      6.20       1.40      -0.01
      5.53       1.20      -0.79
      5.95      -0.03       0.28
      5.15       1.01      -0.45
      5.29       0.20      -0.54
      5.61      -0.23      -1.00
      5.98      -0.50      -0.29
      5.21      -0.58      -0.46
      5.85       0.23      -0.41
      5.77       0.04       0.18
      4.79      -0.89       0.04
      5.79       0.04      -0.31
      6.01       1.02       0.16
      5.83       0.97      -0.61
      5.23      -0.65      -0.32
      5.60       0.48      -0.30
      5.00       0.84      -0.40
      4.49       0.66      -0.32
      5.83      -0.01      -0.70
      6.04      -0.23      -0.64
      5.16      -1.07      -0.46
      4.85       0.20      -0.38
      5.10       0.25      -0.49
      5.26       0.63      -0.19
      4.88       0.75      -0.47
      4.08       0.59      -0.58
      4.27       0.09      -0.69
      5.01      -0.38       0.24
      5.73      -0.30      -0.13
      5.82      -0.47      -0.56
      5.54      -0.61      -0.46
      5.01       0.81      -0.80
      5.33       0.08      -0.75
      6.27       0.36      -0.22
      4.73       1.52      -0.46
      6.04       0.56       0.08
      6.23       1.10      -0.32
      6.54      -0.42       0.23
      4.95      -0.46      -0.03
      4.89      -1.22      -0.10
      4.80      -1.65      -0.80
      6.58      -1.39       0.24
      4.93      -1.58      -0.46
      5.53      -0.82       0.11
      6.92      -1.47       0.16
      5.29      -1.07       0.25
      6.08      -1.00       0.07
      5.28      -1.07      -0.25
      5.31      -1.58      -0.13
      5.21      -0.44       0.01
      3.78      -0.56      -0.72
      5.09       0.04      -0.16
      3.92      -0.12      -0.37
      5.90      -0.57      -0.64
      5.54       0.22      -0.70
      5.81      -0.13      -0.69
      5.23       0.28      -0.27
      4.82      -0.13      -0.35
      5.55      -0.79       0.36
      6.33       0.25      -0.24
      4.64       1.17       0.13
      3.90      -0.13       0.04
      4.02       0.61       0.13
      3.20       0.03      -0.30
      4.06      -0.42      -0.10
      3.77      -1.22       0.04
      3.89      -1.49      -0.06
      3.68      -1.10       0.36
      3.47      -1.47       0.10
      4.49      -0.51      -0.24
      4.67      -0.20       0.35
      4.51      -0.53      -0.81
      3.72      -0.77      -0.90
      5.22       0.30      -0.52
      5.07       0.48       0.53
      5.51       0.47      -0.01
      5.71       0.49       0.31
      5.43      -0.17      -0.25
      6.71       0.29      -1.11
      5.23       0.58      -0.43
      6.00      -0.18      -0.41
      6.73       0.20      -0.60
      7.22       0.19      -0.21
      7.24       0.27      -0.44
      6.53       1.21      -0.33
      7.17       0.39      -0.02
      6.67       0.24       0.49
      6.56      -0.04      -0.09
      5.90       0.69      -0.30
      6.94      -0.20       0.05
      6.60      -0.15      -0.43
      6.71      -0.91      -0.34
      6.99       0.95       0.37
      7.11       0.65      -0.38
      7.25       0.18      -0.19
      6.55       0.31       0.55
      6.55       0.90       0.34
      6.36       1.21       0.18
      6.09       0.67       0.31
      6.32       1.25      -0.28
      7.15       1.28      -0.06
      6.66       1.53      -0.65
      7.09       1.07      -0.87
      6.11       0.47      -0.65
      5.84       0.80      -0.11
      5.52      -0.70      -0.56
      5.91       0.32       0.14
      5.71       0.06      -0.48
      6.19      -0.18      -0.51
      7.43       0.65      -0.30
      5.85       0.82       0.25
      6.57      -0.66      -0.76
      6.44       0.24      -0.14
      6.05       0.25       1.06
      6.60       0.21      -0.23
      6.17       0.15       0.26
      6.39       0.44       0.18
      5.39       0.74      -0.31
      4.78      -0.22      -0.50
      5.36      -0.98       0.25
      5.67      -0.10      -0.05
      4.93      -0.61      -0.29
      4.13      -0.04       0.10
      5.96      -0.02      -0.65
      5.40      -0.26      -0.72
      5.98       0.41      -0.38
      4.96       0.35      -0.41
      4.22      -0.27       0.00
      5.29      -0.59       0.38
      6.14      -0.58      -0.45
      6.58      -0.69      -0.50
      6.20      -0.29      -0.44
      6.99       0.51      -0.51
      6.43       0.23      -0.17
      5.89      -0.14      -0.69
      5.97       0.62      -0.21
      6.94       0.28      -0.38
      6.28      -0.21      -0.35
      5.51      -0.05       0.09
      6.01      -0.09      -0.74
      6.03      -0.23      -0.46
      6.73      -1.33      -0.20
      6.69      -1.65      -0.10
      7.05      -0.97      -0.35
      6.46      -0.66      -0.11
      6.04      -0.79      -0.22
      5.55      -1.26      -0.26
      6.96      -1.18      -0.66
      6.20      -0.64       0.46
      6.05      -0.71      -0.07
      4.51      -0.60      -0.27
      4.73      -1.08      -0.98
      4.93      -0.06      -0.41
      5.06       0.55      -0.85
      5.75       0.16       0.03
      6.30       0.58      -0.35
      6.86       0.15      -0.81
      5.37       0.99      -0.11
      5.48       0.15      -0.17
      5.70       0.06      -0.40
      6.78       0.92      -0.30
      5.37      -0.54       0.34
      4.23       0.04      -0.87
      4.77       0.17      -0.64
      4.08       0.11      -0.06
      4.13      -0.41       0.58
      4.23      -0.31      -0.30
      5.01      -0.71      -0.22
      4.29      -0.86      -0.44
      4.63      -0.30      -0.71
      4.79       0.22      -0.08
      5.66      -0.65      -0.38
      4.26       0.25      -0.41
      3.95      -0.59      -0.22
      4.89      -0.52       0.21
      5.77      -0.66       0.61
      5.21      -0.08      -0.46
      5.18       0.30       0.37
      5.89       0.64      -0.26
      6.24       0.68      -1.19
      5.71       0.23      -0.85
      6.01       0.61      -1.01
      6.54       0.41      -0.33
      5.96       0.56      -0.45
      5.82       0.79      -0.96
      7.05       0.31      -0.43
      7.75       0.39       0.18
      6.14       0.62       0.25
      6.57       0.29       0.37
      5.50       0.37       0.27
      6.81      -0.82      -0.07
      7.81      -0.61      -0.31
      7.89       0.18      -0.27
      8.86       0.10       0.04
      7.22       0.21      -0.56
      7.02       0.07       0.59
      7.25       0.33       0.10
      6.77       0.49       0.44
      6.84       1.33       0.62
      7.24       1.03      -0.20
      7.42       0.57       0.54
      6.99       1.23      -0.19
      7.51       0.93      -0.16
      6.70       0.77      -0.02
      6.53       1.08      -0.45
      6.77       1.67      -0.85
      6.75       0.18      -0.90
      5.99       0.59      -0.19
      5.65       0.82       0.07
      6.43       0.45      -0.44
      6.55       0.19      -0.31
      6.21      -0.66      -0.26
      7.14       0.15      -0.19
      7.05       0.39       0.27
      6.51      -0.00      -0.04
      7.00      -0.46      -0.24
      7.38       0.10      -0.29
      6.00      -0.09       0.33
      6.03      -0.06      -0.39
      5.85       0.03       0.18
      5.65      -0.19       0.14
      5.54       0.46      -0.29
      5.29       0.29      -0.36
      5.15       0.36      -0.39
      5.73      -0.06      -0.78
      6.89       0.50      -0.10
      6.60      -0.27      -0.16
      5.56       0.14      -0.09
      6.20      -0.30       0.46
      7.66      -0.68      -0.27
      7.00      -0.18       0.29
      7.05      -0.45      -0.77
      7.47      -0.13      -0.84
      7.08       0.17      -0.38
      7.64       0.25       0.09
      5.84      -0.67       0.12
      6.05       0.51      -0.46
      6.87       0.17       0.05
      5.60       1.05      -0.80
      5.85       1.40      -0.22
      6.21      -0.04      -0.52
      5.67      -0.44      -0.55
      6.76      -0.26       0.44
      6.81      -1.03       0.36
      6.57      -0.43      -0.09
      6.30      -1.44       0.02
      6.55      -0.53      -0.83
      7.34      -1.29      -0.87
      6.34       0.23      -0.87
      6.40      -0.31      -0.57
      5.38       0.02       0.29
      5.25      -0.67      -0.75
      5.10      -0.43      -0.61
      5.23       0.48      -0.20
      5.77      -0.12      -0.59
      6.55      -0.27      -0.91
      5.88       0.83      -0.10
      6.39       0.86      -0.19
      5.86       0.99       0.09
      5.84       0.01       0.94
      5.08       0.76       0.07
      6.29      -0.03       0.06
      6.06      -0.50      -0.46
      6.18       0.07      -0.55
      4.54       0.29      -0.63
      4.84      -0.31       0.61
      5.38      -0.44       0.38
      5.56      -0.11       0.57
      5.56      -0.57       0.46
      5.60       0.01       0.19
      5.09      -0.48       0.16
      4.99      -0.83       0.34
      4.20      -0.92      -0.17
      3.67      -0.37      -0.16
      4.62      -0.95       0.42
      3.71      -0.81      -0.79
      5.02      -0.66      -0.38
      6.08      -0.85      -0.01
      5.76       0.21      -0.41
      6.33      -0.28      -0.03
      6.56       0.43      -0.67
      5.24       0.91      -0.75
      7.03       0.16      -0.65
      6.53       0.52      -1.08
      6.40       0.66      -0.32
      6.15       0.73      -0.76
      6.58      -0.28      -0.29
      6.40       0.01      -0.01
      6.65      -0.13      -0.16
      6.65       0.46      -0.48
      7.42       0.23      -0.25
      7.16       0.44      -0.05
      7.07       0.61       0.25
      6.62      -0.25      -0.22
      7.24       0.55      -0.23
      6.99      -0.45      -0.10
      8.01       1.29      -0.09
      8.84       0.60       0.00
      7.54       1.20       0.19
      6.98       1.54       0.36
      7.57       1.01       0.19
      8.23       0.26      -0.00
      8.41       0.50       0.01
      7.82       0.41      -0.63
      7.94       0.77      -1.26
      6.13       1.21      -0.61
      6.16       0.29      -0.59
      6.96      -0.10      -0.64
      5.75       0.84      -0.33
      7.09       0.30       0.03
      6.41      -0.71      -0.19
      7.07      -0.25       0.17
      6.05      -0.49      -0.34
      7.36       0.11       0.02
      5.61       0.22       0.04
      6.10       0.74       0.26
      6.42       0.28       0.40
      6.99       0.66       0.12
      6.83      -0.11       0.35
      6.72       0.03      -0.15
      5.85       0.57       0.46
      6.33       1.08       0.92
      5.98       0.29       0.63
      5.93       0.43      -0.37
      6.70       0.31       0.13
      6.18       0.54      -0.39
      7.31       0.85      -0.11
      6.42       0.07      -0.13
      5.83       0.29       0.01
      6.30      -0.13       0.35
      6.84      -0.71       0.37
      6.82      -0.19      -0.15
      7.58      -0.20      -0.33
      7.39      -0.83      -0.77
      8.03       0.44      -0.88
      8.58      -0.02      -0.51
      7.55      -0.10       0.65
      6.39      -0.07       0.15
      6.88       0.81      -0.01
      6.56       0.74      -0.10
      5.97       0.21      -0.30
      5.22       0.19       0.01
      5.91      -0.29      -0.31
      7.06      -0.93      -0.39
      6.50      -0.07      -0.27
      6.47       0.29      -0.25
      6.13      -0.02      -0.44
      6.50      -0.61      -0.40
      6.93      -1.47      -0.17
      7.16      -0.95      -0.34
      6.70       0.28      -0.79
      6.46       0.11      -0.06
      6.02      -0.56      -0.53
      5.40      -0.41      -0.55
      5.65      -0.18      -0.16
      5.87       0.28      -0.40
      6.92       0.78      -1.03
      5.80       0.42      -0.43
      6.57       0.89      -0.24
      6.93       0.63       0.15
      6.18       0.28       0.16
      6.88       1.99      -0.46
      6.70       0.84       0.02
      7.34       0.13      -0.41
      6.00       0.07      -0.48
      6.58      -0.65      -0.31
      5.87      -0.21       0.57
      6.94      -0.32       0.33
      6.60      -0.89       0.27
      5.74      -0.95      -0.29
      5.33      -0.21      -0.48
      5.93      -0.13      -0.53
      5.36      -0.21      -0.38
      5.30      -0.75       0.17
      4.12      -0.14       0.23
      4.28      -0.59       0.46
      5.21      -1.50       0.12
      5.84      -0.01       0.87
      7.81      -0.81      -0.43
      7.22       0.38       0.10
      6.34       0.05       0.26
      5.52       0.59      -0.33
      6.78      -0.42      -0.30
      5.91      -0.09      -0.92
      6.71       0.81      -1.00
      6.79       0.51      -0.36
      7.89       0.41      -0.60
      7.80       1.53      -0.01
      6.49       0.52      -0.66
      7.35      -0.46      -0.15
      7.52       0.66       0.20
      8.56       1.04       0.09
      6.93       0.73      -0.47
      7.55       0.05      -0.97
      7.27      -0.03      -0.90
      7.56       0.16      -0.50
      7.41       0.36       0.36
      9.01      -0.03      -0.14
      8.14       1.04      -0.14
      8.73       0.50       0.36
      7.51       0.53       0.15
      7.34       0.53       0.08
      8.19       0.16       0.43
      7.93       0.97      -0.18
      8.08       0.17      -0.06
      7.45       0.87      -0.40
      6.04       0.18      -0.51
      6.90       0.53       0.30
      7.41       0.08      -0.68
      6.72      -0.38      -0.17
      6.58      -0.01       0.54
      6.96      -0.47       0.06
      6.71       0.35       0.00
      6.42       0.58      -0.41
      6.65      -0.04      -0.24
      6.15       0.07       0.05
      5.81      -0.06       0.01
      5.61      -0.62      -0.19
      5.99      -0.05       0.54
      6.29      -0.67      -0.23
      7.44      -0.99       0.77
      7.53       0.38       0.02
      8.29       1.12       0.13
      7.55      -0.14      -0.59
      7.31       0.33       0.06
      6.97       0.12       0.66
      7.19       0.73      -0.45
      6.85       0.31      -0.25
      6.58       0.33      -0.06
      5.91       0.39       0.38
      6.79      -0.19       1.12
      6.79      -0.31      -0.18
      7.65      -0.89      -0.45
      7.01      -0.57      -0.92
      7.53       0.60      -0.77
      7.35      -0.04      -0.07
      7.71      -0.58      -0.04
      7.62      -0.04       0.53
      7.74      -0.30       0.36
      6.92       0.17      -0.47
      6.80       0.26       0.22
      6.16      -0.32      -1.12
      6.59       0.76      -0.40
      7.38       0.16      -0.14
      7.06      -0.97       0.02
      6.71      -0.48       0.13
      5.79      -0.60      -0.10
      6.37      -0.56      -0.19
      6.99      -0.78      -0.82
      6.46      -0.96      -0.07
      5.73      -0.63      -0.36
      5.96       0.27      -0.07
      6.12       1.02       0.03
      6.73       0.17      -0.09
      6.97      -0.22       0.16
      6.88       0.46      -0.18
      6.40       0.19      -0.04
      6.30       0.29       0.31
      6.01       0.28      -0.04
      6.98       0.74      -0.33
      6.49       0.95      -0.42
      6.59       0.84      -0.01
      7.16       0.51       0.57
      6.61       0.03       0.10
      6.70       0.46      -0.32
      7.17       0.89      -0.34
      6.60      -0.84      -0.27
      6.25       0.11      -0.05
      7.11      -0.24       0.32
      6.80      -0.24       0.34
      6.49      -0.70      -0.47
      6.22       0.04       0.16
      6.40      -0.05       0.21
      5.00      -0.44      -0.01
      5.59       0.07      -0.04
      5.86      -0.54       0.16
      5.20      -1.11       0.23
      5.65       0.17      -0.07
      6.47       0.77      -0.57
      8.10       0.19      -0.12
      7.70       0.78       0.38
      6.43       0.12      -0.09
      6.04      -0.27      -0.76
      6.19      -0.19      -0.29
      6.02       0.12       0.03
      6.75       0.30      -0.83
      7.62       0.44      -1.22
      6.90       0.87       0.04
      6.00       1.12       0.11
      6.73       0.64       0.22
      6.72       0.02      -0.20
      7.37      -0.19      -0.02
      6.86       0.31      -0.46
      6.96       0.71      -0.17
      6.92       0.79      -0.54
      7.70      -0.15       0.01
      8.70      -0.09      -0.24
      8.41      -0.60       0.68
      7.24       0.25      -0.33
      7.21       0.85       0.24
      7.08      -0.15       0.22
      7.77       0.18       0.05
      7.10       0.99       0.23
      7.07       1.36       0.18
      8.13       0.17      -0.29
      7.73       1.15      -0.11
      8.43       0.02      -0.21
      6.55      -0.27      -0.04
      6.57      -0.06       0.09
      6.59       0.37       0.17
      6.45       0.71      -0.02
      5.87      -0.33       0.26
      6.98      -0.21       0.37
      7.11      -1.28      -0.14
      6.23       0.35      -0.25
      5.57       0.23      -0.31
      6.27       0.86      -0.42
      6.37       0.14       0.01
      6.45       0.71       0.08
      6.83       0.01       0.27
      8.16       0.01       0.15
      6.70      -0.49      -0.17
      7.65       0.59       0.25
      8.71       0.82      -0.10
      9.03       0.76      -0.68
      7.73      -0.61      -0.02
      8.32      -0.47       0.38
      6.92      -0.10      -0.27
      7.34      -0.36      -0.57
      7.17      -0.05      -0.06
      6.18      -0.27      -0.09
      6.77      -0.32       1.03
      6.43      -0.94       0.05
      8.18      -0.88      -0.16
      8.14      -0.17      -0.30
      7.97       0.38       0.02
      8.17      -0.40       0.11
      8.26      -1.67      -0.11
      9.16      -0.73       0.22
      8.49       0.45       0.48
      7.19       0.76      -0.54
      6.58       0.71      -0.24
      6.20       0.50      -0.58
      6.21       0.55      -0.98
      6.13       0.56      -0.21
      5.78      -0.53      -0.43
      6.98      -0.60      -0.44
      5.84      -0.06      -0.25
      6.30      -0.41      -0.22
      5.71      -0.45      -0.27
      6.04       0.58       0.57
      6.09      -0.58      -0.15
      6.46      -0.61       0.31
      6.74       0.10      -0.31
      6.51       0.22      -0.46
      6.77      -0.13       0.03
      6.91       0.27      -0.11
      7.16       0.65       0.08
      7.29       0.40       0.38
      6.89      -0.47       0.22
      6.40       0.86      -1.25
      7.13       1.55      -0.18
      7.63       0.08       0.09
      7.66       0.33       0.06
      7.58       0.84      -0.24
      7.11       0.98      -0.30
      7.69       1.07       0.18
      8.11      -0.21      -0.52
      7.54      -0.53       0.16
      6.68      -1.09      -0.36
      5.81      -0.77       0.25
      6.51      -0.40       0.25
      6.23      -0.76      -0.13
      6.34       0.36      -0.54
      6.05       0.19       0.35
      5.97      -0.05      -0.21
      5.73       0.02      -0.44
      4.76      -0.09       0.00
      5.45       0.77      -0.27
      6.26       0.10       0.41
      7.82       0.51       0.41
      7.24       1.38       0.20
      7.39       0.01       0.09
      6.48       0.13      -0.12
      5.81      -0.40      -0.72
      6.20      -0.19      -0.57
      6.81       0.77       0.10
      6.77       0.90       0.03
      7.32       0.45      -0.03
      7.13       0.33      -0.66
      7.41       0.91      -0.13
      7.02       0.19      -0.02
      7.68      -0.82       0.08
      7.27       0.02       0.22
      8.09       0.04      -0.24
      7.59       0.36       0.05
      7.79      -0.05      -0.14
      6.95      -0.52      -1.00
      8.44       0.27      -0.05
      8.07       0.91      -0.36
      7.46       0.84      -0.35
      7.54       0.43       0.26
      8.23       0.68       0.35
      7.13       0.76       0.41
      7.54       1.02       0.26
      7.59       0.98      -0.74
      7.17       0.88      -0.47
      7.59       0.64       0.65
      7.44       0.38       0.35
      7.40       0.40       0.74
      6.95       0.35       0.72
      6.99       0.10       0.31
      5.83       0.24      -0.90
      6.42      -0.03       0.20
      6.88       0.08       0.08
      6.22      -0.49      -0.61
      5.86      -0.37      -0.33
      6.75       0.10      -0.24
      6.06      -0.09      -0.05
      6.35      -0.16       0.03
      6.36       0.36       0.55
      7.10      -0.18       0.55
      7.10      -0.61      -0.67
      7.07      -0.67      -0.34
      8.42      -0.17      -0.08
      8.52       0.10       0.19
      8.54      -1.06      -0.63
      9.33      -0.73      -0.03
      7.33       0.12       0.13
      7.02      -1.63      -0.45
      6.59      -0.76      -0.37
      6.10      -0.96       0.68
      6.82      -1.76       0.22
      8.02      -1.60       0.57
      7.04      -1.14       0.41
      7.05       0.13       0.25
      8.67      -0.06      -0.37
      8.35      -1.00      -0.13
      8.59      -0.53      -0.65
      8.37      -0.17      -0.17
      8.52      -0.64       0.47
      7.42      -0.57      -0.94
      7.36       0.30       0.07
      7.54       0.77       0.10
      7.13       1.01      -0.59
      6.31       0.58      -0.19
      5.79      -0.62       0.21
      6.43      -0.40      -0.58
      7.59       0.03      -0.08
      6.43      -0.38      -0.31
      6.20      -0.17       0.35
      6.16      -0.25       0.09
      6.21      -0.03       0.26
      5.93      -0.03       0.13
      6.71       0.49       0.47
      7.53      -0.01      -0.31
      7.64      -0.03      -0.55
      7.40      -0.06       0.41
      7.34       0.23      -0.35
      6.68       0.70       0.38
      6.94       1.51      -0.55
      7.27       0.77       0.30
      6.89       1.11      -0.08
      7.61       0.64      -0.46
      6.97       0.27       0.38
      7.41       0.21      -0.23
      7.21       0.75       0.25
      7.45       1.00       0.29
      7.82       0.34      -0.56
      7.99      -0.28      -0.46
      8.71      -0.58      -0.10
      7.41       0.22      -0.97
      7.57       0.18      -0.19
      8.46      -0.25      -0.67
      6.28       0.71      -0.11
      6.11      -0.18      -0.78
      7.09       0.25      -0.11
      6.22       0.45       0.12
      5.71       0.48      -0.47
      5.76       1.12      -0.43
      6.88       0.49       0.93
      6.60      -0.33       0.58
      7.13       0.43      -0.26
      6.46      -0.05      -0.78
      6.09      -0.10      -0.70
      8.23       0.76      -0.57
      6.96      -0.65      -0.68
      6.07      -0.70      -0.46
      7.05       0.78      -0.85
      7.14      -0.21       0.09
      6.82      -0.57      -0.62
      7.85       0.29      -0.64
      7.63      -0.20       0.35
      8.10      -0.22       0.19
      7.24      -0.10       0.06
      7.91       0.56      -0.05
      8.78       0.28      -0.28
      8.56       1.02      -0.60
      8.19       0.89      -0.20
      7.76       0.91       0.12
      7.88       0.50       0.07
      6.93       1.15       0.33
      8.09       0.91      -0.27
      7.52       0.78       0.63
      8.36       0.84       0.56
      7.47       0.67      -0.25
      7.96       0.50      -0.50
      7.47       1.14      -0.28
      7.64       0.96       0.34
      7.26       0.60       0.51
      7.82       1.30      -0.65
      6.99       0.91       0.00
      7.15       0.85      -0.59
      7.19      -0.02      -0.76
      6.63       0.33       0.32
      6.86       0.24       0.14
      6.89       0.28      -1.04
      7.73      -0.05      -1.18
      7.40      -0.05      -0.60
      6.60      -0.62      -0.14