# vtk DataFile Version 3.0
Low resolution, disturbed wind of YZ Slice at time = 3 seconds.
ASCII
DATASET STRUCTURED_POINTS
DIMENSIONS     1   101    35
ORIGIN    2008.00    -500.00       5.00
SPACING       9.71      10.00      10.00
POINT_DATA            3535
VECTORS DisYZ float
      4.18       1.64      -0.03
      5.60       1.65       0.73
      4.27       0.76       0.37
      4.66       1.41       0.40
      3.62       0.56      -0.05
      4.11       0.30      -0.17
      3.89      -0.10       0.34
      4.96       0.46       0.21
      4.61       0.89      -0.44
      3.73       0.12       0.10
      4.29       0.28       0.20
      3.59       0.24      -0.31
      4.76      -0.12      -0.10
      4.75       1.28       0.20
      4.80       0.96      -0.23
      5.64       0.21       0.53
      5.66       1.05       0.00
      4.03       1.45       0.20
      3.77       0.05       0.18
      5.61       0.15      -0.64
      4.51       0.09       0.03
      4.17      -0.32       0.31
      5.06      -0.11       0.04
      4.45      -0.01      -0.23
      5.21      -0.62       0.84
      5.48       0.44       0.51
      5.28      -0.22      -0.20
      5.16       0.77       0.30
      4.57       0.87      -0.09
      4.34       1.72      -0.58
      4.97       0.96      -0.70
      5.42       0.34      -0.16
      4.92       0.21       0.19
      3.08       0.18      -0.07
      3.86       0.13      -0.06
      4.28       0.40       0.02
      4.10      -0.02      -0.39
      4.52      -0.48       0.23
      5.22       0.01       0.60
      4.68      -1.24       0.60
      4.50      -0.78       0.41
      5.41      -0.80       0.41
      5.56      -1.70       0.02
      6.25      -1.68       0.10
      5.66      -0.73       0.55
      5.22      -1.75       0.45
      6.71      -1.35       0.06
      5.18      -1.78       0.54
      6.25      -0.91      -0.17
      6.24      -1.00      -0.36
      6.10      -0.59       0.32
      6.03      -0.51      -0.51
      5.12       0.31      -0.12
      4.85       0.39      -0.23
      5.61       0.24       0.25
      5.04       0.58      -0.12
      4.35      -0.02       0.62
      4.46      -0.04       0.02
      4.23      -0.25       0.19
      4.40      -1.23      -0.43
      3.61       0.19      -0.15
      4.51      -0.22       0.23
      4.15      -0.47      -0.45
      4.59      -0.20       0.35
      4.74      -0.76       0.36
      4.31      -0.45       0.11
      5.01      -0.07      -0.59
      4.84       0.33      -0.06
      4.19       0.18      -0.55
      4.01      -0.76      -0.79
      4.20      -0.64      -0.52
      4.04      -0.50      -0.57
      3.29      -0.63       0.11
      2.37      -1.20      -0.15
      3.20      -1.07      -0.24
      3.90      -0.97      -0.31
      4.11      -1.04      -0.47
      4.52      -0.31      -0.01
      3.81      -0.50       0.22
      3.47      -0.06      -0.08
      3.58      -0.42      -0.32
      4.42      -0.25       0.43
      4.06       1.16       0.52
      4.06      -0.03       0.53
      4.51       1.09       0.32
      4.53       0.75       0.05
      4.06       0.80      -0.05
      3.94       1.21      -0.48
      3.86      -0.38       0.21
      3.45      -0.03       0.17
      3.65      -0.69       0.35
      3.41      -0.36       0.44
      4.00      -0.11       0.18
      3.63      -0.51       0.45
      3.89      -0.25       0.56
      4.70       0.01       0.35
      2.86      -0.42       0.62
      3.91       0.61       0.77
      3.82       1.20       0.17
      3.49       0.22       0.79
      3.00      -0.27       0.26
      5.31       1.10       0.39
      6.02       0.86      -0.12
      5.83       1.56      -0.05
      6.21       1.37       0.83
      5.65       0.70       0.49
      6.39       1.17       0.53
      5.37       0.83       0.93
      4.84       0.84       0.83
      5.11       1.13      -0.17
      5.41       0.71      -0.26
      5.92       1.16      -0.36
      5.04       0.34      -0.32
      4.96       0.97      -0.16
      6.06       0.65       0.10
      6.27       0.75      -0.32
      6.38       0.46      -0.18
      7.42       1.30       0.03
      5.15       0.42       0.08
      5.31       0.26      -0.27
      5.07       0.25       0.41
      6.01      -0.94      -0.15
      6.99       0.39       0.39
      6.21      -0.24       0.45
      4.91      -0.51       0.18
      5.28      -0.62      -0.13
      5.99       0.19       0.42
      6.39       0.14      -0.39
      7.00       0.29      -0.07
      6.14       0.29       0.47
      5.18       0.81      -0.53
      6.20      -0.19      -0.14
      6.54       0.60       0.44
      6.28      -0.22       0.72
      5.54       0.07       0.15
      5.27       0.86       0.55
      6.26      -0.40       0.76
      5.45      -0.36      -0.47
      5.55       0.10       0.11
      6.14      -0.52       0.16
      6.00       0.12      -0.05
      4.99      -0.01       0.15
      6.56       0.02       0.60
      5.83      -0.83       0.10
      6.58      -0.95       0.35
      6.58      -1.02      -0.05
      7.02      -1.11       0.48
      6.04      -1.35       0.09
      6.65      -0.51       0.25
      7.40      -1.81       0.41
      7.09      -1.01       0.37
      6.90      -1.33       0.23
      6.23      -0.72      -0.26
      5.70      -1.02      -0.20
      7.06       0.16       0.20
      5.83       0.03       0.00
      5.30      -0.22       0.15
      4.95      -0.01       0.32
      5.54       0.18      -0.18
      6.84      -0.57      -0.24
      6.69      -0.79      -0.02
      5.34      -1.47      -0.18
      5.17      -0.85      -0.59
      5.56      -0.84       0.01
      5.44      -0.03       0.06
      5.67      -0.26      -0.15
      6.56      -0.68       0.46
      5.84       0.31       0.36
      5.52       0.34      -0.01
      5.43       0.30      -0.58
      4.77      -0.30      -0.45
      4.74      -0.68      -0.71
      4.38      -0.78      -0.45
      4.20      -1.72       0.33
      4.81      -0.88       0.03
      4.60      -0.28       0.06
      5.08      -0.85       0.26
      4.59      -0.88      -0.29
      5.69      -0.61      -0.77
      5.41      -1.10      -0.15
      5.46      -0.62      -0.26
      4.26      -0.26       0.24
      4.55       0.15       0.25
      5.34      -0.23       0.85
      5.73       0.33       0.49
      5.12       0.22      -0.00
      6.06       0.55       0.12
      4.91       0.50       0.09
      5.40       0.23       0.35
      5.29       0.23       0.16
      4.33      -0.93      -0.07
      4.08      -0.67       0.39
      4.46      -1.09       0.93
      4.74      -0.40       0.87
      5.62      -0.98       0.42
      5.60       0.34       0.82
      4.78       0.36       0.89
      5.55       0.03       1.51
      4.84      -0.03       0.65
      4.57       1.52       0.39
      4.46       0.26       0.50
      4.39      -0.08       0.36
      6.55       0.81       0.10
      6.64       1.23       0.17
      6.83       0.93      -0.10
      6.42       1.09      -0.40
      7.59       0.54       0.36
      7.52       0.38       0.45
      5.57       0.03       0.51
      5.22      -0.18       0.50
      5.74       1.62       0.04
      6.46       0.77      -0.33
      6.38       0.94      -0.88
      5.88       0.56      -0.68
      6.24       1.19       0.11
      6.20       0.97      -0.15
      5.74       0.92      -0.09
      6.44       0.41      -0.08
      7.24       0.92      -0.14
      6.84       0.71       0.30
      7.61       0.02       0.02
      6.93      -0.60      -0.00
      6.25      -0.18       0.14
      7.70      -0.94       0.28
      5.99      -0.03      -0.02
      4.92      -0.89      -0.13
      5.07      -0.86      -0.21
      6.26      -0.26      -0.24
      7.08      -0.91       0.37
      8.35       0.09      -0.89
      7.13       0.04      -0.17
      7.63      -0.57       0.65
      7.15      -0.02       0.48
      6.95      -1.00       0.46
      7.21      -0.51       0.82
      5.77      -0.48      -0.16
      5.83      -0.24       0.69
      6.56      -0.35       0.37
      6.36       0.41      -0.47
      6.61      -0.42      -0.19
      7.15      -0.81      -0.07
      6.20      -0.87      -0.35
      5.76      -0.33      -0.55
      5.72      -0.35      -0.05
      5.40      -0.86       0.12
      6.49      -1.36       0.83
      6.82      -1.45      -0.29
      7.24      -1.88      -0.22
      7.53      -0.24       1.09
      6.46      -0.73       0.42
      7.64      -1.40      -0.04
      6.94      -1.55       0.28
      7.72      -1.23      -0.20
      6.68      -0.57       0.16
      7.29      -0.21      -0.27
      7.22      -0.73       0.31
      6.35      -0.12      -0.01
      5.87      -0.04       0.06
      5.21      -0.35      -0.10
      6.97      -0.33      -0.34
      6.96      -0.59       0.26
      7.21      -0.50       0.20
      6.60      -0.10      -0.91
      6.00      -0.56      -0.50
      5.62      -0.31       0.27
      5.45       0.24       0.56
      5.14       0.33       0.22
      5.62      -0.30       0.30
      6.10       0.67      -0.01
      4.99       0.11      -0.14
      5.44       0.04      -0.36
      5.22      -0.26      -0.62
      5.60      -0.97      -0.70
      4.69      -1.08       0.07
      4.45      -0.89      -0.56
      5.70      -1.19      -0.11
      5.82      -0.18       0.52
      4.44      -1.05      -0.13
      5.93      -1.25      -0.20
      5.79      -1.17      -0.60
      6.30      -0.04      -0.33
      6.01      -0.92       0.05
      6.16       0.89       0.09
      6.07      -0.47      -0.16
      5.08      -0.22      -0.07
      5.17      -0.31      -0.60
      6.30      -0.16      -0.19
      6.01      -0.23       0.08
      5.12      -0.31      -0.16
      5.09       0.73      -0.02
      5.02      -0.78       0.86
      4.43      -0.46       0.28
      4.10      -0.06       0.45
      5.86      -0.50       0.23
      5.81       0.05       0.14
      5.79      -1.32       0.63
      5.53       0.21       0.65
      5.33       0.30       0.18
      6.00       0.31       0.71
      5.68       0.47       0.43
      4.47       0.00      -0.04
      4.69      -0.01      -0.41
      5.59      -0.22       0.18
      7.27       0.60       0.33
      6.37       0.79      -0.48
      7.43       0.56      -0.23
      7.32      -0.08       0.20
      6.65       0.97       1.16
      5.70       0.27       0.62
      5.88       0.25       0.60
      6.19       1.23       0.22
      6.60       0.94      -0.04
      6.40       0.25      -0.23
      6.99       1.21      -0.73
      7.45       0.98      -0.09
      6.80       0.80       0.09
      6.79       0.31      -0.04
      6.76       0.62       0.02
      6.43       0.52       0.07
      6.52       0.32      -0.23
      7.21       0.68      -0.33
      6.83       0.12      -0.82
      6.72       0.42       0.15
      6.93       0.41       0.88
      7.22      -0.15       0.20
      6.64      -0.53       0.01
      6.73      -0.75       0.59
      6.91      -0.41       0.04
      6.43       0.02      -0.14
      7.71       0.50       0.02
      6.73       0.35       0.06
      7.99      -0.73      -0.01
      8.82      -0.27       1.32
      9.10       0.32      -0.14
      8.31      -0.13       0.28
      8.63      -1.13       0.23
      6.46      -0.08       0.29
      7.00       0.32       0.95
      6.30      -0.62       0.30
      7.08       1.11       0.00
      7.18       0.52       0.13
      6.68      -0.01       0.42
      6.82      -0.52       0.41
      7.28      -0.69       0.50
      6.99      -0.55       0.01
      6.57      -1.58       0.05
      7.26      -1.21       0.55
      7.67      -1.78       0.11
      6.68      -1.60       0.40
      7.28      -1.56       0.58
      7.54      -0.74       0.10
      8.27      -1.87       0.27
      7.80      -1.33      -0.21
      7.49      -0.68      -0.01
      6.60      -1.03       0.25
      8.14      -0.68      -0.10
      7.09      -0.65      -0.32
      6.66      -0.55      -0.06
      7.17      -0.16      -0.16
      7.80      -0.33      -0.84
      6.73      -0.47      -0.49
      5.87      -1.53      -0.13
      7.24       0.10      -0.18
      7.22      -0.69       0.24
      6.08      -1.75       0.03
      6.62      -0.60       0.02
      6.35      -0.57       0.41
      5.00      -0.33      -0.00
      5.02      -0.01      -0.16
      6.14       0.12       0.28
      6.00       0.02       0.07
      5.13       0.26      -0.09
      5.90      -0.42      -0.14
      5.21       0.02      -0.57
      4.88      -0.36      -0.12
      6.36      -1.01       0.74
      6.70      -0.78       0.19
      6.66      -0.46       0.30
      6.54      -1.02      -0.68
      5.84      -0.65      -0.28
      5.49      -0.23      -0.27
      6.20      -0.04      -0.49
      6.33      -1.75      -0.13
      4.94      -1.24      -0.31
      5.92      -0.19       0.67
      5.80      -0.45      -0.11
      5.33       0.47       0.59
      6.32       0.07      -0.07
      7.02      -0.38      -0.60
      6.10       0.00      -0.52
      5.60       1.14       0.23
      5.86       0.03       0.14
      5.41      -0.27       0.03
      5.29      -0.18       0.11
      5.67      -0.54       0.63
      5.28       0.02       0.64
      4.93       0.43       0.09
      5.16      -0.01       0.31
      5.62       0.07       0.22
      5.10      -0.41      -0.11
      5.84       0.02       0.43
      5.66       0.14       0.93
      6.05      -1.01      -0.09
      5.93      -0.68       0.46
      7.22      -0.26      -0.36
      6.54       0.78      -0.54
      7.45       0.60      -0.01
      6.52       0.77       0.28
      6.32       1.39       0.22
      6.70       0.78      -0.27
      7.12       0.47       0.84
      6.21       0.64       0.42
      6.57       1.19      -0.46
      6.18      -0.05       0.02
      7.29       0.54       0.45
      7.46       0.91      -0.58
      8.08       0.50      -0.17
      7.71       1.41      -0.30
      7.05       0.83      -0.10
      6.97       0.94      -0.21
      6.85       0.66      -0.25
      7.39       0.65       0.14
      5.81       0.80      -0.23
      7.25       0.36      -0.66
      7.45       0.14      -0.33
      7.77      -0.63      -0.05
      7.34      -0.09      -0.59
      7.15      -0.81       0.96
      8.37      -0.86       0.15
      8.12      -0.18      -0.54
      8.40      -0.33       0.32
      7.25       0.21       0.18
      9.13       0.33      -0.00
      8.67       0.09      -0.12
      8.84       0.10       0.00
      8.55       0.15       0.11
      8.52      -0.81       0.29
      7.53       0.39       0.15
      7.00       0.50       0.13
      7.39       0.37      -0.01
      6.19       1.08      -0.65
      7.19       0.86      -0.14
      7.79       0.46       0.28
      7.61      -0.03       0.29
      7.24      -0.37      -0.14
      7.64      -1.18       0.69
      7.49      -0.93       0.19
      6.58      -0.69       0.07
      6.69      -0.73       0.41
      7.98      -1.09       0.40
      8.00      -0.77       0.74
      7.45      -0.95       0.24
      7.84      -0.97       0.44
      7.36      -0.54      -0.19
      8.04      -1.14      -0.20
      7.60      -0.58       0.18
      7.93       0.20       0.08
      7.38      -0.70       0.73
      7.54      -0.03       0.22
      6.57      -0.27       0.16
      7.08      -0.51      -0.13
      6.90      -0.56      -0.45
      6.95      -0.38      -0.73
      6.84      -0.18       0.36
      5.47      -0.23      -0.61
      5.38      -0.69      -0.14
      6.67       0.12      -0.16
      7.07      -1.58      -0.05
      6.12      -0.96       0.28
      6.82      -0.68       0.43
      6.37      -0.52       0.11
      5.11      -0.19      -0.02
      6.45       0.28      -0.21
      5.88       0.10      -0.35
      5.91      -0.30       0.08
      5.69      -0.63      -0.25
      7.09      -1.14       0.59
      6.38      -1.35       0.10
      6.23      -1.28       0.24
      6.30      -1.19       0.19
      6.38      -0.96       0.10
      6.17      -1.03      -0.57
      6.41      -0.14      -0.45
      6.52      -1.36       0.53
      6.94      -0.41      -0.14
      6.79      -0.86       0.06
      6.17      -0.56      -0.08
      6.39      -0.25      -0.01
      5.72      -0.07      -0.70
      6.62       0.55      -0.71
      5.92      -0.19      -0.70
      6.47      -0.84      -0.56
      6.59      -0.35      -0.09
      6.57      -0.45       0.03
      5.89      -1.42      -0.02
      6.67      -0.80      -0.36
      6.80      -0.63       0.70
      6.37      -0.46       0.13
      6.33      -0.04       0.75
      6.88       0.99       0.71
      6.32      -0.18      -0.21
      4.72      -0.69      -0.06
      5.28       0.57      -0.11
      6.16      -0.11      -0.01
      6.14      -0.27       0.50
      7.29       0.74      -0.55
      8.03       0.82      -0.15
      7.21       0.30      -0.32
      6.69       0.47       0.15
      6.38       0.03       0.06
      5.81       1.04      -0.36
      7.89       0.98       0.08
      7.73       0.68       0.18
      7.18       0.33      -1.01
      7.73       0.32      -0.46
      7.50       0.32       0.10
      8.37       0.43      -0.31
      8.99       0.62       0.80
      7.69       1.32      -0.46
      7.63       0.49       0.19
      7.05       0.51      -0.03
      7.29       0.21       0.03
      8.16       0.25       0.03
      7.69       1.06      -0.49
      7.54       1.14      -0.40
      7.46       0.61      -0.54
      6.58      -0.44      -0.63
      7.18      -0.39      -0.68
      7.29      -0.15       0.64
      8.26      -0.56      -0.11
      7.87       0.62      -0.50
      8.74      -0.01       0.22
      9.00      -0.23       0.08
      8.14      -0.00       0.20
      8.89       0.45      -0.37
      8.87      -0.03      -0.43
      8.15       0.02      -0.11
      7.49      -0.08       0.41
      7.96       0.62       0.44
      7.54       0.45      -0.12
      7.12       1.25      -0.06
      6.40       0.71      -0.71
      7.67       1.58      -0.26
      7.73       0.85       0.76
      7.62      -0.36      -0.08
      7.83      -0.65       0.15
      6.24      -1.06      -0.16
      7.16      -1.53       0.35
      7.70      -0.61       0.27
      6.93      -0.76      -0.10
      7.24      -1.39       0.42
      8.44      -1.10       0.24
      7.50      -1.40      -0.15
      8.28      -0.79       0.14
      7.45      -0.55       0.45
      7.06      -0.90       0.82
      7.70      -0.21       0.48
      8.60      -0.80      -0.49
      7.74      -0.02      -0.08
      7.25       0.06      -0.01
      6.63       0.23      -0.00
      6.42      -0.06       0.06
      5.91      -0.68       0.13
      6.92      -0.82       0.09
      6.18       0.15      -0.50
      6.92      -0.58      -0.92
      6.14      -0.42       0.13
      7.65       0.10      -0.20
      7.53      -0.50      -0.52
      6.44      -1.30      -0.09
      6.16      -0.80       0.75
      6.53      -0.21       0.20
      6.37      -0.41       0.36
      5.55       0.21      -0.34
      6.83      -0.18       0.58
      6.54       0.05       0.30
      6.80      -1.20      -0.04
      6.47      -1.33      -0.05
      7.57      -1.19       0.38
      6.89      -1.85       0.34
      5.94      -0.89      -0.01
      6.68      -0.82      -0.46
      5.87      -0.24      -0.05
      7.09      -1.05      -0.42
      6.47      -1.22       0.18
      6.58      -0.58      -0.15
      7.21      -0.88       0.77
      7.18      -0.50       0.58
      7.28      -0.83      -0.00
      7.55      -0.62      -0.03
      7.48      -0.41      -1.07
      6.34      -1.01      -0.40
      7.61      -0.35      -0.44
      7.30      -0.51       0.25
      6.56       0.21      -0.01
      6.76      -0.77      -0.40
      7.17      -0.88      -0.25
      7.39       0.08       0.10
      6.50       0.59       0.05
      6.46       0.66      -0.44
      6.17       1.07      -0.11
      7.25      -0.03      -0.12
      5.71       0.19      -0.19
      6.65       0.54      -0.38
      6.07       0.31      -0.37
      5.63       0.08       0.02
      9.14       0.44      -0.49
      7.93       0.68       0.12
      7.76       0.88      -0.01
      7.07       1.11       0.13
      7.97       0.72      -0.02
      6.13      -0.44      -0.07
      6.65       1.11       0.49
      7.83       0.50      -0.24
      7.71      -0.42      -1.19
      8.77      -0.37      -0.64
      8.09       0.40      -0.26
      8.91       1.47      -0.45
      8.33       0.64       0.30
      8.79       0.97      -0.31
      9.74      -0.30      -0.27
      7.73       0.21      -0.38
      7.27       0.02       0.85
      8.71       0.52       0.76
      7.58       0.40       0.13
      7.37       2.31      -0.56
      7.56       0.81      -0.70
      7.17      -0.03      -0.43
      6.78       0.33       0.13
      6.49       0.12      -0.11
      8.48      -0.18       0.11
      7.29      -0.02      -0.18
      8.40      -0.04       0.27
      8.87       0.04      -0.09
      9.49      -0.65      -0.43
      9.31      -0.28      -0.22
      8.26      -0.21       0.05
      8.03      -0.96      -0.46
      8.24      -0.48      -0.60
      7.50       0.64      -0.04
      8.46       1.16       0.13
      8.06       0.50      -0.19
      6.13       0.96       0.44
      6.93       0.42       0.15
      8.33       0.97      -0.03
      8.28      -0.06       0.26
      7.87      -1.09       0.21
      7.28      -0.62      -0.35
      7.41      -0.98       0.03
      7.27      -1.32       0.48
      6.44      -1.52       0.53
      7.43      -1.10       0.33
      7.82      -0.58       0.48
      7.32      -1.96       0.39
      7.49      -0.11       0.37
      7.89      -1.06      -0.70
      6.90      -0.69      -0.09
      7.08      -0.66      -0.16
      8.26      -0.00      -0.25
      7.93      -0.09       0.13
      6.70       0.13       0.45
      6.15      -0.37       0.34
      6.68       0.14      -0.09
      5.53      -0.20      -0.30
      6.07      -0.58      -0.44
      6.54      -1.29      -0.40
      7.58      -0.76      -0.34
      7.60      -0.56      -0.74
      8.41      -0.18       0.42
      7.13      -0.76      -0.51
      7.96      -1.43       0.23
      6.99       0.18      -0.19
      6.71      -0.65       0.08
      7.28      -0.39      -0.24
      5.84      -1.01      -0.20
      7.06      -0.75       0.12
      6.85      -0.72      -0.16
      6.74      -1.14      -0.05
      7.00      -0.66       0.17
      7.95      -2.00       0.03
      7.80      -0.50      -0.47
      7.24      -0.79       0.85
      6.91      -0.63      -0.23
      7.36      -0.25      -0.57
      6.37      -0.43      -0.10
      6.09       0.17       0.11
      5.65      -0.65       0.87
      6.17      -0.32       0.15
      7.42      -0.09       0.58
      8.36      -1.41       0.43
      7.96      -0.13      -0.00
      7.82      -0.68       0.12
      7.26      -0.39       0.60
      8.53      -1.01       0.51
      8.22      -0.87       0.53
      7.76      -0.56       0.26
      7.15      -0.71       0.30
      7.25       0.02      -0.34
      7.18       0.62      -0.49
      6.99       0.74       0.11
      7.05       1.33       0.04
      7.36       1.88      -0.41
      6.42       0.94       0.26
      5.84       0.62      -0.96
      5.34      -0.59      -0.47
      7.06       1.04      -0.57
      5.82      -0.24      -0.01
      7.76       0.71      -0.47
      8.71       1.09       0.01
      8.72       0.34       0.21
      8.09       0.47      -0.36
      8.08       0.09       0.75
      7.28       0.93       0.11
      8.04       0.42       0.02
      7.77       0.04       0.18
      7.91       0.56       0.34
      8.79      -0.02      -0.20
      9.21       0.89       0.07
      9.06       1.56      -0.38
      8.70       1.20       0.28
      9.45       0.94       0.51
      9.00       0.33      -0.00
      8.70       0.22      -0.07
      8.27       0.33      -0.16
      7.71       0.50       0.21
      7.53       1.06      -0.01
      8.48       0.26      -0.22
      8.22       0.90       0.10
      7.65      -0.05      -0.19
      6.85       0.05      -0.07
      8.44      -0.40       0.25
      8.20      -0.65      -0.47
      9.33       0.06      -0.48
      9.64       0.93      -0.17
      9.36      -0.08       0.13
      9.05      -0.19      -0.04
      9.65      -0.24      -0.63
      9.24      -0.80      -0.21
      9.09      -0.86      -0.28
      8.45       0.44      -0.66
      8.44       0.41       0.03
      8.41       1.18      -0.64
      8.22       0.20      -0.22
      8.21       1.41       0.18
      8.90       1.16       0.73
      8.77       0.82       0.03
      9.16       0.25      -0.23
      8.30      -0.32       0.13
      7.79      -0.59       0.27
      8.39      -0.40       0.30
      7.08      -1.21       0.15
      6.81      -0.42       0.28
      7.98      -0.33       1.14
      7.93      -0.09       0.56
      7.56      -0.55       0.76
      7.90      -0.82       0.04
      8.66      -0.63       0.11
      7.86      -0.72      -0.24
      7.88      -0.50      -0.18
      7.99      -0.44      -0.18
      8.77       0.11       0.04
      8.00      -0.57       0.31
      7.15      -0.39       0.12
      7.00      -0.28      -0.12
      7.38      -1.31      -0.70
      6.31      -1.06      -0.09
      7.31      -2.20      -0.30
      7.99      -0.78      -0.19
      7.97       0.24       0.63
      8.83       0.54      -0.27
      8.86      -0.05       0.20
      7.97      -0.25       0.21
      7.04      -1.38       0.20
      7.09      -0.55       0.20
      7.08      -0.46       0.64
      7.09      -0.78       0.39
      7.51      -1.01       0.15
      7.96      -0.60      -0.22
      7.29      -0.06       0.33
      7.12       0.25       0.34
      6.95      -0.78       0.04
      7.79      -0.55       0.49
      7.75       0.22       0.24
      6.92      -0.67       0.21
      7.13      -0.36      -0.36
      6.47      -0.54       0.02
      6.73      -0.13       0.26
      6.67      -0.19       0.90
      6.66       0.24       0.65
      7.53      -0.14       0.54
      8.41      -0.30       0.16
      7.88       0.06       0.10
      7.94      -0.41       0.56
      7.60       0.34       0.25
      7.53      -0.09      -0.34
      8.78      -0.72       0.49
      8.64      -0.20       0.23
      6.73       0.05       0.34
      6.32       0.09      -0.57
      6.20       0.96      -0.23
      6.79       0.34       0.00
      7.12       1.04      -0.32
      6.85       1.50       0.56
      7.20       0.35      -0.04
      6.26       0.22       0.90
      6.61       0.35      -0.07
      8.05       0.25      -0.01
      6.09       0.09      -0.65
      9.86       1.29      -0.50
      8.80       0.75      -0.80
      8.36       0.39       0.01
      8.50      -0.64      -0.15
      8.07      -0.25       0.04
      7.90      -0.33      -0.33
      7.28      -0.20       0.24
      7.51      -0.27       0.14
      8.32      -0.57      -0.19
      8.34       0.46      -0.14
      8.82       0.63      -0.14
      9.61       1.59      -0.34
      9.57       0.93       0.20
     10.92       1.00      -0.75
      9.63       0.60       0.03
      8.22       0.12      -0.47
      8.39       0.32       0.06
      7.52       1.52      -0.01
      9.19       0.46       0.67
      9.33      -0.00       0.44
      8.19       0.61       0.55
      8.09       0.88       0.13
      7.22      -0.10       0.12
      7.91       0.24       0.32
      7.96      -0.04      -0.49
      7.86       0.47      -0.49
      9.69       0.37      -0.43
      9.53       0.28      -0.37
      9.27      -0.81       0.01
      8.72      -0.53      -0.26
      9.48      -1.13      -0.09
      9.46      -0.45      -0.47
      9.70      -0.13       0.04
      8.82       0.10      -0.10
      8.80      -0.67       0.12
      7.86       0.16      -0.40
      9.32       1.16      -0.24
      9.67       0.74       0.05
      9.91       0.59      -0.57
      9.13       0.27      -0.03
      8.81      -0.24      -0.96
      8.60      -0.27       0.55
      8.61      -0.07       0.01
      7.68      -0.34       0.54
      6.37       0.28       1.12
      8.28       0.40       0.50
      8.76       0.31       0.56
      7.31      -0.82       0.63
      8.54      -1.20       1.03
      7.76      -0.76      -0.56
      7.26      -0.41      -0.04
      8.10      -0.61      -0.41
      7.84      -0.00       0.24
      8.25      -0.12       0.56
      7.85      -1.16       0.29
      7.37      -0.13      -0.03
      7.11      -0.76      -0.18
      7.36      -1.48      -0.82
      8.19      -1.51      -0.13
      8.59      -2.16       0.53
      8.51      -0.39       0.07
      8.71      -0.64      -0.19
      8.52      -0.53       0.45
      8.33      -0.54      -0.41
      9.38      -0.09       0.46
      8.11      -0.17       0.40
      7.41      -1.04       0.81
      7.89      -1.10       0.57
      6.05      -0.72       0.32
      7.65      -0.59      -0.69
      8.16      -1.53       0.11
      7.25      -0.10       0.14
      8.09      -0.82       0.36
      7.85      -0.71       0.25
      7.30       0.03       0.16
      8.32      -0.06       0.13
      7.39      -0.86       0.48
      6.82      -0.46       0.04
      7.64      -0.59       0.07
      6.68      -0.47       0.08
      6.26       0.25       0.71
      6.45       0.94       0.16
      7.55       0.24       0.22
      8.04      -0.06       0.48
      8.65      -0.30       0.29
      8.17      -0.74       0.04
      9.17       0.24      -0.30
      8.77       0.20       0.28
      7.98       0.13       0.43
      8.29       0.24       0.71
      7.99       0.52      -0.23
      7.16       0.61      -0.05