# vtk DataFile Version 3.0
Low resolution, disturbed wind of YZ Slice at time = 6 seconds.
ASCII
DATASET STRUCTURED_POINTS
DIMENSIONS     1   101    35
ORIGIN    2008.00    -500.00       5.00
SPACING       9.71      10.00      10.00
POINT_DATA            3535
VECTORS DisYZ float
      5.12       1.47       0.27
      4.96       0.69       0.57
      4.12       0.25       0.58
      4.33       0.88       0.49
      3.53       0.74       0.17
      3.46       0.60       0.66
      3.98       0.44       0.78
      4.03       1.14       0.36
      3.54       0.74       0.46
      3.50       0.54      -0.01
      4.29       0.38       0.04
      4.08       0.74      -0.06
      4.37       0.71      -0.14
      5.19       0.64      -0.17
      6.51       0.56      -0.00
      6.27       1.62       0.07
      5.70       1.04      -0.57
      5.53       0.57      -0.08
      4.20       0.14       0.12
      4.58       0.59      -0.58
      5.12      -0.83      -0.36
      4.42      -0.30       0.23
      5.48      -0.58       0.25
      5.04      -1.18       0.29
      4.69      -0.83       0.25
      5.34       0.04       0.48
      5.04       0.17       0.17
      5.02      -0.01       0.98
      4.94       0.68      -0.16
      5.19       0.82       0.03
      4.99       0.46       0.06
      5.88       0.68      -0.07
      4.82       0.50      -0.26
      3.94       0.49       0.10
      4.24       0.33      -0.67
      3.93       0.14       0.72
      4.45      -0.17       0.70
      4.83      -0.02       0.67
      4.25      -0.21       1.13
      3.67      -0.42       0.45
      4.69      -1.07       0.29
      4.47      -1.66      -0.37
      4.13      -0.66      -0.55
      5.75      -0.62       0.20
      5.71      -1.14       0.03
      5.36      -1.51       0.22
      6.91      -0.34       0.35
      5.53      -1.04       0.31
      4.45      -0.60      -0.60
      5.08      -0.67       0.31
      5.26      -1.22      -0.41
      5.78      -0.96      -0.54
      5.53      -0.49      -0.07
      5.76      -0.78      -0.31
      5.30      -0.95      -0.80
      5.24      -0.65       0.09
      3.82      -0.13      -0.22
      3.62      -0.53       0.09
      4.13      -1.20      -0.65
      3.18      -1.18      -0.54
      4.22      -0.83      -0.56
      4.44      -1.41      -0.35
      4.04      -0.86      -0.30
      5.19      -0.32      -0.26
      5.43      -0.81       0.27
      4.78      -0.07      -0.14
      4.89      -0.18      -1.34
      4.14      -0.51       0.12
      5.36      -0.61      -0.45
      4.16      -0.71      -0.04
      4.73      -0.82      -0.01
      3.83      -0.26      -0.74
      4.80      -1.40       0.16
      3.57      -1.25      -0.58
      3.50      -1.59      -0.25
      3.95      -0.85       0.40
      4.42       0.16       0.23
      4.72       0.01       0.33
      4.31      -0.50       0.03
      4.82       0.28       0.45
      4.17      -0.21       0.07
      4.65       0.32       0.46
      3.99       0.61       0.23
      3.98       0.06       0.60
      5.05      -0.38       0.44
      4.23       0.20       0.39
      3.35       0.67       0.44
      3.45       1.12      -0.12
      3.87      -0.41       0.12
      4.53      -1.12       0.05
      3.88      -0.30       0.39
      3.81      -0.50       0.34
      3.98      -0.56       0.42
      2.97      -0.39       0.32
      4.21       0.53       1.19
      3.76       0.27       0.58
      3.49       0.12       0.64
      4.99      -0.09       0.53
      4.22       0.74       0.62
      3.09       0.93       0.01
      3.12       0.13       0.24
      6.37       0.80      -0.32
      5.77       1.37      -0.04
      5.87       1.00       0.36
      5.91       1.79       0.83
      5.45       1.07       1.15
      5.36       0.89       1.02
      5.67       0.73       0.49
      4.66       1.16       0.73
      4.41       0.69       0.55
      5.06       1.35       0.13
      5.53       1.19       0.25
      5.04       1.24       0.37
      5.27       1.31       0.02
      6.81       0.48       0.10
      6.36       1.10      -0.57
      7.32       1.12      -0.31
      7.51       0.29       0.42
      6.33       0.36       0.78
      6.24       0.29       0.51
      5.84       0.27      -0.10
      5.65      -0.01      -0.19
      6.51       0.00       0.31
      5.57      -0.60       0.33
      5.58      -0.24       0.52
      5.86      -0.40       0.38
      5.92       0.53       0.81
      6.60       0.79       0.17
      6.84      -0.42      -0.03
      6.66       0.59      -0.14
      4.91       0.43       0.05
      5.96      -0.26      -0.08
      6.20       1.44       0.17
      6.84       0.16       0.49
      5.69      -0.20       0.29
      4.91       0.19      -0.39
      5.53       0.40       0.25
      5.83      -0.22       0.07
      5.81      -0.34       0.50
      4.94      -0.23       0.56
      5.36       0.14       0.72
      5.24      -0.37       0.15
      6.65      -1.08       0.06
      6.85      -1.58       0.39
      6.70      -0.66      -0.08
      6.10      -0.56       0.06
      6.54      -0.96       0.22
      7.36      -0.41       0.69
      6.84      -1.76       0.36
      6.61      -1.11       0.57
      6.38      -1.02      -0.90
      7.12      -0.96      -0.33
      6.22      -0.37      -0.24
      6.39      -0.34      -0.12
      7.56      -0.59      -0.38
      6.12      -0.36      -0.01
      5.11      -0.93      -0.03
      4.81      -0.59      -0.46
      5.81      -1.15      -0.55
      5.59      -1.68      -0.41
      5.45      -1.04      -0.00
      6.13      -1.70      -0.80
      4.94      -0.42      -0.82
      5.34      -0.36      -0.43
      5.47       0.41       0.13
      5.93      -0.39       0.25
      6.38      -0.49       0.08
      5.53      -0.95       0.26
      5.27      -0.60       0.10
      6.07      -0.33      -0.61
      4.93      -0.76      -0.57
      5.83      -0.82      -0.66
      4.60      -0.28      -0.71
      5.33      -1.26       0.16
      5.46      -0.94      -0.02
      4.06      -0.95      -0.52
      4.81      -0.74       0.07
      4.72      -0.00       0.08
      5.09       0.03      -0.08
      5.35       0.04      -0.05
      4.79      -0.25       0.43
      4.54      -0.35       0.66
      5.53      -0.26       0.57
      4.83       0.44       0.65
      5.71       0.02       0.43
      5.02       0.14       0.15
      5.39      -0.07      -0.29
      4.10       0.60      -0.48
      3.98      -0.14       0.13
      4.12      -0.20      -0.43
      4.28      -1.19       0.05
      4.55      -1.36      -0.44
      3.45      -1.23      -0.19
      4.41      -1.19       0.31
      4.85      -0.96       0.56
      4.81       0.02       0.59
      4.66       0.53       0.59
      4.82       0.47       0.29
      5.59      -0.55       0.45
      4.79       0.11       0.10
      5.40       0.92       0.16
      4.95       1.29       0.21
      6.77       0.72      -0.27
      6.21       2.03      -0.40
      5.86       2.28      -0.07
      6.32       2.08       0.58
      5.60       1.26       1.12
      6.08       0.22       0.39
      5.91      -0.14       0.19
      4.77       1.15       0.36
      5.70       0.89       0.07
      6.02       1.58      -0.03
      6.85       1.90       0.02
      6.21       1.42      -0.14
      6.19       0.90      -0.40
      6.47       1.40       0.56
      6.80       0.83       0.99
      6.49       0.47      -0.70
      7.86      -0.05      -0.05
      7.05      -0.74      -0.02
      7.30       0.07       0.08
      7.60       0.11       0.46
      7.19      -0.93      -0.24
      6.70       0.12       0.33
      6.36      -0.14       1.00
      5.47       0.06      -0.16
      5.86      -0.21      -0.30
      5.53      -0.16       0.95
      6.44      -0.16       0.22
      6.89       0.66       0.14
      6.13       0.08      -0.05
      7.26      -0.10      -0.19
      6.75       0.11       0.38
      6.76       0.40       0.52
      6.90       0.53       0.53
      7.62       0.06       0.64
      6.68       0.19       0.60
      6.68      -0.24       0.12
      5.85       0.43      -0.09
      7.07      -0.52       0.39
      6.31      -0.01      -0.67
      5.48      -0.36       0.19
      7.09      -0.21      -0.29
      6.12      -1.06      -0.73
      6.70      -0.80      -0.19
      6.83      -1.57       0.44
      6.68      -1.30       0.20
      7.39      -0.77       0.53
      7.40      -1.05       0.51
      6.82      -1.09       0.20
      7.45      -1.41       0.44
      7.44      -1.21      -0.12
      6.12      -1.49       0.03
      6.40      -0.98      -0.55
      7.27      -0.50      -0.27
      7.32      -0.82      -0.61
      6.67      -0.42      -0.07
      5.97      -0.57      -0.53
      6.09      -0.38      -0.52
      6.42      -0.75      -0.74
      6.71      -0.57      -0.31
      6.72      -1.49      -0.59
      6.01      -0.37      -0.47
      5.68      -0.73      -0.49
      5.55      -0.56      -0.12
      6.21       0.48      -0.06
      6.27       0.40       0.55
      6.48      -0.53       0.38
      5.41      -0.30       0.21
      6.63      -1.06      -0.59
      5.91      -0.33      -0.49
      5.62      -0.16      -1.06
      6.14       0.22      -0.75
      5.02      -0.26      -0.87
      6.13      -1.14      -0.24
      5.08      -1.16      -0.44
      5.47      -1.31      -0.64
      5.38      -0.23      -0.28
      6.80      -0.27      -0.04
      5.59      -0.20      -0.91
      6.83      -0.45      -0.37
      5.84      -0.62      -0.33
      6.52      -0.11       0.13
      6.74      -0.40       0.48
      5.54       0.03       0.32
      5.87       0.12       0.67
      7.05       0.20       0.50
      6.24       1.03      -0.45
      4.62       0.74      -0.24
      3.64      -0.10      -0.30
      3.72      -0.33      -0.05
      4.43      -0.64      -0.01
      5.23       0.15       0.31
      5.00      -0.21      -0.14
      4.52       0.04       0.77
      3.76       0.33       0.02
      4.82       0.00       0.46
      5.01       1.28       0.86
      4.58       0.15       0.55
      4.99       0.52       0.10
      5.03       0.51       0.77
      5.24      -0.86       0.01
      5.67       0.57       0.84
      5.73       0.65      -0.33
      6.62       1.13       0.39
      7.36       0.41       0.38
      7.75      -0.20       0.44
      5.82       1.06       1.37
      6.90       0.53       0.10
      6.45      -0.07       0.12
      6.45       0.89       0.41
      5.98       0.38      -0.20
      6.42       0.87      -0.26
      6.00       2.44      -0.63
      7.08       1.13      -0.48
      7.18       0.43      -0.04
      6.50       0.24       0.51
      6.40       0.35       0.02
      6.47       1.12       0.12
      7.52      -0.85      -0.48
      7.19       0.38      -0.02
      7.84       0.81      -0.43
      6.98       0.81      -0.02
      7.72       0.14      -0.43
      7.33      -0.62      -0.15
      5.67      -0.27       0.41
      6.50      -0.53       0.14
      7.13       0.72      -0.01
      6.42       0.08       0.34
      7.53      -0.20      -0.46
      7.59       0.17       0.05
      7.73       0.39       0.07
      7.91       0.44      -0.06
      7.23       0.82      -0.24
      6.87       0.93       0.02
      7.74       0.74      -0.00
      7.01      -0.42       0.83
      7.54       0.31       0.07
      6.72      -0.25      -0.37
      6.29       0.63       0.05
      6.31       0.49      -0.71
      7.19       1.20       0.89
      7.53       0.70       0.09
      6.40      -0.62      -0.30
      6.52      -0.53       0.17
      7.15      -1.04       0.33
      7.38      -1.53       0.06
      7.25      -1.25       0.64
      7.12      -1.32       0.61
      7.91      -1.18       0.04
      6.68      -0.93       0.34
      7.53      -1.13       0.43
      7.11      -0.85      -0.18
      6.55      -1.73       0.39
      6.81      -1.18      -0.59
      8.39      -0.67      -0.16
      7.08      -0.35       0.34
      6.78      -0.45       0.12
      6.64      -0.62      -0.13
      7.30      -0.12      -0.51
      6.81      -0.42      -0.12
      6.43      -1.10      -0.67
      6.46      -0.28       0.06
      5.87      -0.40      -0.20
      6.73      -0.81      -0.22
      6.44      -0.43       0.08
      6.20      -0.05      -0.57
      5.69      -0.44       0.25
      6.73      -1.01       0.57
      6.73      -0.42      -0.20
      6.07      -0.44      -0.71
      6.55      -1.44      -0.30
      6.59       0.04      -1.02
      6.74      -0.12      -0.93
      5.20      -0.52      -0.37
      6.96      -1.15      -0.33
      7.67      -2.00      -0.21
      6.87      -1.66      -0.91
      6.94      -0.07       0.45
      6.86      -0.07      -0.25
      6.29      -0.25      -0.23
      6.24      -0.33      -0.28
      5.69      -0.66       0.59
      5.50      -0.48       0.17
      7.24      -0.80      -0.04
      6.76       0.55       0.59
      6.20       0.40       0.23
      6.31      -0.32       0.15
      6.71       1.04      -0.34
      5.40       0.71      -1.05
      4.81       0.13       0.12
      5.66      -0.68      -0.09
      5.71      -0.28       0.01
      5.66      -0.53       0.20
      5.10      -0.91      -0.31
      5.11       0.25      -0.01
      4.14      -0.07       0.39
      4.97      -0.18       0.61
      5.91       0.80       0.61
      5.44       0.62       0.35
      6.03       0.58       0.56
      5.81      -0.06       0.44
      4.58      -0.32       0.28
      6.16       0.45       0.22
      7.33       0.50      -0.97
      7.20       0.23      -0.11
      7.94       1.55       0.58
      7.61       1.14       0.69
      6.08       1.22       0.25
      6.10       0.52       0.72
      6.80       0.63      -0.36
      7.31       0.82      -0.39
      6.20       1.21       0.43
      6.89       1.30      -0.26
      8.15       1.30      -0.38
      8.41       0.85      -0.23
      8.17       0.85       0.02
      7.32       0.60       0.81
      6.90       1.52       0.40
      6.45       0.34      -0.12
      6.67      -0.16      -0.18
      7.41       0.06      -0.45
      7.32       1.73      -0.12
      6.88       1.33      -0.28
      7.52       0.06      -0.17
      8.11      -0.17      -0.25
      6.74       0.17       0.34
      7.64       0.26       0.40
      8.46      -0.13      -0.15
      8.09       0.14       0.39
      8.30       0.34      -0.14
      8.61       0.01      -0.26
      8.98       0.14       0.05
      8.46       1.05       0.64
      7.92       0.97       0.48
      8.45       1.13       0.43
      8.54       0.84       0.39
      8.10       1.11      -0.02
      6.50       0.29       0.38
      5.93       0.28      -0.02
      6.62       0.93      -0.78
      6.83       0.58      -0.60
      7.07       0.32      -0.43
      6.95       0.53       0.81
      6.99       0.19      -0.55
      7.45      -1.12      -0.91
      7.23      -0.92       0.05
      7.49      -1.60       0.40
      8.18      -1.71       0.45
      7.78      -1.26       0.55
      7.71      -1.47       0.42
      8.15      -0.79       1.08
      7.56      -0.63       0.31
      6.88      -0.11       0.16
      7.42       0.18       0.73
      7.40      -0.70      -0.14
      7.46      -0.43       0.19
      6.54      -0.65      -0.56
      7.41      -0.16      -0.61
      6.92      -1.63      -0.45
      7.07      -0.51      -0.57
      6.35      -0.74      -0.45
      6.32      -1.37      -0.59
      5.96      -0.64      -0.61
      5.64       0.06      -0.07
      5.99      -0.53      -0.07
      6.07      -0.50       0.94
      6.35      -1.05       0.42
      5.97      -1.12       0.93
      6.68      -1.06       0.37
      5.77      -0.59       0.02
      6.32      -0.91      -0.13
      6.34      -0.49       0.00
      6.06      -0.46      -0.79
      6.17      -0.74      -0.36
      5.33      -1.21      -0.18
      6.45       0.06      -0.29
      6.59      -1.33      -0.22
      7.32      -1.25      -0.50
      6.92      -0.83      -0.03
      6.92      -0.40       0.29
      6.66      -0.69      -0.14
      6.15      -0.40      -0.37
      6.81      -0.49      -0.23
      6.13      -0.35      -0.33
      6.15      -0.49       0.22
      6.99      -0.23       0.63
      6.34      -0.17      -0.11
      6.76       0.49      -0.73
      6.65       0.74      -0.20
      6.12      -0.17       0.33
      5.61      -0.12      -0.06
      5.55      -0.27      -0.05
      6.64      -0.07       0.13
      5.97      -0.33       0.32
      6.12      -0.67      -0.10
      6.15       0.09      -0.39
      5.53       1.01      -0.07
      5.61       0.16       0.20
      6.83       0.76      -0.12
      6.65       1.05       0.11
      6.06       0.04      -0.12
      6.35       0.50       0.28
      6.68       1.14      -0.01
      5.68      -0.18      -0.24
      7.32       1.11      -0.22
      8.41       0.75      -0.30
      8.28       1.37       0.07
      6.99       1.32       0.49
      6.51       1.68      -0.19
      6.15       0.79      -0.49
      6.85       0.90      -0.28
      7.33       0.73      -0.18
      7.64       0.67      -0.37
      8.06       0.61       0.18
      8.18       1.06       0.10
      8.89       0.82      -0.08
      8.19       0.26       0.41
      9.10       1.56       0.60
      7.99       1.30       0.24
      6.64       1.20      -0.46
      8.11       0.54      -0.65
      7.81       0.57      -0.72
      7.68       0.68      -0.81
      8.07       0.89      -0.19
      7.93      -0.02       0.10
      6.50      -0.34      -0.19
      7.02       0.31      -0.22
      6.45      -0.07       0.18
      7.86      -0.30      -0.46
      8.28      -0.12       0.45
      8.61      -0.06       0.07
      8.09      -0.03       0.26
      8.27       0.59       0.21
      8.54       0.76       1.03
      8.95       1.28       0.39
      8.65       1.04      -0.01
      7.70       1.02      -0.64
      7.40       1.11      -0.15
      7.92       0.16      -0.51
      7.05       1.24      -0.18
      7.46       1.64      -0.73
      7.83       1.23      -0.62
      8.21       0.91      -0.54
      7.66      -0.35      -0.25
      7.56      -0.71      -0.71
      6.55      -0.59       0.25
      6.27      -1.09       0.11
      7.61      -0.60       0.27
      6.97       0.11       0.61
      7.99      -0.93      -0.04
      7.08      -1.13      -0.04
      8.17      -0.77       1.17
      8.14      -0.61       0.73
      7.97      -0.44       0.32
      6.64       0.38       0.27
      7.86       0.64       0.21
      8.63      -0.79      -0.03
      6.85      -0.52      -0.31
      6.24      -0.69      -0.28
      5.84      -0.86      -0.08
      5.98      -0.86      -0.29
      5.36      -1.01      -1.10
      6.26      -1.12      -0.26
      5.13      -0.58      -0.58
      6.43      -0.16      -0.44
      7.09      -0.41      -0.30
      6.65      -0.17       0.22
      7.09      -0.72      -0.03
      6.68      -0.98       0.22
      6.86      -1.31       0.25
      7.05      -1.35       0.18
      7.17      -1.10       0.22
      6.62       0.19      -0.11
      5.82      -1.01      -0.32
      6.28      -0.42      -0.29
      7.74      -1.43      -0.58
      6.96      -1.33      -0.70
      7.02      -1.62       0.37
      8.13      -1.09       0.07
      6.72      -0.55       0.28
      6.39      -0.85      -0.20
      5.40      -0.27      -0.35
      6.31      -0.26       0.34
      6.43      -0.81       0.43
      6.08      -1.08       0.47
      6.51       0.05      -0.01
      7.24      -0.21       0.53
      8.18      -0.41       0.11
      7.50      -0.31      -0.55
      6.78      -1.08       0.45
      6.27      -0.81      -0.24
      6.32      -0.36       0.06
      7.25      -0.28       0.03
      6.13      -0.04      -0.46
      6.38      -0.77       0.25
      6.62      -0.31       0.18
      6.01      -0.26      -0.22
      5.48       0.62       0.32
      6.48       0.83       0.03
      6.03       1.35       0.50
      6.06       0.93       0.22
      5.66       1.28      -0.07
      6.31       0.33      -0.05
      6.61       0.65      -0.02
      6.03      -0.25       0.22
      7.62       1.29       0.06
      8.37       1.41      -0.37
      8.18       1.66      -0.73
      8.09       1.50      -0.91
      7.67       0.98       0.17
      6.92       0.14      -0.33
      6.78       0.63      -0.16
      7.69       1.21      -0.02
      8.15      -0.06      -0.07
      8.80       0.87      -0.14
      9.03       1.32       0.06
      8.69       1.45      -0.47
      7.83       1.33       0.02
      8.36       1.41       0.01
      8.98       0.53       0.23
      8.03       0.85      -0.31
      8.33       0.98      -0.77
      7.52       0.56       0.02
      8.52       0.53       0.23
      8.83       1.03      -0.27
      7.18       1.15       0.09
      7.08       0.46      -0.16
      6.70       0.85      -0.02
      6.27      -0.06      -0.04
      7.80      -0.41       0.13
      7.31      -0.38       0.04
      7.79      -0.59       0.27
      7.80       0.43       0.74
      8.78      -0.05       0.56
      9.35       0.46       0.28
      8.61       0.33       0.29
      7.95       0.59       0.24
      7.28       0.24      -0.23
      7.44       0.89       0.39
      8.66       0.87      -0.09
      8.27       1.26      -0.67
      7.33       0.98      -0.78
      8.13       1.12      -0.70
      8.22       1.31       0.62
      8.35       0.63      -0.05
      7.58      -0.27      -0.53
      7.88      -0.25       0.02
      7.03      -1.06       0.96
      7.68      -0.09       0.92
      7.15      -0.26       0.48
      7.36       0.49       0.11
      6.54      -0.26      -0.09
      6.76      -1.24       0.84
      7.05      -0.08       0.19
      7.32      -0.21       0.93
      6.44      -0.02       0.53
      7.12      -0.44       0.39
      8.05      -0.34       0.38
      6.73      -0.25      -0.03
      6.80      -0.22      -0.17
      6.71      -0.74       0.31
      5.63      -1.24      -0.09
      5.68      -0.56      -0.59
      5.74      -0.71      -0.39
      5.92      -0.43      -0.48
      5.85      -0.03      -0.00
      7.57       0.34      -0.45
      6.85       0.76      -0.47
      6.81      -0.08       0.17
      6.44      -1.07      -0.50
      6.80      -0.62       0.18
      6.95      -0.72      -0.23
      7.00      -0.72       0.29
      6.60      -0.19      -0.49
      6.34      -0.69      -0.03
      6.42      -0.76      -0.26
      6.68      -0.42      -0.61
      7.73      -0.65      -0.15
      8.30      -1.04       0.06
      8.27      -1.00      -0.26
      6.47      -0.74       0.20
      6.97      -0.75      -0.02
      7.06      -0.25      -0.27
      6.60      -0.89       0.64
      6.32      -0.69       0.86
      7.00      -0.89       0.43
      6.51      -0.24       0.62
      5.97      -0.42       0.29
      7.12       0.01      -0.16
      7.50      -0.35      -0.14
      6.47       0.25       0.14
      6.48      -0.52      -0.19
      6.83      -0.33      -0.09
      7.87      -0.55      -0.30
      7.30      -0.11       0.11
      6.90       0.38       0.07
      6.26       0.52      -0.21
      6.18       1.03       0.50
      6.45       1.07       0.06
      5.89       1.50       0.33
      6.74       1.91      -0.05
      6.65       1.45       0.21
      5.86       1.37      -0.04
      5.97       0.31      -0.21
      7.41       0.69       0.29
      7.39      -0.03      -0.07
      8.18       1.59       0.09
      8.95       1.34      -0.15
      9.34       0.90       0.60
      8.60       0.26       0.31
      7.54      -0.10       0.08
      7.56      -0.18       0.34
      8.17      -0.32       0.38
      7.90       0.44       0.37
      8.16       0.09      -0.40
      8.40       0.15      -0.16
      9.15       1.27      -0.08
      9.05       1.47      -0.19
      8.21       1.29      -0.29
      8.37       1.01      -0.26
      8.71       0.60      -0.41
      7.80      -0.40       0.27
      7.95       1.00      -0.14
      8.30      -0.07       0.27
      7.86       0.77       0.16
      8.68       0.85       0.06
      8.94       0.18       0.11
      8.28       0.79       0.56
      7.31       0.68       0.39
      7.36      -0.28      -0.37
      7.27      -0.07       0.48
      7.53       0.07      -0.39
      9.35      -0.22      -0.54
      8.57      -0.18       0.41
      9.77      -0.23       0.51
      9.58      -0.49      -0.05
      9.54       0.26      -0.38
      9.08       0.10       0.15
      8.14       0.37      -0.17
      8.19       0.59       0.27
      9.16       1.07      -0.05
      8.37       1.88      -0.02
      9.07       0.75      -0.08
      8.62       0.49       0.05
      9.11       0.81      -0.25
      9.05       0.93       0.28
      8.52       0.18       0.43
      6.82      -0.09       0.69
      7.72       0.16       0.55
      7.67      -0.49       0.61
      8.11      -0.73       0.58
      6.92      -0.85       0.52
      6.46      -0.04       0.30
      6.94      -0.70       0.41
      7.11      -0.88       0.12
      7.71      -0.94      -0.01
      7.83      -0.39       0.32
      7.46      -0.08       0.80
      7.13      -1.17       0.38
      6.85      -0.79      -0.21
      7.38       0.33       0.32
      7.13      -1.10       0.25
      6.93      -0.62       0.12
      6.62      -1.41      -0.24
      5.96      -0.65       0.50
      6.26      -1.45       0.57
      6.68      -0.40       0.13
      7.23      -0.28       0.37
      7.87       0.40      -0.03
      7.34      -0.18      -0.37
      6.91      -0.94       0.32
      7.11      -0.77       0.27
      7.09      -0.63       0.32
      7.04      -0.20       0.59
      6.27      -0.68      -0.52
      6.78      -0.56      -0.40
      6.74      -0.15      -0.68
      7.38      -0.71      -0.35
      7.66      -0.42      -0.80
      8.44      -0.72      -1.04
      8.66      -0.97      -0.08
      6.85      -1.36       0.22
      6.96      -1.01       0.97
      6.65      -1.32       0.22
      6.21      -0.79       0.53
      6.23      -0.10       0.72
      6.31      -0.25       0.97
      6.22       0.32       0.83
      6.89       0.25       0.59
      6.64       0.55      -0.20
      6.82       0.13       0.79
      7.58      -0.29       0.29
      6.76       0.18       0.14
      7.16       0.71      -0.07
      7.25      -0.13       0.35
      9.12      -0.11       0.12
      6.97      -0.18       0.05
      6.81      -0.10       0.63
      6.23       0.89      -0.35
      5.86       1.51       0.06
      6.63       1.36       0.07
      6.22       1.06       0.09
      6.52       0.98       0.12
      6.20       0.67       0.10
      5.73       0.89       0.63
      7.51       0.48       0.28
      6.99       0.76      -0.09
      9.01       0.22      -0.24
      9.12       1.30      -0.31
      9.12       0.54       0.13
      8.71       0.13       0.18
      8.88      -0.39       0.61
      7.74       0.08       0.26
      7.22       0.02      -0.31
      7.86       0.49      -0.29
      8.16       0.87       0.18
      7.96       0.38       0.31
      7.85       0.87       0.45
      8.87       0.90      -0.49
      8.79       0.96      -0.34
      8.30       0.85      -0.27
      7.94      -0.31      -0.05
      7.36      -0.32      -0.11
      7.48      -1.03       0.42
      7.60      -0.20      -0.08
      8.15      -0.48      -0.08
      9.18       0.56      -0.22
      8.34       0.96      -0.47
      8.48       0.79       0.22
      7.85       1.20       0.21
      7.22       0.87      -0.78
      7.79      -0.02       0.26
      9.12       0.74      -0.82
      8.87       0.12      -0.81
      9.89       0.17      -0.03
      9.28      -0.73       0.50
      9.15      -0.58       0.06
      9.77      -0.12      -0.02
      9.35      -0.30      -0.56
      8.52      -0.12      -0.06
      8.29       0.56      -0.53
      8.80      -0.25       0.07
      8.10       0.15      -0.53
     10.25       0.26      -0.70
      9.47       0.42      -0.24
      9.27      -0.16       0.50
      8.39      -0.55      -0.55
      8.64      -0.30      -0.02
      9.10      -0.04       0.47
      8.52       0.54       0.52
      7.01      -0.46       0.13
      7.18      -0.84       0.71
      7.65       0.12       0.85
      7.11      -0.13       0.17
      7.28      -0.46       0.22
      7.20      -0.87       0.36
      7.72      -1.14       0.30
      6.95      -1.06       0.06
      8.23      -0.51       0.54
      7.49      -0.92      -0.17
      7.25      -1.11       0.00
      7.46      -0.27      -0.31
      7.68      -0.43       0.11
      7.60      -0.69       0.09
      7.30      -2.33       0.73
      7.22      -2.19       0.04
      7.34      -1.52       0.03
      7.96      -1.14      -0.44
      8.42      -0.42       0.11
      7.92      -0.47       0.25
      6.50      -0.58       0.34
      7.38      -0.73       0.57
      7.73       0.25       0.23
      6.82      -0.58       0.45
      6.25      -0.14      -0.30
      5.71      -1.03       0.21
      7.97      -0.95       0.03
      8.00      -1.59      -0.27
      6.83      -1.16      -0.03
      7.27      -0.20      -0.03
      8.68      -0.42      -0.39
      7.42       0.19      -0.26
      7.81      -0.32       0.82
      7.65      -1.19       0.17
      7.82      -0.59       0.17
      6.76      -1.30       0.25
      6.66      -0.12       0.27
      6.21      -0.66       0.90
      6.55      -0.38       0.57
      6.74       0.84       0.16
      7.61       0.55       0.15
      7.31      -0.46       0.98
      7.77      -0.46       0.63
      8.02       0.50       0.51
      8.75       0.51      -0.19
      8.65      -0.01      -0.35
      8.91      -0.55       0.33
      7.57       0.26       0.31
      5.90       0.89      -0.07