
FAST Summary File

Predictions were generated on 10-Jun-2020 at 11:05:59 using OpenFAST, compiled as a 64-bit application using single precision at commit -128-NOTFOUND
  compiled with
    NWTC Subroutine Library
    ElastoDyn
    BeamDyn [not called]
    InflowWind
    AeroDyn14 [not called]
    AeroDyn
    ServoDyn
    HydroDyn [not called]
    SubDyn [not called]
    ExtPtfm_MCKF [not called]
    MAP [not called]
    FEAMooring [not called]
    MoorDyn [not called]
    OrcaFlexInterface [not called]
    IceFloe [not called]
    IceDyn [not called]


Modeling a land-based turbine
Description from the FAST input file: 
  FAST Certification Test #26: NREL 5.0 MW Baseline Wind Turbine (Onshore)

Interpolation order for input/output time histories: 2 (quadratic)
Number of correction iterations:  0


   Requested Time Steps  
  -------------------------------------------------
  Component          Time Step (s)    Subcycles (-)
  -----------------  ---------------  -------------
  FAST (glue code)    6.250E-03
  InflowWind          6.250E-03              1
  ElastoDyn           6.250E-03              1
  AeroDyn             6.250E-03              1
  ServoDyn            6.250E-03              1
  FAST output files   6.250E-03              1


   Requested Channels in FAST Output File(s)  
  --------------------------------------------
  Number  Name        Units       Generated by
  ------  ----------  ----------  ------------
       1  Time        (s)         OpenFAST
       2  Wind1VelX   (m/s)       InflowWind
       3  Wind1VelY   (m/s)       InflowWind
       4  Wind1VelZ   (m/s)       InflowWind
       5  OoPDefl1    (m)         ElastoDyn
       6  IPDefl1     (m)         ElastoDyn
       7  RotSpeed    (rpm)       ElastoDyn
       8  GenSpeed    (rpm)       ElastoDyn
       9  TTDspFA     (m)         ElastoDyn
      10  TTDspSS     (m)         ElastoDyn
      11  TTDspPtch   (deg)       ElastoDyn
      12  RootMIP1    (kN-m)      ElastoDyn
      13  RootMOoP1   (kN-m)      ElastoDyn
      14  RootMzb1    (kN-m)      ElastoDyn
      15  RotTorq     (kN-m)      ElastoDyn
      16  LSSGagMya   (kN-m)      ElastoDyn
      17  LSSGagMza   (kN-m)      ElastoDyn
      18  YawBrMxp    (kN-m)      ElastoDyn
      19  YawBrMyp    (kN-m)      ElastoDyn
      20  YawBrMzp    (kN-m)      ElastoDyn
      21  TwrBsMxt    (kN-m)      ElastoDyn
      22  TwrBsMyt    (kN-m)      ElastoDyn
      23  TwrBsMzt    (kN-m)      ElastoDyn
      24  YawBrFxn    (kN)        ElastoDyn
      25  RtAeroFxh   (N)         AeroDyn
      26  GenPwr      (kW)        ServoDyn
      27  GenTq       (kN-m)      ServoDyn
