# vtk DataFile Version 3.0
Low resolution, disturbed wind of YZ Slice at time = 6 seconds.
ASCII
DATASET STRUCTURED_POINTS
DIMENSIONS     1   101    35
ORIGIN    1252.00    -500.00       5.00
SPACING       9.71      10.00      10.00
POINT_DATA            3535
VECTORS DisYZ float
      4.99      -0.42       0.65
      5.63      -0.07       0.39
      5.27      -0.47       0.39
      5.55      -0.21      -0.02
      3.99      -0.09       0.49
      4.03       0.04      -0.24
      3.91      -0.20       0.23
      4.10       0.58       0.23
      3.75       0.72       0.12
      3.49       0.61       0.76
      4.96       0.70      -0.05
      4.68      -0.22       0.50
      4.15      -0.00       0.19
      4.01      -0.58       0.13
      3.58       0.46       0.04
      2.93       0.44      -0.62
      3.89      -0.16       0.22
      4.10      -0.69      -0.83
      3.69       0.10      -0.48
      4.05      -0.23      -0.50
      3.81       0.13      -0.00
      3.21       0.91      -0.25
      3.74       0.91       0.04
      2.73       0.76      -0.26
      2.58       0.18       0.32
      2.24       0.19       0.65
      2.83       0.44       0.47
      3.60       0.06       0.06
      4.20       0.37       0.94
      3.51      -0.06       0.04
      3.04      -0.53      -0.10
      3.35      -0.55      -0.10
      3.19      -1.26      -0.48
      3.98      -1.72      -0.50
      3.89      -1.90      -0.84
      4.77      -1.72       0.34
      3.79      -1.19      -0.36
      4.55      -1.13      -0.39
      4.27      -2.04      -0.08
      4.14      -0.67      -0.94
      3.42      -0.89       0.42
      3.20      -0.52       0.06
      3.56       0.32      -0.23
      4.18       0.36      -0.47
      2.69       0.32       0.39
      3.34       0.34       0.28
      3.87       0.48      -0.45
      3.72       0.34      -0.12
      3.72       0.68       0.16
      4.23       0.59      -0.16
      5.59       0.70      -0.72
      5.25       0.64       0.30
      4.56       0.27       0.19
      3.53      -0.06       0.33
      4.21      -0.13       0.27
      3.98      -0.30       0.27
      4.04      -0.14       1.00
      4.93       0.93       0.12
      4.51       1.62       0.28
      5.19       0.71      -0.29
      5.49       0.88      -0.10
      5.89       1.10      -0.74
      6.64       0.74      -0.63
      5.21       0.93      -0.35
      5.39       0.54      -0.09
      4.91      -0.23       0.16
      5.88      -0.54      -0.25
      5.18      -0.56      -0.43
      4.09      -0.76      -0.12
      3.45      -0.59      -0.48
      3.79      -0.31      -0.35
      4.39      -0.40      -0.36
      5.02      -0.23      -0.78
      4.91      -0.64      -0.61
      5.06      -1.31       0.03
      5.58      -1.71       0.64
      5.23      -0.33      -0.25
      5.69      -0.17      -0.04
      5.06      -0.98      -0.17
      5.11      -0.41      -0.68
      5.97      -1.38      -0.44
      5.49      -0.78      -0.12
      5.70       0.33       0.86
      4.12      -0.54       0.78
      3.73      -0.57      -0.40
      4.77      -0.82      -0.19
      5.17       0.63      -0.34
      5.37       0.50      -0.38
      4.17      -0.56       0.03
      3.63      -0.09      -0.05
      3.50       0.14       0.16
      4.82      -0.16      -0.55
      5.27       0.50      -0.40
      4.93      -0.06       0.11
      5.21       0.30      -0.18
      4.39       0.52      -0.90
      5.02      -0.03      -0.60
      4.66       1.11       0.02
      4.74       0.76      -0.32
      5.53       0.30      -0.18
      6.00       0.76      -1.09
      6.04       0.33      -0.49
      6.52       0.16      -0.19
      6.66      -0.77       0.30
      5.91       0.47      -0.14
      6.53       0.09      -0.10
      5.21       0.86       0.39
      4.90       1.19       0.08
      5.66       1.05       0.51
      7.12       0.30       0.46
      6.78      -0.05       0.52
      6.63       0.54       0.44
      5.86       0.64      -0.02
      6.28      -0.71      -0.26
      5.18      -0.37       0.09
      4.24       0.20      -0.32
      5.32       0.25      -0.98
      5.60       0.24      -0.58
      4.99      -0.63      -0.48
      4.67       0.93      -0.40
      4.63       0.57      -0.15
      5.00       0.57      -0.78
      4.94       0.98       0.41
      4.39       0.72      -0.06
      4.18       1.39      -0.31
      4.21      -0.02      -0.53
      4.49       0.19       0.79
      4.37       1.15       0.37
      4.29       1.69       0.62
      4.42       0.91       0.42
      4.46      -0.09      -0.09
      3.55      -0.97      -0.22
      4.23      -1.23       0.04
      4.36      -1.05      -0.20
      3.70      -2.86      -0.46
      4.71      -1.98       0.11
      6.66      -1.65      -0.73
      6.02      -1.26      -0.08
      5.69      -1.61      -0.10
      5.16      -2.14      -0.42
      4.77      -1.60      -0.11
      4.43      -0.31      -0.24
      5.39      -0.75      -0.44
      4.82       0.86       0.20
      4.82      -0.67      -0.40
      4.44      -0.51       0.35
      4.21       0.61       0.80
      4.53      -0.77       0.57
      4.97       0.33      -0.06
      5.04       0.92       0.15
      5.64       0.50      -0.19
      5.60      -0.45      -0.08
      5.42      -0.37       0.20
      5.11      -0.30       0.01
      4.36      -0.52       0.42
      5.12      -0.83       0.69
      6.13      -0.35       0.20
      6.04       0.82       0.13
      5.89       1.23       0.28
      6.11       0.78      -0.14
      5.79       0.82       0.40
      7.36       0.61       0.03
      7.24       0.99      -1.05
      7.22       0.42      -0.52
      7.02       0.31      -0.66
      6.37       0.67      -0.04
      6.44       0.37      -0.02
      6.55      -0.33      -0.67
      6.42      -0.45      -0.29
      5.41      -0.08       0.52
      5.19       0.44       0.26
      6.48       0.14      -0.21
      5.95      -0.46       0.13
      6.26      -0.47       0.09
      6.62      -1.23       0.18
      5.63      -1.62       0.32
      5.62      -1.72      -0.73
      5.56      -0.62      -0.74
      6.56      -0.77      -0.13
      6.94      -0.31      -0.34
      5.65      -0.50       0.20
      5.29      -0.78      -0.77
      6.13       0.23      -0.76
      6.17       0.02       0.44
      6.53      -1.40      -0.65
      6.07      -1.10      -0.94
      6.14      -0.82      -0.67
      5.73      -0.25      -0.58
      5.42       0.48      -0.43
      7.33       0.60      -0.36
      4.64       1.23      -0.18
      4.19       0.68       0.14
      5.29       0.71       0.25
      5.93       1.35      -0.07
      5.70       0.22      -0.44
      5.53       0.17       0.35
      5.32       0.79       0.05
      6.66       0.47      -0.18
      6.76       0.65      -0.82
      7.29       0.67       0.43
      8.01       0.67      -0.46
      7.57       0.65       0.35
      6.72      -0.28       0.39
      7.29      -0.00      -0.26
      7.23      -0.39      -0.82
      6.37      -0.21       0.05
      5.87       0.22      -0.53
      6.39       0.36       0.32
      5.48       0.38       0.29
      6.51      -0.44       0.28
      6.13       0.06       0.12
      6.47      -0.86       0.26
      6.28      -0.25       0.74
      4.51       0.23       0.25
      5.88      -0.16       0.37
      5.79      -0.12       0.22
      5.91      -0.42      -0.65
      5.69      -0.89      -0.35
      5.39      -0.59      -0.25
      5.57      -0.64      -0.07
      4.36      -1.18      -0.31
      5.25       0.76       0.02
      5.22       1.28      -0.28
      4.83       0.47      -0.11
      4.64       0.10      -0.47
      3.84       0.96      -0.30
      5.10      -0.02      -0.61
      6.15       0.04      -0.30
      6.18       0.18      -0.98
      5.66       0.35      -0.37
      5.20       0.34       0.20
      4.16       0.08      -0.70
      4.84      -0.73       0.70
      3.88      -1.03       0.98
      4.24      -1.11      -0.54
      5.20      -1.37      -0.27
      5.65      -1.09      -0.06
      6.87      -1.77      -0.20
      6.63      -2.25      -0.02
      6.01      -1.67      -0.45
      5.03      -1.55       0.24
      5.98      -1.17       0.02
      5.26      -1.33       0.16
      6.48      -1.10      -0.39
      5.49      -0.98       0.57
      3.79      -0.57       0.01
      3.55       0.55       0.88
      4.27       0.25       0.14
      4.68      -0.63       0.41
      6.77      -0.43       0.38
      5.03       0.89      -0.78
      5.84       0.16      -0.59
      6.23      -0.03      -0.13
      4.96      -0.39       0.36
      5.26      -0.27       0.14
      4.64      -0.95       0.70
      6.11       0.15       0.23
      6.42      -0.58       0.83
      5.72       0.19       0.23
      6.41       0.73      -0.13
      6.43       1.15       0.06
      6.71       1.06       0.19
      8.44       0.70       0.49
      7.67       0.39       0.09
      7.73       1.08       0.22
      8.59       0.67      -0.40
      8.01      -0.13       0.32
      7.25       0.64      -0.24
      9.05       0.63      -0.29
      7.68       0.39       0.13
      6.98       1.09       0.50
      5.84       0.17       0.08
      5.81       0.03       0.20
      5.89       0.47       0.19
      5.86      -0.71      -0.04
      5.99      -0.72       0.11
      5.83      -1.17      -0.55
      6.73      -0.87       0.23
      7.81      -0.97      -0.46
      7.01      -1.19      -0.31
      6.57      -1.03      -0.29
      7.34      -0.62      -0.32
      7.11       0.13       0.15
      6.86       0.96      -1.09
      7.56      -0.56      -0.99
      8.01      -0.47      -0.67
      7.32      -0.16      -0.22
      7.91      -0.75      -0.79
      7.06      -0.27       0.22
      7.90      -0.27      -0.26
      6.74       0.53      -0.64
      6.66       0.77      -0.33
      5.47       0.38       0.00
      7.10       0.72       0.10
      6.57       0.26       0.74
      6.36       0.69       0.25
      6.77      -0.26       0.15
      5.89      -0.28       0.01
      6.52      -0.18       0.11
      6.96       1.43       0.21
      8.07       1.00      -0.03
      8.14       0.13      -0.10
      7.21       0.50       0.42
      7.59       0.62      -0.08
      7.31       0.30       0.39
      7.46       0.22      -0.03
      6.72       0.47       0.72
      6.80       0.66      -0.01
      6.45       0.12       0.00
      6.58      -1.04      -0.45
      5.65      -0.95       0.83
      5.29      -0.77       0.62
      6.30      -0.52       0.86
      6.17      -0.90       0.90
      5.33       0.02      -0.15
      5.76       0.13       0.01
      6.75      -1.18      -0.07
      6.97      -0.96      -0.07
      5.92      -0.47      -0.80
      6.58      -0.28      -0.50
      5.40      -1.10      -0.29
      5.69      -0.68       0.57
      5.81       0.02       0.50
      5.38       1.01      -0.11
      5.51       0.70      -0.02
      4.53      -0.19      -0.23
      5.28       1.24      -0.38
      5.39       0.39      -0.05
      5.40      -0.32      -0.15
      6.06      -0.64      -0.53
      5.01       0.07      -0.53
      5.45      -0.23      -0.13
      4.98      -0.49       0.07
      4.44      -0.31       0.18
      5.27       0.17       0.24
      5.71      -1.14      -0.71
      6.13      -0.22      -0.29
      6.03      -0.76      -0.40
      6.19      -1.49      -0.12
      5.97      -1.65      -0.83
      5.42      -1.93      -0.19
      6.28      -0.75      -0.24
      6.44      -1.45       0.01
      6.53      -1.24      -0.24
      6.11      -1.31      -0.46
      6.59      -0.59       0.16
      5.90       0.09      -0.31
      4.22       0.11      -0.18
      5.75      -0.27       0.26
      5.60      -0.03       0.38
      6.27      -0.76       0.64
      5.78       0.14      -0.36
      6.98      -0.03      -0.14
      6.12      -1.05      -0.08
      5.69      -0.05       0.31
      5.96       0.18       0.01
      5.68      -0.94       0.15
      6.17      -0.77       0.18
      6.23      -0.33      -0.31
      5.96       0.76       0.09
      5.37       1.85       0.03
      6.68       1.24      -0.26
      6.83       0.23       0.15
      8.14       1.62      -0.33
      7.77       1.68       0.53
      8.27       0.44      -0.34
      7.30       0.86      -0.04
      8.02       1.06      -0.69
      8.29       0.91       0.11
      8.99       0.62       0.34
      7.54      -0.48      -0.29
      7.22       1.32       0.47
      7.01       0.93      -0.17
      7.10      -0.40       0.16
      7.01      -0.76      -0.50
      6.58       0.37      -0.25
      6.37      -0.32       0.27
      5.55      -0.35       0.15
      7.01       0.21      -0.24
      7.16      -0.22      -0.27
      7.53      -0.46      -0.61
      7.94      -0.18      -0.49
      8.61       0.36      -0.61
      7.77      -0.18       0.01
      7.57       0.62      -0.11
      8.64      -0.28      -0.27
      8.28      -0.55      -0.79
      8.42       0.01      -0.47
      7.20      -0.22       0.43
      7.32      -0.50       0.02
      7.31      -0.93      -0.36
      7.87       0.58       0.61
      6.32      -0.08       0.26
      6.72      -0.71       0.60
      7.74       0.42       1.29
      7.47       0.49      -0.13
      6.63      -0.40       0.28
      5.90      -0.52      -0.00
      6.19       0.55       0.59
      6.90      -0.44      -0.23
      6.92      -0.26       0.06
      7.82      -0.23      -0.12
      8.92       0.60       0.65
      7.58      -0.34      -0.09
      8.17      -0.08       0.24
      7.55       1.13       0.37
      8.00       0.73      -0.04
      8.06      -0.26       0.94
      7.61       0.17       0.71
      6.01      -0.28       0.26
      5.96      -0.52       0.16
      6.11      -0.70       0.10
      6.06       0.84       0.28
      6.02      -0.05       1.08
      6.31      -0.24      -0.29
      5.48       0.19       0.10
      6.19      -0.37      -0.20
      7.46      -0.80      -0.59
      6.75      -0.61       0.00
      6.36      -0.81      -0.85
      5.71      -0.66      -0.50
      6.32      -0.20      -0.15
      6.76      -0.37      -0.55
      5.54       0.24      -0.28
      6.37       0.98       0.02
      6.41       0.50       0.01
      5.13       0.03      -0.04
      5.75       0.06       0.36
      5.70      -0.84      -0.70
      5.74      -0.62       0.28
      6.60      -0.74       0.20
      5.10      -0.08       0.08
      4.94       0.64      -0.64
      5.45       0.63       0.21
      4.97      -0.70      -0.38
      5.34      -0.88       0.90
      5.69      -1.13       0.62
      6.15      -0.09       0.49
      7.41      -0.23      -0.64
      5.74      -0.59       0.11
      6.27      -0.91      -0.04
      6.24      -1.40      -0.23
      6.25      -0.84       0.12
      7.00      -0.82       0.30
      5.53      -1.84      -0.01
      5.93      -1.29      -0.11
      5.89      -1.83      -0.09
      6.52      -0.33      -0.22
      5.94       0.07       0.53
      6.14      -0.05       0.74
      5.79      -0.55      -0.19
      5.32      -2.28      -0.59
      6.20      -1.89       0.12
      6.21      -1.15       0.59
      6.95      -1.03      -0.07
      5.97      -0.90      -0.05
      5.63      -0.85       0.08
      7.42      -0.18       0.06
      7.26      -1.00      -0.06
      6.99       0.01      -0.24
      6.01       1.97       0.33
      6.27       1.49       0.24
      7.52       0.96      -0.03
      8.26       0.35      -0.20
      8.11       1.06       0.17
      7.66       0.92       0.72
      8.23       0.89      -0.43
      9.03       1.04      -1.33
      8.68       1.32      -1.17
      9.40       1.45      -0.57
      8.76       1.29      -0.59
      8.58      -0.03       0.07
      8.10       1.27      -0.03
      7.30       1.43      -0.12
      8.18       0.52       0.32
      7.27       0.67      -0.28
      6.05       0.53      -0.19
      5.30      -0.03       0.20
      6.48      -0.13       0.13
      7.85      -1.21       0.25
      8.54      -0.04      -0.46
      7.46       0.44       0.12
      8.21      -0.59      -0.28
      8.02       0.35      -0.70
      8.37       0.22      -0.01
      8.87      -0.52      -0.80
      8.67      -0.26      -0.58
      7.38      -0.41      -0.73
      7.64       0.34      -0.55
      7.06      -0.42      -0.62
      5.42      -0.47      -0.39
      7.57       0.09      -0.52
      7.38      -0.35      -0.14
      7.15       1.19      -0.21
      7.59       0.20       0.28
      7.41       0.22       0.23
      7.66       0.35       0.06
      7.39      -0.72      -0.21
      7.27      -0.33       0.23
      6.94      -0.79       0.16
      6.42       0.17      -0.03
      7.20      -0.11       0.06
      8.36      -0.27      -0.39
      8.31       0.58       0.10
      8.37       0.10       0.53
      8.84       0.65       0.62
      8.92       0.89      -0.00
      8.39       1.31       0.06
      8.20      -0.17       0.23
      7.20       0.11       0.23
      6.98      -0.53       0.79
      6.49      -0.90       0.67
      5.69      -0.64       0.09
      5.68       0.13       0.47
      6.32       0.57       0.95
      6.17       0.22       0.17
      6.89      -0.80      -0.35
      6.81      -1.57      -0.22
      6.62      -0.92       0.83
      6.94      -0.53      -0.50
      5.84      -0.36       0.19
      6.03      -1.18      -0.20
      5.37      -1.40      -0.08
      5.13      -0.48      -0.39
      5.55      -0.21       0.27
      5.42       0.87       0.40
      4.89       0.40       0.51
      4.25       0.13       0.36
      5.61      -0.23       0.22
      6.56      -0.49       0.26
      6.80       0.02      -0.00
      6.00      -0.41       0.46
      5.34      -0.22      -0.05
      5.62       0.14      -0.26
      6.04      -0.07       0.45
      6.13      -0.64       0.63
      5.00      -0.46       0.37
      6.57       0.12      -0.40
      5.09       0.76      -0.74
      7.07      -0.34      -0.60
      6.16      -0.47      -0.21
      5.70      -1.09       0.17
      5.85      -1.32       0.26
      8.25      -1.36       0.26
      7.44      -1.32      -0.08
      6.99      -1.54       0.21
      5.86      -1.13      -0.34
      6.67      -0.85       0.39
      6.61      -0.41      -0.09
      7.27      -1.03       0.11
      7.09      -0.99      -0.17
      5.83      -1.59      -0.15
      7.01      -1.87      -0.82
      5.37      -0.44       0.15
      6.07      -0.86      -0.15
      7.01      -1.10       0.51
      6.94      -1.42       0.35
      8.22      -1.81      -0.13
      7.09      -0.65       0.19
      7.22       0.08       0.10
      7.21      -0.75       0.54
      5.94       0.63      -0.10
      6.69       1.17      -0.22
      6.84       1.46       0.07
      7.31       1.83      -0.02
      7.12       0.80       0.01
      7.05       0.67      -0.12
      7.46       0.80      -0.38
      8.69       0.64      -0.43
      8.39       0.54      -0.86
      9.26       1.66      -1.50
      8.84       1.02      -0.02
      8.00       1.48      -0.22
      7.77       1.23      -0.72
      7.43       0.43      -0.19
      8.07      -0.55      -0.52
      7.63       0.53       0.13
      6.57      -0.16       0.18
      6.25       0.27      -0.49
      7.89      -0.94       0.29
      7.45      -0.34       0.72
      8.31       0.17      -0.01
      7.38      -0.58       0.03
      7.61       0.97       0.06
      8.32       0.36      -0.07
      7.87      -1.03      -0.36
      8.16      -0.08       0.02
      8.73       0.18       0.26
      7.21      -0.13      -0.57
      7.36       0.64      -0.36
      6.21      -0.25      -0.04
      6.55      -0.31      -0.32
      5.51       0.53      -0.34
      6.86      -0.91      -0.42
      6.69      -0.43      -0.06
      6.98      -0.58       0.14
      6.87      -0.66       0.16
      7.99      -1.29      -0.50
      6.96      -0.73       0.25
      6.88       0.16      -0.13
      7.29       0.04       0.26
      7.18      -1.00      -0.14
      7.09      -0.15      -0.16
      7.69      -0.53      -0.56
      7.88      -0.41      -0.27
      9.11       0.21       0.50
      8.60       0.06       0.37
      8.46       0.37      -0.06
      8.62       0.41       1.07
      7.07       0.71       0.55
      8.46       0.31       0.51
      7.24       0.10       0.63
      7.98      -1.00       0.25
      7.49      -0.76       1.04
      7.86       0.23       0.21
      7.59       0.23      -0.28
      6.86       0.39      -0.47
      7.78      -0.65      -0.66
      7.37      -0.70       0.20
      6.02      -0.44      -0.40
      6.01       0.35      -0.19
      6.33      -0.04      -0.26
      6.13      -0.13       0.15
      4.83      -1.11       0.00
      5.79      -0.11       0.16
      5.19       0.52      -0.32
      5.11       0.90       0.12
      5.63       0.26       0.89
      5.09      -0.24       0.26
      5.94       0.12       0.54
      6.61       0.51       0.23
      6.72       0.44       0.92
      6.87      -0.25      -0.04
      6.91       0.17      -0.48
      6.19       0.73       0.08
      6.56      -0.32       0.37
      5.49      -0.50       0.32
      5.53      -0.53      -0.38
      6.57      -0.02       0.08
      5.71       1.05      -0.41
      6.27      -0.29      -0.29
      5.24      -0.50      -0.44
      5.75      -0.64       0.58
      7.14      -1.11       0.49
      6.62      -1.36       0.98
      7.00      -1.32       0.48
      8.26      -1.36      -0.16
      8.37      -0.53       0.14
      6.99      -0.47      -0.39
      7.44      -0.13       0.35
      7.46      -0.30       0.05
      7.49      -0.70      -0.15
      7.51      -1.18       0.04
      7.38      -1.45      -0.43
      6.58      -0.62      -0.77
      7.53      -1.39      -0.85
      7.43       0.24      -0.59
      6.65      -0.76      -0.32
      7.55      -0.48      -0.07
      6.99      -1.34       0.05
      6.00      -0.36      -0.14
      6.37       0.52      -0.14
      6.55       0.83      -0.72
      7.61       0.87      -0.45
      6.69       1.26       0.25
      6.75       0.86      -0.31
      6.44       0.25      -0.03
      6.23       0.65      -0.57
      7.95       0.76      -0.14
      8.30       0.72      -0.34
      8.74      -0.12      -0.98
      9.69       0.80      -0.82
      7.73       0.78      -0.05
      7.59       0.32      -0.18
      6.26       0.44      -0.52
      7.13      -0.23       0.00
      7.09      -0.72      -0.45
      7.40      -0.01      -0.42
      7.58      -0.42      -0.03
      7.00       0.57      -0.11
      7.53       0.16       0.12
      7.60      -0.02      -0.20
      8.03       0.11      -0.27
      7.41      -0.30       0.30
      8.33      -1.51       0.25
      8.00      -0.16       0.13
      8.46       0.17      -0.39
      7.76       0.00       0.03
      8.20       0.36       0.32
      7.62       0.46      -0.21
      7.76      -0.65      -0.69
      6.44      -0.73      -0.43
      5.77      -0.45      -0.81
      6.56      -0.77      -0.29
      6.00      -0.80       0.54
      6.85      -0.87      -0.03
      7.30      -0.69      -0.37
      7.37      -0.40       0.17
      6.59      -0.57      -0.13
      7.46      -0.43      -0.10
      7.51      -1.17      -0.22
      7.03      -0.07       0.25
      7.70      -0.06      -0.21
      7.69      -0.72       0.45
      8.01      -0.99      -0.16
      7.59      -0.55      -0.15
      8.19      -0.11       0.00
      9.24      -0.03       1.31
      8.57       0.69       0.00
      7.40       0.69       0.69
      7.24       0.03       0.57
      8.05       0.78       0.18
      7.70      -0.33       0.19
      7.25      -0.61       0.26
      7.48      -1.03       0.72
      8.44      -0.46       1.09
      7.82      -0.46      -0.29
      7.71      -1.18      -0.61
      8.02      -0.55      -0.33
      7.50      -0.80      -0.87
      6.35      -0.68      -0.32
      6.13      -1.35       0.55
      6.72      -0.45      -0.32
      5.73      -0.06       0.28
      5.68      -0.68      -0.12
      6.04      -0.72       0.25
      5.43      -0.61      -0.13
      5.20      -0.71      -0.59
      6.29      -0.32       0.41
      6.10      -0.19      -0.16
      5.60      -0.38       0.14
      5.91       0.65       0.21
      7.25       0.37       0.46
      6.42       0.11       0.36
      6.56       0.59       0.26
      6.89       0.24       0.01
      7.51       0.26       0.73
      6.08      -0.97       0.03
      5.94       0.09       0.71
      5.85      -0.17      -0.39
      6.39      -0.45       0.09
      6.70      -0.01      -0.27
      6.62      -0.75      -0.26
      6.04      -0.61       0.12
      6.46      -0.33       0.43
      6.64      -1.93       0.27
      6.69      -1.18       0.69
      7.89      -1.06       0.94
      8.36      -0.84      -0.72
      6.76      -0.36      -0.53
      8.07      -1.31       0.10
      8.46      -0.68       0.02
      7.81      -0.87      -0.04
      8.51      -1.60      -0.42
      8.12      -0.82      -0.26
      8.49      -1.37      -0.36
      6.81      -1.28       0.20
      7.21      -1.21      -0.67
      6.73       0.12      -0.35
      7.21      -1.41       0.13
      7.47      -0.29       0.56
      6.90      -1.05      -0.20
      6.67       0.16      -0.17
      6.77      -0.37      -0.35
      7.33       0.81      -0.12
      6.73       0.66      -0.40
      6.18       0.58      -0.11
      6.33       0.07      -0.33
      6.82      -0.54      -0.59
      8.19      -0.61      -0.57
      9.00      -0.61      -0.51
      8.60       0.22      -0.23
      8.70       0.29      -0.24
      8.74       0.55      -1.04
     10.49       0.09      -1.01
      8.16       0.67       0.11
      8.42      -0.16      -0.32
      7.33      -0.63      -0.17
      7.72      -0.32       0.22
      6.39       0.19      -0.41
      7.58       0.00       0.09
      6.44      -0.67       0.16
      7.05      -0.24       0.07
      8.11      -0.53       0.28
      8.50       0.27       0.14
      9.00       0.42       0.54
      8.29       0.11      -0.32
     10.35      -0.12      -0.31
      9.20      -0.50      -0.02
      8.80      -0.55      -0.32
      7.79      -0.36      -0.01
      7.52      -1.08      -0.09
      7.88      -0.58      -0.46
      7.04      -0.89      -0.22
      6.53      -1.06       0.70
      6.21      -0.70      -0.55
      5.96      -0.27       0.04
      7.31      -0.18       0.05
      7.71      -0.21      -0.25
      7.31      -0.75      -0.44
      6.76      -1.28      -0.32
      8.54       0.10      -0.32
      8.74       0.50      -0.17
      8.05      -0.20       0.77
      8.17      -0.44      -0.38
      8.08      -0.92      -0.15
      8.55      -0.74       0.01
      8.11       0.56      -0.82
      8.15      -0.61       0.48
      8.23       0.72      -0.32
      7.40       0.53      -0.77
      7.79      -0.28       0.47
      9.13       0.43      -0.08
      7.41      -0.30      -0.08
      7.85       0.44      -0.20
      7.46       0.00      -0.33
      8.52      -0.37      -0.73
      7.35      -1.17       0.25
      8.43      -0.72       0.39
      8.26      -0.89       0.20
      7.16      -0.78      -0.61
      7.99      -0.30      -0.09
      7.10      -0.64       0.33
      6.06      -1.47      -0.55
      6.21      -0.81       0.83
      6.22      -0.32       0.16
      7.09      -0.48      -0.28
      6.37      -0.95       0.01
      6.23      -1.02       0.47
      6.18      -0.03       0.03
      6.94      -0.36      -0.01
      6.00      -0.36       0.12
      6.82       0.49       0.05
      7.21       0.45      -0.29
      7.29       0.86       0.28
      6.85      -0.38       0.15
      7.12      -0.07      -0.06
      7.52       1.16      -0.28
      7.85      -0.55       0.22
      6.91      -0.82       0.46
      6.28      -0.44      -0.17
      7.48      -0.29       0.64
      6.34      -0.75       0.32
      6.02      -1.03      -0.24
      6.23      -1.69      -0.15
      7.21      -0.60       0.16
      6.83      -1.53       0.74
      6.93      -0.91      -0.08
      8.13      -0.75      -0.47
      8.28      -0.65      -0.35
      7.91      -0.39      -0.18
      7.63      -1.11      -0.24
      8.75      -0.20       0.92
      9.26      -0.48      -0.08
      8.62      -0.51      -0.27
      8.05      -1.55       0.04
      6.41      -1.19      -0.52
      7.04      -0.06       0.01
      6.81      -0.27      -0.17
      7.11      -0.42       0.07
      6.67      -0.58      -0.28
      6.91      -0.71       0.21
      7.36       1.23      -0.06
      5.79       0.61       0.10
      7.25       0.46      -0.03
      6.68       0.28       0.18
      6.34      -0.35      -0.38
      6.68       0.05      -0.42
      6.91       0.25      -0.32
      7.84      -0.18      -0.09
      8.29      -0.12      -0.65
      9.12       0.67      -1.45
      9.12       0.10      -1.31
      8.94       0.21       0.05
      8.94       0.34      -0.44
      8.83       0.45      -1.15
      8.20       0.79      -0.48
      7.99      -0.48      -0.46
      6.80      -0.18       0.07
      7.57      -0.25      -0.52
      7.25       0.11      -0.89
      7.19      -0.01      -0.52
      6.44       0.53      -0.11
      7.62      -0.09       0.13
      8.42       0.71       0.09
      8.52       1.11      -0.56
      9.10       0.21       0.69
      8.49       0.70      -0.13
      9.54       1.48       0.07
      9.94      -0.17       0.45
      9.15      -1.16      -0.04
      8.50      -0.16      -0.39
      9.34       0.89      -0.02
      7.54      -0.72       0.20
      6.98      -1.20       0.06
      6.36      -0.54      -0.44
      5.84      -0.43       0.11
      6.11       0.29      -0.59
      8.62      -0.25       0.35
      7.42      -0.46      -0.61