# vtk DataFile Version 3.0
Low resolution, disturbed wind of YZ Slice at time = 6 seconds.
ASCII
DATASET STRUCTURED_POINTS
DIMENSIONS     1   101    35
ORIGIN     748.00    -500.00       5.00
SPACING       9.71      10.00      10.00
POINT_DATA            3535
VECTORS DisYZ float
      3.27       0.03       0.15
      3.09       0.42      -0.30
      4.83       0.28      -0.30
      3.82       0.07      -0.16
      4.05       0.16       0.15
      4.53      -0.08       0.56
      4.43       0.37      -0.81
      5.64       0.26      -0.74
      4.81       0.31      -0.59
      4.73       1.87      -0.07
      5.14       0.95      -0.22
      4.40      -0.36      -0.09
      5.40      -0.55      -0.24
      5.32      -0.95      -0.07
      4.93       0.15       0.20
      6.21       0.55       0.14
      6.32       0.74       0.80
      6.28       0.54       0.46
      5.54      -0.09      -0.36
      5.00      -0.17      -0.10
      5.27      -0.93      -0.16
      5.05      -0.19       0.82
      3.27       1.02       0.10
      5.18       1.24       0.17
      4.60       0.47       0.45
      3.22       0.87       0.08
      4.02       0.45      -0.31
      4.52       0.50       0.34
      4.90       0.51      -0.26
      4.88       0.59      -0.32
      4.70       0.44      -0.71
      4.16       0.57      -0.13
      4.88      -0.44      -0.14
      4.88       0.89      -0.26
      4.07       0.55      -0.13
      4.77      -0.27      -0.51
      5.49      -0.44       0.14
      4.54       0.04      -0.02
      4.83       1.04      -0.02
      4.17       0.84       0.51
      4.70      -0.95      -0.29
      4.49      -0.15       0.32
      5.06      -0.58      -0.12
      3.82      -0.98       0.46
      4.80      -0.01      -0.23
      4.71       0.52       0.59
      4.10      -0.43       0.38
      4.49      -0.15       0.17
      5.62      -0.35       0.55
      5.58      -1.41       0.08
      4.70      -1.31      -0.67
      5.76      -1.44      -0.13
      5.54      -1.80       0.63
      4.97      -1.12       0.59
      4.41      -0.81       0.25
      3.97       0.59       0.05
      4.24      -0.14      -0.11
      5.35       0.46      -0.23
      5.77       0.10       0.49
      4.78      -0.34      -0.01
      5.72      -0.42       0.20
      6.20      -0.31      -0.41
      5.38       0.28      -0.94
      5.60       0.33      -0.49
      4.04       0.62      -0.52
      3.88      -0.09       0.31
      4.41       0.70       0.32
      4.83       1.05       0.75
      5.88       0.78       0.71
      5.37       0.40       0.21
      5.40       0.30       0.23
      4.86      -0.61       0.36
      5.04       0.40       0.39
      4.86       0.54       0.49
      5.59       0.97       0.15
      5.39       0.69      -0.65
      3.70      -0.27      -0.24
      4.20       0.21      -0.18
      4.09      -0.29      -0.65
      4.21       0.14       0.03
      3.42       0.78      -0.12
      4.93       0.75       1.07
      5.93       0.20      -0.52
      6.11       0.83       0.20
      6.17       0.42       0.69
      5.81      -0.01       0.91
      5.45       0.34       0.17
      6.12      -0.94      -0.05
      6.43      -0.27       0.95
      6.28      -0.24      -0.14
      7.14       0.40       0.01
      6.14       0.48      -0.66
      6.30       0.28       0.25
      4.96      -0.08       0.74
      5.21       0.01      -0.13
      6.15      -0.33      -0.09
      6.59      -0.32       0.09
      5.77      -0.49       0.41
      4.87       0.98       0.21
      5.02       0.41       0.21
      6.22       0.85       0.83
      4.87      -0.91      -0.27
      3.89       0.33       0.11
      4.07      -0.00      -0.38
      5.54      -0.88      -0.02
      6.10       0.03      -0.49
      5.40      -0.40       0.54
      5.47       0.02       0.07
      6.28      -0.06      -0.95
      5.66      -0.15      -0.13
      6.23       1.39      -0.80
      5.44       0.28      -0.41
      6.33       0.23       0.06
      5.65       0.14      -0.04
      6.56      -0.82      -0.08
      6.96      -0.08       0.23
      7.12       0.61       0.31
      7.19      -0.16      -0.24
      6.75      -0.72       0.49
      6.02      -0.23       0.07
      6.01      -1.10      -0.02
      6.47      -0.43      -0.08
      5.11      -0.11       0.34
      5.88       1.28      -0.37
      5.53       0.93      -0.03
      5.95       0.51       0.26
      5.19       0.61      -0.69
      6.15       1.15       0.35
      5.12      -0.09       0.15
      5.54       0.73       0.08
      4.73      -0.19      -0.22
      5.69       0.18      -0.10
      6.22       0.09      -0.57
      5.90      -0.19      -0.92
      5.74       0.06      -0.35
      5.47       0.37      -0.16
      5.32       0.73       0.31
      6.21       0.29       0.16
      6.65       0.21      -0.39
      5.71       0.68      -0.42
      6.62       0.04       0.50
      5.21       0.05      -0.33
      6.12      -0.53      -0.12
      5.15       0.37       0.35
      5.29      -0.46       0.10
      4.93      -0.49       0.65
      5.52       0.25       0.07
      6.76       0.17       0.53
      5.78       0.02       0.37
      5.85      -0.36       0.08
      7.28      -0.52       0.33
      6.35      -0.67      -0.11
      5.97      -1.19      -0.30
      6.69      -0.90       0.22
      5.61      -0.06       0.68
      5.21       0.12      -0.42
      4.94      -0.63      -0.00
      4.84      -0.28      -0.10
      5.63       0.04       0.76
      5.41      -0.61       0.17
      5.92      -0.92       0.06
      6.03       0.21       0.06
      6.61       0.21      -0.07
      6.87       0.37       0.59
      6.28      -0.13      -0.41
      6.58      -0.04      -0.77
      6.43       1.83       0.25
      6.61       0.74       0.53
      6.20       0.07      -0.04
      6.56       1.24       0.32
      6.18       0.55       0.40
      6.31       0.02       0.27
      6.38       0.42       0.24
      6.13      -0.35       0.42
      5.72      -0.25      -0.02
      6.71       1.78       0.27
      6.88       0.40       0.23
      5.17       0.47      -0.52
      5.89       0.83       0.13
      5.66       0.67      -0.75
      5.89      -0.12      -0.21
      6.82       0.14       0.45
      8.05       0.24       0.81
      6.75       0.86       0.13
      7.30       0.79       1.07
      5.86       0.78       0.47
      7.34       0.05      -0.20
      7.36      -1.19       0.91
      7.88       0.23      -0.13
      8.06      -0.12      -0.17
      8.85      -0.08       0.42
      7.83      -0.11       0.70
      6.79       0.15       0.38
      7.16       1.44      -0.40
      6.90       0.10       0.09
      7.78      -0.24      -0.43
      7.51      -0.69       0.00
      7.59       0.09      -0.09
      7.13      -0.39       0.68
      6.19      -0.14       0.41
      6.43      -0.27       0.32
      6.53       0.48       0.56
      5.01      -0.43       0.03
      5.98      -0.62      -0.57
      5.54      -0.37      -0.44
      6.86      -0.23      -0.59
      6.58       0.26      -0.20
      6.67      -0.01      -0.34
      5.71      -0.10      -0.07
      5.82      -0.61      -0.07
      5.74       0.32      -0.55
      7.27       0.37      -0.89
      6.41      -0.14       0.05
      6.03      -1.52      -0.79
      7.75      -0.67       0.07
      8.02      -0.91      -0.49
      7.02      -0.49       0.30
      7.66      -0.21       0.03
      7.35      -0.50      -0.34
      6.88       0.08       0.58
      6.65      -0.54       0.22
      6.45      -0.41       0.04
      7.44       0.21       0.69
      6.59       0.64       0.94
      6.24       0.38      -0.28
      7.09       0.92      -0.09
      5.10       0.37      -0.59
      6.53       1.22      -0.33
      4.76       1.57       0.34
      4.71       0.34      -0.08
      6.25       0.35       0.30
      6.31      -0.00      -0.11
      6.59       0.67      -0.49
      5.77      -0.20      -0.36
      6.49       0.32      -0.19
      5.57      -0.22      -0.29
      5.25       0.23      -0.54
      5.65      -0.37       0.20
      6.12      -0.09      -0.24
      5.86       0.01      -0.07
      7.26       1.29      -0.88
      7.24      -0.27       0.41
      6.03       0.79      -0.54
      6.94       0.66       0.02
      6.28       0.11      -0.34
      6.56      -0.52      -0.40
      7.01      -0.04       0.41
      7.73      -0.04       0.08
      6.91       0.02       0.35
      8.25       0.24      -0.10
      7.28      -0.14       0.61
      7.19       0.03       0.54
      7.04      -0.29       0.60
      7.84      -0.43      -0.30
      8.10      -0.33       0.38
      5.88       0.03       0.32
      6.61      -0.63      -0.27
      5.13      -0.30       0.29
      5.83      -0.12       0.60
      6.49      -0.39       0.33
      6.99      -0.12       0.03
      6.89      -0.83      -0.36
      7.50      -0.32      -0.60
      6.81      -0.11       0.47
      7.58       0.09       0.81
      5.69      -0.14      -0.02
      5.55       0.51      -0.52
      6.39       0.59       0.18
      7.52       0.74      -0.38
      7.24       0.82       0.39
      7.67       0.46      -0.28
      7.52       0.81      -0.44
      7.48       0.11      -0.34
      6.78      -0.15      -0.38
      8.14      -0.09       0.33
      6.91       0.20       0.26
      7.31       0.78       0.53
      6.54       0.43       0.29
      6.17       0.41      -0.36
      6.33       0.62      -0.53
      6.32       0.54      -0.31
      6.36       0.58       0.29
      6.52      -0.97       0.30
      7.39       0.11       0.18
      6.89       0.72       0.87
      8.08       0.95       0.50
      8.11       0.72       0.08
      7.38      -0.09      -0.01
      7.18       0.02       0.07
      8.13      -0.87       1.15
      8.77      -0.01       0.03
      8.70       0.05      -0.41
      9.35       0.47       0.09
      8.11       0.04       0.51
      7.74       0.09       0.81
      8.94       0.05      -0.31
      9.08       0.24      -0.13
      8.28       0.34      -0.20
      8.13       0.00       0.93
      8.57      -0.44       0.72
      7.26      -0.86       1.02
      7.67      -0.20       0.41
      8.05       0.36       0.24
      4.11      -0.48      -0.07
      6.56       0.60       0.22
      6.64      -0.10       0.47
      6.46       0.50       0.94
      6.60       0.36       0.67
      7.13       0.52       0.29
      6.60      -0.56       0.08
      7.73       0.13      -0.01
      7.39       0.22       0.27
      8.11      -0.28      -0.60
      8.09      -1.42      -0.18
      7.09      -0.86      -0.26
      7.18      -0.72      -0.25
      8.52      -0.49      -0.80
      6.98      -0.83      -0.05
      6.06      -0.42      -0.30
      6.31      -0.14       0.04
      7.43       0.64       0.20
      7.66      -0.23       0.80
      7.73      -0.54      -0.10
      7.12       0.67       0.28
      7.00       0.58       0.68
      7.36       1.20      -0.30
      6.77       0.65       0.11
      6.99       0.48      -0.95
      6.76       0.52      -0.66
      6.75      -0.34      -0.58
      6.42       0.42      -0.93
      6.40       0.16      -1.25
      6.34       0.23      -0.25
      7.19      -0.27      -0.15
      6.86       0.17      -0.63
      6.69      -0.20      -0.84
      5.69      -0.55      -0.23
      5.43      -0.86      -0.49
      5.91      -0.51      -0.11
      6.82      -0.25      -0.50
      6.19      -0.21      -0.40
      7.42       0.66      -0.23
      7.77       0.62      -0.45
      7.25       0.96      -1.03
      7.09       0.34      -0.05
      7.19       0.40       0.50
      6.79       0.07      -0.10
      7.80       0.02       0.50
      8.31      -0.64       0.58
      7.54       0.52       0.19
      7.67       0.41       0.17
      8.04      -0.20       0.12
      7.01      -0.12       0.40
      7.55       0.41      -0.08
      8.01       0.05       0.04
      6.29      -0.42       0.30
      7.02       0.01       0.65
      6.90       0.22       0.45
      6.92      -0.71       0.04
      7.18      -1.12       0.93
      6.99      -0.78      -1.32
      6.87      -0.66      -0.20
      6.59      -1.56      -0.30
      7.70      -0.13       0.45
      7.81      -0.38      -0.16
      6.40      -0.04       0.14
      7.47       0.24      -0.17
      6.50      -0.15       0.09
      7.19       0.14       0.11
      7.47       0.84       0.06
      8.51       0.71      -0.23
      8.78      -0.05       0.18
      8.52       1.49      -0.41
      7.39       1.13       0.54
      7.26       1.03       0.03
      7.99       0.69      -0.10
      7.48       0.97       0.31
      7.42       0.49      -0.01
      8.04       0.79       0.10
      8.41       1.32      -0.20
      7.30       0.48      -0.93
      8.18       0.23       0.06
      7.81       0.61      -0.53
      7.65       0.47      -0.05
      8.00       0.27      -0.13
      9.02       0.96      -0.25
      8.70       0.51       0.34
      8.43       0.14       0.23
      8.70       0.71      -0.48
      7.96       0.80       0.23
      7.82       0.05       0.26
      8.68       1.35       0.93
      8.01       1.00       0.62
      9.69       0.21       0.64
      9.35       0.24       0.00
     10.23       0.59       0.05
      8.27       0.56      -0.59
      9.08       0.39      -0.18
      7.84       0.39       0.68
      9.24       0.89       0.59
      8.86       0.38       0.69
      7.37       0.03       1.06
      7.75       0.24       0.64
      8.65       0.12       0.53
      6.23      -0.44       0.42
      6.03       0.40       0.78
      6.11       0.13       0.34
      7.26       0.84       0.59
      6.78       1.63       0.09
      7.18      -0.12      -0.04
      7.36       0.49       0.10
      7.41       0.72      -0.26
      7.58      -0.11      -0.74
      6.92      -0.14       0.03
      6.84      -0.40      -0.70
      7.71      -0.46       0.26
      8.07      -0.88      -1.33
      7.19      -0.85      -0.56
      7.07      -0.39      -0.42
      7.19       0.84      -0.00
      7.38      -0.36       0.22
      8.01       0.62       0.06
      6.34      -0.26      -0.14
      7.80      -0.14      -0.25
      7.39       0.96       0.50
      7.20       0.54       0.08
      6.40       0.29       0.11
      7.85       0.52      -0.46
      6.69       0.21      -0.68
      6.46       0.49      -0.73
      8.02       1.06      -0.79
      7.52       0.82      -0.20
      6.43       0.51      -0.03
      6.92       0.46      -0.52
      7.32      -0.58      -0.56
      7.18      -0.68       0.03
      6.36       0.27      -0.34
      6.67       1.09      -0.34
      6.72       0.28       0.20
      7.22       0.22      -0.22
      6.99      -0.12       0.41
      6.88      -0.39       0.15
      6.75      -0.04       0.07
      6.60       1.07      -0.54
      6.87       0.69      -1.27
      7.36       0.05       0.25
      7.92       0.26       0.31
      6.54       0.37       0.07
      7.42       0.36      -0.25
      6.69      -0.08       0.72
      7.92       1.36      -0.19
      8.13      -0.39       0.02
      8.69       0.42       0.57
      7.67       0.39       0.91
      7.94       0.20       0.58
      7.10      -0.01       0.38
      7.75      -0.39       0.11
      6.76       0.71       0.65
      7.72      -0.38       0.54
      6.95       0.29       0.24
      7.93       1.22      -0.14
      8.61       0.08       0.27
      8.18      -0.31      -0.14
      6.78      -0.90      -0.24
      7.21      -0.67      -0.07
      8.06      -0.76       0.90
      8.01      -0.86      -0.42
      7.17      -0.04      -0.53
      6.37       0.28       0.15
      7.88       0.47      -0.28
      8.45      -0.11      -0.05
      8.36      -0.19       0.95
      8.29       0.37      -0.41
      8.63       0.60      -0.59
      8.28       0.44      -0.36
      8.47       0.68       0.11
      7.65       1.00       0.58
      8.46       1.72       0.95
      9.36       1.06       0.25
      7.61       1.51      -0.53
      6.94       0.19       0.05
      7.22      -0.48       0.82
      7.74       0.51      -0.31
      8.40       0.18      -0.52
      8.68       1.01      -0.07
      8.15       1.24      -0.17
      8.46       0.05      -0.01
      7.74       0.16       0.38
      8.17       0.63      -0.23
      8.19       0.29       0.43
      8.39       0.62       0.23
      8.78       1.01       0.27
      8.28       2.08      -0.14
      8.45       0.25       1.15
      9.56      -0.32      -0.05
      9.04       0.99      -0.10
      8.27       0.58       0.01
      9.88       0.84       0.36
      8.85       0.35       0.16
      9.59      -0.11       0.48
     10.31       0.55       0.08
      8.75       1.04       0.07
      8.93       0.32       0.16
      8.05       0.63      -0.41
      7.38      -0.09       0.12
      6.27      -0.05       0.29
      6.63      -0.97       0.23
      7.33       0.04       0.53
      7.68       0.68       0.36
      9.03       0.68      -0.02
      8.73       1.12       0.46
      7.64       0.36       0.27
      7.37      -0.14      -0.11
      7.87      -0.14       0.34
      7.72      -0.26      -0.25
      7.58      -0.01       0.43
      6.77      -0.41      -0.05
      7.26      -0.30      -0.12
      7.16      -0.41      -0.73
      6.38       0.14      -0.26
      8.06       0.56       0.25
      8.79       0.28      -0.27
      9.13       0.38      -0.45
      8.31       0.02      -0.19
      6.57       0.41       0.35
      6.96      -0.65       0.68
      7.53       0.65       0.25
      6.74       0.49      -0.81
      7.91       0.71       0.28
      7.94       0.38      -0.67
      7.75       0.94      -0.74
      8.20       0.16      -0.10
      7.93      -0.49      -0.08
      7.61      -1.07      -0.17
      7.82      -0.66      -0.58
      6.93       0.03      -0.07
      7.10      -0.82      -0.50
      7.54       0.17       0.12
      7.06      -0.05      -0.39
      6.77      -0.48      -0.34
      6.89      -0.37      -0.50
      7.45       0.31      -0.82
      7.00       0.29      -0.31
      7.77       0.78       0.32
      6.56       0.53       0.48
      6.81       1.09      -0.97
      7.32       0.64      -0.31
      7.32       0.09      -0.48
      8.22       0.84      -0.19
      8.02       0.00       0.62
      7.31      -0.39       0.73
      7.81       0.76       0.72
      9.16       0.74       0.16
      8.42       0.10       0.43
      8.27      -0.09       0.47
      7.52       0.18       0.93
      7.68       0.03      -0.23
      6.56       0.02       0.13
      6.57      -0.54      -0.05
      7.05      -0.18       0.42
      7.03      -0.39       0.64
      7.30      -0.13       0.25
      7.48       0.02      -0.73
      6.75       0.55       0.64
      8.02      -1.22       0.07
      7.35       0.08      -0.86
      6.73      -0.91       0.18
      6.91      -0.01      -0.40
      8.16       0.12      -0.06
      6.61      -0.05       0.21
      8.61       0.25      -0.02
      6.65       1.46       0.44
      7.86       0.15       0.35
      6.72       0.24       0.46
      8.02       0.89       0.26
      8.72       1.08       0.82
      7.91       0.95       0.57
      7.69       0.56      -0.35
      7.72       1.27      -0.58
      9.10       0.85      -0.20
      8.09       1.13      -0.25
      8.17       0.54      -0.02
      8.01       0.57       0.25
      8.36       0.03      -0.43
      8.17      -0.63       0.42
      7.88       0.74      -0.33
      8.20      -0.04       0.82
      8.61       0.58       0.25
      8.51       0.43       0.74
      7.84      -0.53       0.32
      8.78      -0.11      -0.01
      8.12       0.34       0.27
      7.46       0.55      -0.35
      8.61      -0.63       0.03
      9.52       0.78       0.35
      9.86       0.63      -0.17
     10.60       0.58       0.05
     10.99       0.96      -0.46
     10.02       0.19       0.03
      9.33       1.08       0.39
      8.89       1.03       0.27
      8.92       0.44      -0.27
      9.10       0.91      -0.51
      8.75       0.84      -0.23
      7.92       0.79      -0.29
      7.11      -0.19      -0.10
      6.79       0.33       0.68
      6.58       0.22       0.57
      7.01       0.73       0.61
      8.90       1.07       0.54
      7.92       0.15      -0.31
      7.75       0.23      -0.41
      7.61       0.90       0.31
      9.02       0.13       0.14
      8.98       0.33       0.15
      8.09       0.17      -0.47
      8.05       0.28       0.63
      6.67      -1.01       0.47
      6.20      -0.72       0.18
      7.38       0.12      -0.60
      7.63       0.52      -0.56
      8.07       0.40       0.38
      8.10       0.79       0.05
      7.51       0.37       0.07
      7.39       0.34       0.09
      6.86       0.35      -0.02
      8.08       0.55       0.25
      7.28       1.20      -0.11
      8.52       0.66      -0.47
      7.78      -0.80      -0.42
      7.72      -0.86      -1.08
      6.97      -0.02      -0.76
      7.81      -0.83      -0.75
      8.27      -0.80      -0.73
      7.83      -0.98      -0.20
      8.45      -0.11      -0.49
      8.30       0.58      -0.32
      7.40       0.20       0.28
      7.17       0.65      -0.22
      7.92      -0.43       0.05
      7.17      -0.43      -0.76
      7.06      -0.30      -0.59
      6.90       0.10      -0.60
      8.25      -0.45      -0.04
      7.05      -0.63       0.12
      5.73       1.01       0.15
      6.99       0.41      -0.90
      7.46      -0.33      -0.55
      8.55      -0.65       0.09
      8.72      -0.38       0.84
      9.35      -0.32       0.65
      9.86      -0.47       0.25
      9.24       0.06       0.31
      8.72       0.57       0.61
      8.96       0.00       0.50
      7.74       0.54       0.39
      8.63      -0.15       0.17
      7.93       0.31       0.60
      7.25      -0.29       0.37
      7.23      -0.17       1.35
      6.62       0.53       0.92
      8.47      -0.41      -0.13
      7.60      -0.46      -0.34
      7.59      -0.85      -0.78
      6.82      -0.72      -0.62
      7.69      -0.54      -0.61
      7.53      -0.90      -0.56
      7.55      -0.52      -0.03
      7.35       0.75      -0.19
      7.51      -0.43       0.40
      7.48       0.48       0.34
      9.02       0.43      -0.47
      9.13       1.67      -0.42
      7.53       0.58      -0.37
      7.20      -0.02      -0.31
      7.19       1.23       0.14
      7.00       0.46      -0.16
      7.31       1.65      -0.42
      7.63       1.65      -0.06
      8.04      -0.02      -0.31
      8.36       1.00      -0.88
      7.46       0.17      -0.53
      8.22       1.06       0.20
      7.28       0.07      -0.78
      8.40       0.14      -0.77
      8.86       0.20       0.52
      7.65       1.09       0.64
      9.67       0.95      -0.22
      9.15       0.39      -0.28
      9.24       1.01       0.01
      7.96       0.58      -0.13
      8.10       0.57      -0.33
      8.51       0.14       0.68
      8.71      -0.14      -0.03
      9.16      -0.48      -0.11
      9.57      -0.23      -0.09
      9.47       0.03      -0.42
     10.61      -0.24      -0.01
     10.61      -0.13       0.26
      9.09       0.23       0.35
      9.16       0.29       0.40
      9.04       0.52       0.65
      9.38      -0.23      -0.50
      9.09       0.77       0.20
      8.69       1.48      -0.42
      7.22       0.56       0.01
      7.71      -0.94       0.03
      7.72       0.06       0.08
      8.42      -0.71       0.85
      8.84       1.41       0.24
      8.65       0.70       1.11
      8.52       1.10       0.20
      8.62       1.18       0.23
      8.30       0.79      -0.21
      7.73       0.78       0.67
      8.02      -0.30       0.28
      7.85      -0.70      -0.32
      7.90      -0.14      -0.51
      7.77      -0.69       0.04
      7.24       1.01       0.10
      7.32       0.98      -0.75
      8.44       0.08      -0.41
      7.22       0.80       0.03
      9.22      -0.03       0.07
      7.44      -0.70       0.08
      8.33      -0.33       0.16
      7.49      -0.50       0.27
      7.54      -0.54       0.71
      6.02       0.29       0.20
      7.04      -0.01      -0.94
      7.84      -0.58      -0.62
      7.17      -0.79      -0.58
      7.25      -0.28      -0.49
      6.30       0.11      -0.43
      8.28      -0.27      -0.97
      8.23       0.20      -0.87
      9.35       0.41      -0.27
      8.54      -0.26      -0.30
      7.51       0.01       0.24
      7.14       0.72       0.09
      8.25      -1.09      -0.19
      7.67       0.30      -0.24
      7.32      -0.74      -0.54
      7.34      -1.13       0.11
      6.60      -0.54      -0.56
      6.36      -0.76       0.79
      7.40       0.42      -0.45
      7.64       0.55      -0.54
      7.33       0.02       0.61
      8.27      -0.06      -0.46
      7.96       0.13       0.54
      9.31      -0.26       0.99
      9.29      -0.49       0.69
      9.25      -0.78      -0.10
      9.56      -0.36       0.30
      9.28      -0.44       0.62
      8.82       0.10       0.04
      8.43       0.05       0.46
      8.04      -0.49       0.03
      6.75       0.43       0.18
      7.47      -0.17      -0.02
      7.59      -0.54      -0.09
      7.96      -0.67       0.61
      7.46      -0.42       0.25
      6.84       0.41      -0.30
      7.41      -0.21      -0.35
      6.27      -0.47      -0.67
      8.37      -0.10       0.09
      6.53       0.49      -0.10
      7.27       0.86       0.15
      6.77       0.27      -0.35
      7.12       0.38      -0.09
      7.22       1.20      -0.11
      8.30       1.12       0.09
      7.41       1.69       0.42
      7.90       0.27      -0.47
      8.34       0.60      -0.71
      6.91       0.91      -0.12
      7.85       0.27      -0.26
      8.89       1.37       0.16
      8.47       0.95      -0.20
      8.05       0.89      -0.64
      9.30       0.23      -0.32
      8.66       1.22      -0.07
      8.82      -0.15      -0.39
      8.73       0.60      -0.38
      7.47       1.07       0.17
      8.63      -0.01       0.36
      8.32       0.01      -0.28
      8.83       0.50       0.02
      9.73       0.00       0.20
      9.34       0.59      -0.19
      8.53       0.19      -0.26
      9.06       0.69       0.27
      9.52       1.04       0.50
      7.64       0.07       0.54
      9.32       0.46       0.21
     10.12       0.19       0.00
      9.82       0.14      -0.36
      9.49       0.17       0.65
      8.96       0.82      -0.34
      9.11       0.38      -0.38
      7.71       0.35       0.22
      8.02       0.22      -0.51
      8.05       1.30       0.38
      7.50       0.34      -0.10
      7.73       0.59      -0.32
      8.27       0.71      -0.03
      7.91      -0.63       0.16
      8.23      -0.91       0.53
      8.30       0.31       0.49
      9.47       0.99       0.22
      9.04       1.09      -0.06
      9.78       0.57       0.32
      8.97       0.54      -0.06
      8.23       0.33       0.09
      9.27       0.41       0.03
      8.26      -0.30       0.09
      8.85      -0.31      -0.06
      7.83      -0.22      -0.37
      7.62       0.33       0.32
      8.23      -0.05      -0.26
      8.51      -0.48      -0.73
      8.11      -0.32      -0.50
      8.99      -0.11       0.36
      7.90       0.20       0.37
      8.66       0.38      -0.11
      8.00      -0.26      -0.30
      7.28      -0.22       0.26
      8.49      -0.65       0.29
      7.41       0.25      -0.26
      7.64      -0.12      -0.73
      7.27       0.11      -0.12
      7.36      -0.19      -0.20
      7.91      -0.20      -0.03
      8.09       0.57      -0.02
      8.74       0.03      -0.37
      8.14      -0.66      -0.82
      8.28      -0.17      -0.29
      7.23      -0.18       0.55
      7.89       0.81      -0.09
      7.91      -0.43      -0.29
      8.32      -0.12      -0.32
      7.04       0.18       0.05
      7.10      -0.92      -0.63
      7.10      -0.07      -0.33
      5.99      -0.20       0.18
      6.72       0.90       0.42
      8.39       0.45      -0.08
      8.43      -0.31      -0.12
      7.86       0.30       0.37
      8.23      -0.41       0.44
     10.12      -0.35       0.40
      9.07      -0.19       1.13
      9.82       0.03       0.69
      9.85       0.10       1.00
      8.75       0.15      -0.11
      7.90       0.53       0.02
      8.25      -0.19       0.29
      7.50      -1.00       0.25
      8.19       0.29       0.14
      8.51       0.31       0.95
      7.58      -0.80       0.28
      8.40      -0.24       0.15
      7.87      -0.50       0.11
      8.25       0.66      -0.43
      7.20      -0.66      -1.01
      7.47      -0.08       0.22
      6.81       0.11      -0.31
      7.68      -0.01      -0.72
      7.01       0.08      -0.16
      8.09       0.79      -0.47
      7.39       0.01       0.23
      8.37       0.38      -0.53
      9.08      -0.11      -0.03
      7.61       1.25       0.31
      7.74       0.54      -0.49
      8.11       0.60      -0.67
      7.99       0.15      -0.15
      8.53      -0.04      -1.10
      8.22       0.91       0.05
      8.51       0.85      -0.82
      8.23       1.07      -0.03
      9.10       0.40      -1.13
      8.72       0.37      -0.36
      9.96      -0.20       0.30
      8.29       0.24      -0.75
      8.04       0.10      -0.34
      8.90       0.26      -0.31
      9.00       0.02       0.01
     10.16      -0.20      -0.70
     10.20       0.81      -0.57
      9.39       0.30      -0.70
      9.11       0.84      -0.14
      8.80       0.72      -0.39
      8.39       0.13       0.02
      8.40       0.23      -1.00
      8.91       0.97       0.48
      9.10       1.59       0.96
      9.80       0.14       0.24