# vtk DataFile Version 3.0
Low resolution, disturbed wind of YZ Slice at time = 3 seconds.
ASCII
DATASET STRUCTURED_POINTS
DIMENSIONS     1   101    35
ORIGIN     748.00    -500.00       5.00
SPACING       9.71      10.00      10.00
POINT_DATA            3535
VECTORS DisYZ float
      3.29      -0.41       0.60
      3.80      -1.13      -0.23
      4.06      -0.10       0.27
      4.50      -0.18      -0.73
      3.92      -0.59       0.03
      4.10       0.40       1.09
      4.67      -0.40       0.18
      4.45      -0.27      -0.68
      5.51       0.25      -0.76
      4.49       1.05      -0.95
      4.89       0.47      -0.17
      5.73      -0.83       0.01
      6.07      -0.60       0.35
      4.74       0.10      -0.54
      5.43      -0.13      -0.40
      5.51       0.22       0.18
      7.06       0.02      -0.10
      5.83       0.51      -0.34
      4.26       0.50      -0.12
      4.65       0.99      -0.05
      4.64       0.01       0.38
      5.68      -0.44      -0.19
      3.93       0.47       0.42
      3.83       0.10       0.49
      4.59       0.66      -0.18
      4.11       0.38       0.49
      5.44      -0.28       0.74
      4.02      -0.44       0.50
      4.54       0.20       0.26
      4.98      -0.55      -0.34
      4.92      -0.27      -0.06
      4.68       0.02      -0.48
      4.95       0.30      -0.10
      3.88       0.05       0.35
      4.11       0.38       0.19
      4.24       0.61       0.13
      4.78       0.67      -0.01
      5.48      -0.34      -0.06
      4.43       0.73       0.38
      3.83       0.42      -0.29
      4.24       0.77      -0.11
      4.40      -0.45       0.42
      4.64      -0.90       0.25
      4.55      -0.79      -0.12
      4.91      -0.34       0.69
      4.82       0.51       0.43
      4.93       0.13       0.76
      5.14      -0.61       0.59
      5.19      -1.58      -0.17
      5.24      -1.01       0.47
      5.12      -1.66       0.25
      5.62      -0.31      -0.03
      5.25      -0.64       0.73
      4.74      -0.61       0.13
      4.25      -0.73       0.08
      4.26      -1.58       0.11
      4.46       0.15       1.04
      5.05       0.27      -0.63
      6.43      -0.57       0.17
      4.65       0.38       0.05
      6.69       0.33      -0.24
      5.26       0.28       0.42
      5.50      -0.32      -0.73
      4.42       0.97      -0.50
      5.14       0.45      -0.27
      4.06       0.70      -0.49
      3.67       0.07      -0.13
      4.10       0.09      -0.06
      4.32      -0.10       0.78
      5.06       1.30       0.32
      5.05       0.39       0.36
      5.09       0.13       0.38
      5.29       1.15       0.24
      4.80       0.50      -0.27
      6.45       0.68      -0.16
      4.41       0.62      -0.63
      3.28      -0.03      -1.19
      4.79      -0.22      -0.06
      4.47      -0.38       0.06
      4.03       0.29       0.20
      4.20       0.63       1.11
      5.00       0.16       0.00
      5.96       0.30       0.32
      6.18       0.95       0.52
      5.91       1.38       0.73
      5.86      -0.12       0.86
      6.21       0.03       0.66
      7.16       0.17       1.08
      6.47      -0.10      -0.35
      6.65       0.92      -0.70
      7.08      -0.04       0.14
      5.96      -0.16      -0.04
      6.19       0.72      -0.52
      6.34       0.73      -0.40
      5.92      -0.17      -0.30
      7.16      -0.62       0.38
      6.30      -1.56       0.39
      6.36      -0.57       0.61
      5.34      -0.87       0.75
      5.56      -0.35       0.40
      4.98       0.40      -0.23
      4.96      -1.10       0.29
      5.45      -0.53       0.03
      4.86      -0.20       0.03
      5.67      -0.16      -0.47
      6.21       0.06       0.27
      5.38      -0.53       0.43
      5.57      -0.86       0.58
      5.85      -0.99      -0.32
      4.31      -0.64      -0.62
      5.71       0.40      -0.96
      5.95      -0.22      -0.55
      6.09      -0.07      -0.40
      7.10      -0.20       0.95
      6.58      -1.02       0.01
      7.56      -0.24      -0.07
      6.37      -0.32      -0.04
      6.63       0.42      -0.24
      6.10      -0.31      -0.44
      6.16       0.73      -0.22
      5.54       0.67      -1.16
      5.08       0.78      -0.34
      5.59      -0.59      -1.03
      5.58       0.31      -0.28
      6.31       0.54       0.11
      5.52       0.93       0.32
      5.32       0.45       0.07
      6.29       0.14       0.62
      5.30       0.26      -0.29
      4.35      -0.38       0.17
      5.92       0.43      -0.44
      6.76       0.77       0.16
      6.68      -0.46      -0.09
      5.62       0.37      -0.49
      6.35       0.15      -0.15
      5.40      -0.29      -0.13
      5.92       0.44       0.64
      6.23       0.34       0.72
      7.54       0.23      -0.05
      6.34       0.61      -0.05
      5.67       0.13       0.59
      6.39      -0.70       0.20
      5.86      -0.94      -0.17
      5.61      -0.43       0.32
      5.59      -0.02       0.47
      5.43       0.71       0.32
      5.50       0.55       0.40
      5.56       0.04       0.25
      5.78      -0.91       1.37
      6.61      -1.05       0.53
      6.24       0.04       1.02
      5.97      -0.45       1.19
      7.19      -0.20       0.66
      6.35       0.03       0.03
      6.33      -0.20      -0.26
      5.97      -0.62       0.87
      5.15      -0.27       0.87
      5.41       0.17      -0.22
      6.95      -0.20      -0.45
      6.48      -0.00      -0.02
      5.54      -0.43       0.29
      6.33       0.21      -0.09
      6.57       0.16      -0.30
      6.31      -0.13       0.38
      5.77       0.24       0.29
      7.12       0.06      -0.41
      5.78      -0.15       0.45
      5.65       0.26       0.04
      6.02      -0.46       0.72
      5.22      -0.32       1.11
      5.28       1.36       0.74
      6.22      -0.03       1.26
      6.33       0.76       1.01
      6.22       0.39       0.07
      5.01       0.11       0.69
      6.24       0.90       0.05
      5.88       1.42       0.01
      5.13       1.18      -0.58
      5.23       0.45      -0.45
      6.66      -0.73       0.20
      6.00       0.14       0.45
      6.13       0.98       0.20
      6.85       0.15       0.00
      6.85      -0.00       0.60
      6.40       0.72       0.16
      7.27       1.30       0.24
      7.05       0.65       0.78
      8.10       0.27       0.34
      7.90      -0.62       0.10
      8.60      -0.75      -1.25
      8.95      -0.43      -0.53
      8.19      -0.11      -0.10
      7.85      -0.33      -0.69
      8.63       0.75      -0.52
      7.79       0.21      -0.39
      6.77       0.02      -0.77
      7.28       0.03       0.08
      8.15      -0.05      -0.11
      6.67      -0.69      -0.14
      6.88      -0.85       0.45
      6.37      -0.80       0.79
      5.26      -0.36      -0.12
      5.81       0.05       0.49
      5.98      -0.65      -0.05
      5.31      -1.07       0.42
      6.24      -0.65       0.30
      6.02      -0.30       0.29
      5.45      -1.22       0.20
      4.70      -0.91       0.04
      5.73      -0.98       0.35
      5.78       0.60      -0.36
      5.56       0.12      -0.67
      6.91      -0.30      -0.84
      6.29      -1.22      -0.94
      7.49      -0.79      -0.18
      7.00       0.05      -0.08
      6.87      -0.24      -0.12
      7.12      -0.88       0.55
      7.47      -0.53      -0.08
      7.48      -0.58      -0.47
      5.72      -0.29      -0.31
      5.81       0.16      -0.33
      7.19       0.23      -0.98
      6.20       0.32       0.12
      6.43       0.24      -0.16
      6.01       0.13       0.05
      6.05       0.34       0.43
      5.68       0.68      -0.52
      5.74       0.35      -0.12
      5.41       0.05      -0.59
      5.90       0.27       0.16
      5.54      -0.36       0.02
      5.71       1.11       0.30
      6.52       0.16       0.15
      6.29      -0.69      -0.25
      6.41       0.26      -0.56
      5.36       0.22      -0.14
      6.37       0.26      -0.25
      7.33       0.00      -0.05
      6.67       0.15       0.49
      6.84       0.96       0.29
      6.29      -0.01      -0.68
      6.20       0.16      -0.43
      6.90       0.42       0.52
      6.79       0.05      -0.07
      7.49       0.28       0.71
      8.88       0.15       0.76
      6.33      -0.41       0.48
      6.94       0.53       0.43
      7.21      -0.45       0.64
      7.64      -0.78       0.72
      6.45      -0.15       1.08
      7.58       0.22       0.39
      7.83      -0.21       0.59
      8.11      -0.84       0.20
      7.10       0.07      -0.64
      6.21      -0.17       0.00
      5.74      -0.96       0.51
      5.77       0.02       0.71
      6.67      -0.73       0.13
      6.33      -0.45       0.77
      7.67      -0.41       0.60
      6.52       1.22      -0.31
      6.99       0.44      -0.19
      7.47       0.24       0.07
      6.04       0.40      -0.11
      6.96       0.29      -0.10
      6.53      -0.33      -0.35
      6.30       0.15       0.39
      6.24      -0.30       0.57
      6.50       0.46       0.63
      7.12       0.74      -0.15
      7.19       0.78       0.55
      5.92       0.77       0.95
      7.36       0.60      -0.12
      6.22       0.20       0.02
      6.06       0.80       0.19
      6.54       1.26       0.11
      5.59       1.43      -0.58
      6.91       0.91      -0.19
      6.21       0.38      -0.20
      6.43       0.09       0.08
      7.61       0.30       0.16
      7.90       0.71       0.66
      7.77       1.46       0.22
      7.28       1.39       0.57
      7.34      -0.04       0.47
      7.55       0.39       0.41
      7.34       0.03       0.39
      8.08      -0.41       0.56
      8.55       0.14      -0.29
      8.55       0.00       0.43
      7.56       0.41      -0.35
      8.72       0.64      -1.17
      7.45       0.80      -0.34
      8.17       0.45      -0.69
      8.83       0.32      -0.86
      8.73       0.02      -0.61
      7.69      -0.09      -0.86
      7.89      -0.76       0.96
      7.24      -0.24       0.57
      7.75       0.31       0.02
      7.37       0.75       0.74
      5.22      -0.75       0.11
      7.37      -0.40       0.05
      7.21       0.60       0.48
      6.60      -0.08       0.43
      6.94      -0.04       0.61
      6.05      -0.15       0.14
      6.05      -0.22       0.82
      6.17       0.14      -0.02
      6.03       0.76       0.02
      6.47      -0.24      -1.01
      7.26      -0.91      -0.94
      7.27      -0.52      -0.97
      7.26      -0.42      -0.42
      6.05      -1.08      -0.35
      7.76      -0.41      -0.22
      7.48      -0.37       0.22
      6.30      -0.45      -0.25
      6.52      -0.14       0.05
      6.86      -0.12      -0.12
      7.00       0.02      -0.06
      6.98      -1.29      -0.61
      6.80       0.84       0.04
      6.74       0.63      -0.49
      7.95       0.76      -0.56
      6.66      -0.33      -0.02
      6.00      -0.58      -0.60
      6.94       0.03      -0.18
      6.73       0.30       0.11
      6.43       0.12       0.46
      6.45      -0.70       0.13
      6.55      -0.47      -0.04
      7.11       0.57      -0.04
      7.27       0.00      -1.06
      6.85      -0.01      -0.39
      5.62       0.16      -0.71
      7.41      -0.17      -0.42
      6.78       0.29       0.51
      7.31      -0.10       0.74
      6.72       0.83       0.61
      7.11       0.03      -0.40
      7.10       0.17      -0.24
      7.59       1.28       0.21
      7.68       0.29       0.85
      7.74       0.56       0.91
      7.66       0.54       0.37
      6.82       0.98       0.65
      7.36       0.25       0.20
      7.66      -0.10       0.24
      7.47      -0.06       1.00
      7.17       0.21       0.27
      7.42       0.47       0.42
      7.50      -0.85       0.30
      7.03      -0.14      -0.64
      7.21       0.16      -0.14
      6.76      -0.05      -0.26
      5.84      -0.59       0.08
      6.21      -0.65       0.07
      7.03      -0.25      -0.45
      6.60      -0.80      -0.48
      6.51      -0.68       0.00
      7.50       1.09       0.18
      7.42      -0.09      -0.19
      7.46      -0.45      -0.53
      8.33       0.24      -0.36
      6.79       0.11       0.07
      7.05       0.19      -0.34
      7.28       0.55       0.07
      7.99       0.31       0.05
      7.03       0.78       0.46
      7.15       0.89      -0.40
      6.81       1.52      -0.62
      6.69       0.38       0.56
      6.11       1.07      -0.07
      7.24       1.09       0.12
      7.20       0.85      -0.10
      8.03       0.66      -0.21
      7.84       0.16      -0.51
      8.20       0.68      -0.05
      7.93       0.58      -0.54
      8.12       0.93      -0.10
      8.02       0.05      -0.14
      8.48       0.50       0.65
      8.58       0.47      -0.45
      8.95       1.09       0.18
      7.18       0.38       0.39
      8.03       0.70      -0.46
      8.29       0.09      -0.32
      7.78      -0.23      -0.63
      8.59       0.04       0.26
      8.11       1.28      -0.13
      8.90       0.48      -0.58
      8.96      -0.33      -0.21
      9.45       0.45      -0.47
      9.14       1.61       0.23
      8.29       0.58      -0.55
      8.67       0.39      -0.22
      9.14       0.88       0.04
      8.21      -0.04       0.57
      7.22       0.64       0.35
      7.50      -0.28       0.65
      8.05       0.02       1.04
      6.21      -0.68      -0.13
      5.61      -0.16      -0.61
      7.16       0.41       0.25
      6.56       0.60       0.26
      7.90       1.15       0.70
      6.47       1.76       0.86
      6.94       0.21       1.13
      6.59       0.22       0.10
      6.17       0.20      -0.17
      7.23      -0.20      -0.35
      6.71      -0.42      -0.71
      7.64      -1.00      -0.40
      6.88      -1.25      -0.15
      7.52      -1.28      -0.44
      7.80      -1.17      -0.02
      7.44      -0.34       0.21
      6.35       0.34      -0.17
      8.34       0.34       0.06
      6.70      -0.87       0.27
      6.72       0.21      -0.19
      6.92      -0.26       0.64
      6.97       0.20      -0.46
      6.94      -0.45       0.09
      7.62       0.38      -0.04
      6.74      -0.45      -0.49
      6.11      -0.42      -0.93
      6.91      -0.07      -1.18
      7.54      -0.65      -0.31
      7.13      -0.04      -0.95
      8.17       0.57      -0.34
      6.89      -0.43       0.12
      6.53      -0.25      -0.32
      6.43       0.23       0.45
      7.04      -0.06      -0.42
      6.62      -0.37      -0.87
      6.69      -0.02      -0.39
      7.83       0.24      -0.75
      6.92       0.31       0.22
      6.37      -0.43      -0.03
      6.43       0.27      -0.01
      7.40       0.22       0.60
      8.38       0.46      -0.14
      7.53       0.46       0.36
      6.99       0.80       0.11
      8.28       0.07      -0.23
      7.41       0.01       0.45
      7.42      -0.11      -0.15
      6.96      -0.25       0.65
      7.49      -0.64       0.84
      7.64      -0.15       0.18
      7.73      -0.77       1.12
      7.94       0.12       0.48
      6.76       0.15      -0.34
      7.62       0.06       0.90
      6.84      -0.69       0.96
      7.14      -0.90       0.71
      8.09       0.42       0.21
      8.31       0.06      -0.24
      7.21      -0.22      -0.03
      6.01      -0.38       0.16
      7.02      -0.28      -0.50
      7.97       0.13      -0.01
      7.99       0.02      -0.40
      7.26       0.06       0.00
      6.24      -1.15      -0.66
      8.36       0.87       0.06
      9.01       0.11      -0.76
      8.30       0.26      -0.39
      6.63       1.24      -0.82
      7.70       1.60      -0.24
      6.70       0.87       0.42
      7.06      -0.05       0.29
      6.49       0.86       0.45
      7.19       1.26      -0.47
      8.09       0.96       0.50
      6.77       1.16       0.06
      6.68       0.29      -0.56
      7.89      -0.02       0.07
      7.55       0.18       0.29
      7.91       0.12       0.00
      7.88       1.34       0.76
      8.20       0.46       0.74
      8.69       0.11       0.31
      7.82       0.49      -0.42
      8.09      -0.09       0.24
      9.31       0.34      -0.16
     10.39       0.05      -0.62
      8.72      -0.64       0.13
     10.12       0.28       0.63
      9.64       0.29       0.50
      9.67      -0.15      -0.07
      8.55       1.05      -0.28
      9.17       0.32      -0.09
      9.20       0.52       0.18
      9.50       0.29       0.52
     10.16       0.01       0.30
      9.60       0.30       0.16
      7.81       1.22       0.94
      7.70       0.84       0.59
      8.87       0.02       0.88
      7.90       0.37      -0.11
      5.84      -0.06      -0.35
      5.68      -1.01       0.12
      7.11      -0.05       0.78
      6.57       0.22       0.58
      7.98       1.27       0.62
      7.47       0.76       0.32
      7.03       0.76       0.25
      7.40       0.90       0.51
      8.73       0.41       0.21
      8.25       0.24       0.39
      7.01       0.40       0.28
      7.85      -0.54      -0.31
      7.28       0.02      -0.26
      7.05      -1.75      -0.26
      8.29      -0.63      -0.57
      7.94      -0.37      -0.33
      8.43       0.83       0.13
      8.28       0.13       0.57
      8.13      -0.01      -0.56
      7.29       0.40       0.47
      5.33      -0.13       0.48
      7.59       0.52       0.30
      6.24      -0.14      -0.99
      6.70      -0.37      -0.61
      7.85       0.01       0.06
      6.79      -0.63      -0.93
      7.80       0.63      -0.47
      8.11       0.23      -1.24
      8.04      -0.21      -0.46
      7.96      -0.28      -0.27
      7.35      -0.11      -0.23
      7.11       0.57      -0.21
      7.77       0.43      -0.24
      7.38       0.11      -0.82
      8.46      -1.73      -0.73
      7.56      -0.73      -0.41
      8.12      -0.62      -0.26
      8.63       0.45       0.22
      7.25      -0.39       0.26
      6.79      -0.13      -0.66
      7.08       0.56      -0.21
      7.67       0.22      -0.35
      7.55       0.68      -0.36
      8.39       0.76       0.54
      7.49       0.66       0.29
      7.89       0.68       0.50
      7.57      -0.48       0.53
      7.28       0.56       0.00
      8.01       1.52       0.04
      7.68       0.51       0.87
      8.02      -0.09       1.08
      8.53       0.08       0.18
      7.37      -0.21      -0.06
      7.14      -0.04       0.48
      7.25      -1.43       0.48
      7.62      -0.02       0.31
      6.93      -0.03       0.36
      7.01      -0.23       0.12
      7.43      -0.65       0.01
      5.86      -0.75      -0.82
      6.74       0.40      -0.12
      7.34       0.52      -0.60
      7.13      -0.09       0.04
      6.83      -0.45      -0.42
      7.65       0.12       0.04
      8.54       1.17       0.41
      7.67       0.90      -0.43
      8.89       1.28      -0.01
      7.30       0.44      -0.49
      8.27       1.14       0.18
      8.05       0.78      -0.18
      7.33       0.23       0.82
      7.08       0.85       0.27
      7.27       0.30      -0.02
      7.49       1.03      -0.23
      7.29       0.92      -0.62
      7.20      -0.42      -0.32
      7.37       0.37      -0.48
      7.98      -0.06       0.51
      7.93       0.47      -0.25
      7.96       1.03       0.48
      8.76       1.20       0.39
      9.48       0.61       0.32
      9.16       0.65      -0.04
      9.54       0.67       0.21
      9.14       0.46      -0.22
      8.71      -0.15      -0.13
      9.26      -0.42      -0.47
     10.18       0.30      -0.26
     10.19      -0.41       0.68
     11.47       0.37      -0.47
     10.49       0.50      -0.31
      9.89       0.96       0.21
     10.39      -0.05      -0.39
      9.48       0.09      -0.83
      8.91       0.67       0.69
      8.57       0.42       0.09
      7.93       0.37       0.88
      8.90       1.22       0.49
      9.75       0.97       0.52
      8.20       0.17      -0.20
      8.03       0.41       0.44
      7.07       0.37      -0.53
      7.13       0.65       0.26
      8.53       0.40      -0.03
      7.86       1.11      -0.02
      7.53       1.26      -0.17
      7.32       1.30      -0.34
      7.59       0.62       0.32
      7.91       0.03      -0.28
      7.70      -0.05      -0.45
      7.66       0.15      -0.04
      7.68      -0.13       0.25
      7.40      -0.58       0.19
      8.15      -0.69       0.35
      7.64      -0.39      -0.04
      8.02      -0.00      -0.27
      8.28       0.65      -0.48
      7.29      -0.29      -0.26
      7.61       0.08       0.66
      6.84       1.22      -0.02
      7.10       0.42      -0.51
      7.49       0.34       0.11
      7.19       0.37      -0.01
      7.86      -0.94       0.72
      7.09      -0.70      -0.31
      6.44       0.43      -0.57
      8.35       0.11       0.10
      8.30       0.34       0.13
      8.70       0.09      -0.21
      7.23       0.37      -0.56
      8.77      -0.09      -0.38
      7.46      -0.40      -0.06
      7.62      -0.04      -0.55
      9.00       0.31      -0.47
      7.94      -0.11       0.06
      8.69      -1.14      -0.59
      8.06       0.29      -0.51
      8.59       0.24      -0.17
      7.17      -0.62      -0.18
      7.11       0.21      -0.76
      6.94       0.14       0.52
      7.99       0.60       0.70
      9.09      -0.45       0.50
      8.95      -0.05       0.58
      8.13       0.62       0.13
      8.50      -0.54       0.32
      8.20       0.45       0.50
      7.98      -0.42       0.24
      7.93       0.35       0.49
      8.54       0.91       0.78
      8.60       0.93       0.43
      7.64      -0.41       0.47
      6.99      -0.34       0.36
      6.48      -0.70       0.86
      7.22       0.21      -0.22
      8.44       0.11      -0.24
      6.75       0.89       0.31
      6.00      -0.70      -0.28
      7.58       0.12      -0.44
      7.06      -0.04      -0.86
      7.19      -0.02      -0.35
      6.93       0.04      -0.46
      7.14       0.80      -0.55
      6.22       0.39      -0.45
      6.90       0.31      -0.70
      8.43       0.85      -0.63
      9.47       1.21      -0.34
      8.17       1.80      -0.31
      7.26       0.24      -0.58
      7.66       1.04       0.16
      7.66       0.60       0.54
      8.18       1.19      -0.09
      8.17      -0.06       0.08
      8.12       0.07      -0.28
      8.01       1.11       0.16
      7.60       0.45      -0.24
      8.04       0.73       0.37
      7.83       0.95       0.42
      8.25       0.25       0.05
      9.18       0.40      -0.08
      9.30       1.23       0.23
      9.87       1.25      -0.10
      8.75       0.64       0.27
      9.64       0.82      -0.01
      8.95       0.92       0.01
      8.68      -0.21       0.13
      9.75      -0.22      -0.07
     10.23      -0.33      -0.14
      9.57      -1.28       0.38
     10.20      -1.10      -0.13
     10.30       0.00      -0.85
      9.35      -0.50       0.37
     10.80      -0.10       0.06
      9.20       0.09      -1.15
      8.44      -0.71      -0.24
      7.80       0.42      -0.05
      8.12      -0.05      -0.22
      9.38      -0.21       0.28
      8.85       0.67       0.43
      8.50       0.98       0.95
      8.42      -0.51       0.05
      6.83       0.11       0.13
      7.33       0.50       1.00
      8.17       0.80       0.21
      8.70      -0.24       0.82
      8.90       0.49       0.48
      8.18       0.27       0.73
      8.25       1.55      -0.32
      7.26       1.51       0.68
      7.95       0.36       0.08
      8.72      -0.05      -0.19
      7.63       0.57      -0.59
      8.31      -0.98      -0.33
      7.98      -0.00      -0.09
      8.01      -0.48       0.29
      8.14       0.48       0.38
      8.75      -0.23       0.15
      7.73       0.00       0.16
      7.68      -0.74      -0.12
      8.21      -0.49       0.71
      7.75      -0.25       0.05
      8.04      -0.17       0.10
      7.70       0.38       0.07
      7.67      -0.29       0.55
      8.04      -1.01       0.68
      6.97      -0.89      -0.64
      6.96      -0.24      -0.71
      7.16       0.70      -0.43
      7.94       0.08      -0.33
      8.64       0.91      -0.03
      9.17       0.35       0.01
      7.57       0.30      -0.00
      7.02       0.05      -0.42
      8.12      -0.42      -0.26
      7.55      -0.22      -0.33
      7.26      -0.43       0.24
      6.78      -0.58      -0.10
      7.84      -1.39      -0.90
      7.36      -0.87      -0.36
      7.16      -0.09      -0.34
      8.57       1.14       0.18
      8.18       0.26       0.34
      8.44      -0.03       0.27
      8.49      -0.07       0.51
      8.54      -0.69       0.43
      9.06      -0.19       0.12
      9.08       0.84      -0.85
      9.44       0.46       0.21
      9.41       0.61       0.23
      8.34       0.53      -0.24
      8.28      -0.28       0.63
      7.85       0.73       0.01
      8.13      -1.23       0.38
      7.01      -0.59       0.38
      7.06      -0.82       0.27
      6.70      -0.50       0.21
      8.25      -0.11      -0.01
      7.68      -0.41      -0.38
      7.52      -0.78      -0.34
      7.08      -1.12      -0.80
      6.85      -1.15      -0.48
      7.34      -0.55      -0.24
      7.27       0.40      -0.99
      6.84       0.88      -0.72
      6.50      -0.56      -0.67
      6.42       0.63      -0.44
      8.31       0.99      -0.49
      8.89       0.94      -0.91
      8.77       1.30       0.22
      8.40       0.60       0.19
      7.01       1.14       0.37
      8.52       0.31       0.13
      8.18      -0.24       0.28
      8.92       0.55       0.00
      7.19       0.84      -0.48
      7.86       1.08       0.02
      8.39       0.87      -0.58
      8.97       0.22      -0.14
      8.71       1.09      -0.30
      8.02       0.66       0.33
      8.72       0.06       0.15
      7.70       0.23       0.35
      9.37       0.52      -0.11
      8.95       0.05       0.28
      9.58       0.33      -0.66
      8.94       0.64       0.34
      8.78       0.57       0.37
      8.69      -0.10       0.09
      8.64      -0.28       0.23
      9.24      -0.29      -0.07
      8.93      -0.00       0.06
     10.19       0.35      -0.43
      9.07      -0.17      -0.57
     10.11       0.40      -0.45
      9.58       0.41      -0.37
      9.05      -0.32       0.05
      8.49      -0.19      -0.86
      7.77      -0.00      -0.36
      8.90       0.09       0.11
      8.38       0.45       0.22
      8.98       0.20       0.06
      8.34      -0.75      -0.59
      8.33       0.13      -0.19
      8.04      -0.22      -0.03
      8.29       0.01       0.21
      8.80       1.26       0.34
      8.73       1.56       0.23
      8.09       0.46       0.44
      8.55       0.89       0.07
      9.14       0.98       0.83
      9.10       0.02       0.29
      8.09       0.57      -0.04
      7.61       0.86      -0.09
      6.81      -0.51      -0.19
      8.31      -1.06       0.20
      7.84      -0.55      -0.11
      9.13       0.12       0.17
      9.22       0.90       0.69
      9.20       0.07       0.25
      8.60      -0.33      -0.47
      9.28      -0.65      -0.32
      8.49       0.10      -0.13
      7.88      -0.34       0.63
      7.28      -1.38       0.37
      9.05      -0.66       0.27
      8.51       0.07      -0.07
      7.75       0.86      -0.11
      6.99       0.82      -0.85
      7.63       0.45      -1.00
      8.59       0.39      -0.48
      9.12       0.32       0.21
      8.75      -0.07      -0.32
      8.43      -0.34      -0.16
      7.70       0.01       0.32
      7.68       0.09       0.41
      8.38      -0.61      -0.14
      6.44      -0.78      -0.11
      7.70      -0.95       0.28
      7.90      -0.87      -0.42
      8.00      -0.75       0.43
      7.55      -0.71      -0.55
      7.07       0.33       0.05
      8.12       0.49      -0.01
      8.90       0.21       0.35
      8.60       0.46      -0.03
      8.85       0.72       0.72
      9.15      -0.47       0.01
      9.60      -0.02      -0.61
      9.44      -0.70      -0.13
      9.62      -0.51      -0.06
      8.67      -0.27       0.69
      9.82      -0.56       0.57
      7.49       0.14       0.65
      8.35      -0.09      -0.06
      7.36      -1.13      -0.24
      7.53      -0.07       0.04
      7.58      -0.62      -0.35
      7.55      -0.57       0.54
      7.13      -1.16      -0.99
      7.20      -0.83      -0.43
      7.88      -1.43      -0.78
      8.02      -1.12      -0.22
      7.45      -0.44      -0.26
      7.34      -0.47       0.15
      6.01      -0.13      -0.39
      7.32       0.61      -0.74
      7.02       0.47      -0.55
      7.70       1.04      -0.65
      8.20       1.00      -0.03
      7.70       0.84      -0.08
      8.28       1.21      -0.06
      7.42      -0.18      -0.44
      7.98       0.18      -0.54
      8.30       0.17      -0.11
      9.07       0.50      -0.63
      7.67       1.05      -0.50
      8.37       1.19      -0.25
      8.41       0.56      -0.34
      9.84       0.54      -1.28
      9.76       0.28      -0.45
      8.74       0.58      -0.65
      8.91       1.29      -0.60
      8.85       0.51      -0.46
      8.57       0.85      -1.00
      9.53      -0.14       0.14
     10.96       0.44      -0.62
      8.88      -0.66       0.72
      8.89       0.21      -0.10
      8.36       0.61      -0.26
      8.20      -0.25      -0.21
      9.21      -0.23       0.10
      8.42       0.77       0.52
      8.73       0.42      -0.18
      8.64       0.19       0.31