# vtk DataFile Version 3.0
Low resolution, disturbed wind of XY Slice at time = 9 seconds.
ASCII
DATASET STRUCTURED_POINTS
DIMENSIONS   413   101     1
ORIGIN     -77.70    -500.00      85.00
SPACING       9.71      10.00      10.00
POINT_DATA           41713
VECTORS DisXY float
      8.72      -0.26      -0.80
      7.95       0.20       0.30
      8.66      -1.06       0.24
      7.95      -1.14       0.31
      7.85      -1.42       0.47
      8.53      -1.18       0.10
      8.26      -1.39       0.31
      8.86      -0.62       0.29
      8.40      -0.77       0.00
      8.20       0.02      -0.01
      8.05       0.00       0.50
      8.36      -0.60       0.14
      7.80      -0.67       0.64
      7.75       0.13       0.51
      7.93       1.01       0.24
      8.68       0.45       0.03
      8.00       0.02       0.13
      8.05       0.39      -0.07
      8.35      -0.09      -0.25
      7.48       0.75      -0.81
      7.35       0.37      -0.60
      7.23       0.24      -0.22
      7.10       1.02      -1.38
      7.15       0.71      -0.15
      7.51       0.42      -0.04
      7.86       1.03       0.67
      8.01       0.49       0.42
      9.18       0.97       0.00
      9.19       0.33      -0.31
      9.22       1.33      -0.67
     10.21       0.93      -0.72
      9.02       0.56      -0.18
      8.97       0.29      -0.11
      9.28       0.41       0.10
      8.62       0.85      -0.35
      9.23       0.31       0.01
      9.25       0.84      -0.34
     10.10       1.49      -0.22
      9.42       1.65       0.42
      8.75       0.71      -0.13
      9.05       0.52      -1.27
      8.29       0.45      -0.93
      8.22       0.85      -0.26
      8.33       0.91      -0.75
      8.60       0.69      -0.18
      7.60       0.24      -0.18
      6.87       0.20      -0.49
      7.40       0.00      -0.29
      7.71       1.01      -0.84
      7.80       0.46      -0.12
      7.51       0.29       0.20
      7.50       0.83      -0.24
      7.79      -0.04      -0.63
      8.42       0.24      -0.24
      8.02       0.51      -0.02
      7.27      -0.06       0.18
      7.54      -0.12       0.23
      7.26       0.33       0.81
      7.97      -0.05       0.34
      8.44       0.07       0.29
      8.46      -0.15       0.04
      7.82      -0.54      -0.55
      8.31      -0.09      -0.24
      7.77      -0.66      -0.68
      8.23      -0.69      -0.51
      7.73      -0.44      -0.15
      8.35      -1.11      -0.98
      8.54      -0.52      -1.25
      8.61      -0.29      -0.95
      8.54       0.34      -0.56
      7.72      -0.36       0.17
      7.82      -0.29       0.18
      8.20       0.29      -0.53
      8.14      -0.25      -0.57
      7.76      -0.51      -0.09
      8.81      -1.30       0.11
      8.69      -1.05       0.09
      8.89      -0.43      -0.41
      7.73       0.20      -0.11
      7.84       1.14      -0.11
      8.64       1.42      -0.46
      8.83       1.18      -0.40
      8.91       0.80      -0.33
      8.81       0.56      -0.55
      8.98       1.30       0.13
      9.18       1.17      -0.50
      8.96      -0.38       0.39
      8.89      -0.82       0.60
      7.88      -0.67       0.40
      8.13      -0.49       0.29
      8.04      -0.16       0.06
      8.42      -0.03      -0.06
      7.46      -0.57       0.39
      7.98      -0.94       0.44
      8.25      -0.50       0.51
      7.63      -0.58       0.22
      7.65       0.11      -0.56
      8.38       0.59       0.11
      8.04       1.14      -0.09
      7.95       0.30      -0.15
      7.37       0.17      -0.36
      7.26       0.64       0.06
      6.66       0.69       0.28
      7.32      -0.09       0.54
      7.68       0.90       0.89
      7.92       0.64       0.46
      7.17      -0.35      -0.54
      7.88      -0.16       0.57
      7.98      -0.64       0.24
      7.47      -0.60       0.40
      7.60      -0.55       0.44
      7.95      -0.31       0.45
      8.90      -0.28       0.08
      9.54      -0.66       0.06
      8.76      -0.45      -0.35
      8.43       0.08       0.27
      7.36      -0.25       0.44
      7.22      -0.13       0.23
      7.14      -1.14       0.12
      6.81      -0.41       0.09
      6.76      -0.50       0.03
      7.26       0.40       0.43
      6.72       0.00       0.04
      7.15      -0.26      -0.04
      7.88       0.69      -0.13
      7.45       0.68       0.74
      8.05       0.16       0.23
      8.13       0.14       0.65
      7.81       0.28       0.50
      8.10       0.05       1.27
      8.20       0.91       1.11
      8.80       0.39       0.56
      8.18       0.73       0.29
      9.11      -0.16       0.13
      9.49      -0.53      -0.01
      8.38      -0.02       0.13
      7.57      -0.65       1.28
      7.94      -0.16       1.09
      8.38      -1.38       0.84
      8.67      -0.22      -0.27
      8.51      -0.71       0.42
      9.26      -0.79       0.01
      9.21      -0.23      -0.11
      8.07       0.14      -0.71
      7.31       0.03      -0.54
      7.31      -0.53      -0.21
      7.80      -0.79       0.05
      8.13      -0.11      -0.61
      7.58      -0.08      -0.57
      8.42      -0.33      -0.43
      8.20      -0.15       0.14
      7.96      -0.40       0.64
      7.43      -0.48       0.30
      7.00      -0.85      -0.13
      7.16       0.12       0.09
      7.37      -0.33      -0.01
      7.08      -0.37      -0.16
      6.01      -0.96      -0.33
      6.60      -0.52      -0.28
      5.68       0.25      -0.02
      5.51      -0.08       0.24
      4.99       0.43       0.45
      6.04       0.44      -0.17
      5.27       0.46       0.12
      5.51      -0.06       0.89
      6.15       0.04       0.70
      6.86      -0.40       0.10
      7.58      -1.14       0.35
      7.61      -1.21       0.05
      7.38      -0.88       0.05
      7.49      -0.75      -0.00
      7.74      -1.26       0.76
      8.30      -0.01      -0.18
      7.73       0.26      -0.77
      8.25       0.08       0.16
      8.40       0.23       0.17
      8.36      -0.27      -0.07
      7.98      -0.48       0.12
      8.45      -0.69      -0.20
      7.71      -0.29      -0.02
      8.03      -0.77       0.09
      9.12       0.35       0.38
      8.35      -0.03       0.13
      7.66       0.48       0.13
      7.18      -0.15       0.04
      7.36      -0.48      -0.07
      8.41      -0.40       0.54
      8.34      -0.41       0.28
      7.79       0.31       0.12
      7.54      -0.21       0.21
      8.12      -0.22      -0.73
      7.88      -0.42       0.21
      8.69      -0.05       0.75
      8.85      -1.17       0.27
      7.72      -1.29       0.55
      8.40      -1.26      -0.14
      8.44      -1.45      -0.01
      9.10      -1.02       0.07
      8.22      -0.48      -0.02
      8.21      -0.33       0.02
      8.08       0.42       0.02
      8.10      -0.21       0.30
      8.31      -0.35      -0.14
      7.55       0.07       0.24
      8.07       0.60       0.21
      8.10       0.36       0.00
      8.09       0.79       0.36
      8.06       0.52       0.19
      8.51      -0.04      -0.37
      7.56       0.51      -0.55
      7.81       0.80      -0.87
      7.16       0.13      -0.13
      6.87       0.55      -0.84
      7.17       1.33      -0.86
      7.49       1.00      -0.15
      8.19       0.80       0.12
      7.75       1.21      -0.00
      9.03       0.25       0.25
      9.06       0.29      -0.22
      9.41       0.42      -0.52
      9.60       1.34      -0.40
      9.92       0.77      -0.07
      9.34       0.19      -0.59
      9.65      -0.16      -0.08
      8.56       0.76      -0.01
      8.96       0.49      -0.18
      9.31       1.10      -0.39
      9.92       0.76      -0.66
     10.24       1.71       0.02
      8.83       1.63       0.02
      8.89       0.15      -0.73
      8.57       0.62      -1.57
      8.55       0.65      -0.65
      8.46       0.93      -0.29
      8.47       0.88      -0.40
      7.76       0.55      -0.44
      6.59       0.23      -0.40
      7.20       0.03      -0.28
      7.62       0.34      -0.60
      7.79       1.04      -0.21
      7.71       0.27      -0.40
      8.18       0.67      -0.06
      7.83       0.70      -0.28
      7.58       0.30      -0.07
      7.64      -0.17       0.14
      7.37       0.36      -0.01
      7.57       0.07       0.85
      7.90       0.03       0.46
      7.82       0.04       0.95
      7.98       0.17       0.41
      7.84      -0.20       0.13
      8.20      -0.38      -0.48
      8.13      -0.56      -0.02
      7.56      -0.04      -0.83
      8.16      -0.64      -0.90
      8.03      -0.37      -0.22
      7.95      -0.88      -0.62
      8.40      -1.03      -1.33
      8.12      -0.49      -1.06
      8.68       0.03      -1.29
      8.54      -0.01       0.08
      7.48      -0.16       0.09
      7.77      -0.26       0.03
      7.99      -0.25      -0.36
      7.77      -0.66       0.02
      8.85      -1.06       0.51
      8.42      -1.01       0.36
      8.62      -0.91       0.07
      8.37      -0.01      -0.57
      8.11       0.73       0.00
      8.54       1.33      -0.82
      8.90       1.35      -0.73
      8.77       1.15      -0.22
      9.15       0.83       0.15
      9.30       0.90      -0.03
      8.68       0.46      -0.30
      9.36       0.41       0.28
      9.05      -0.27       0.28
      8.28      -1.07       0.24
      8.24      -0.80       0.29
      8.34      -0.46      -0.36
      8.25       0.03      -0.06
      8.03      -0.81       0.47
      7.47      -0.51      -0.07
      8.11      -0.48       0.29
      7.94      -0.05       0.96
      7.99       0.21       0.42
      8.82       0.81      -0.10
      8.35       0.93      -0.11
      8.55       0.51       0.14
      7.28       0.21       0.14
      8.06       0.06       0.23
      6.90       0.61       0.22
      6.81      -0.07       0.47
      7.57       0.66       0.27
      8.10       0.40       0.48
      7.52      -0.06      -0.35
      8.05       0.17       0.42
      8.19      -0.13       0.34
      7.50      -1.25       0.66
      7.19      -0.67       1.06
      7.38      -0.55       0.31
      8.40      -0.02       0.36
      9.49      -0.70       0.05
      8.81      -0.87      -0.42
      8.67      -0.41      -0.33
      7.78       0.29       0.11
      7.36      -0.11       0.29
      6.94      -0.44      -0.03
      6.73      -1.19       0.59
      6.85      -0.47      -0.25
      7.08      -0.17       0.06
      6.80       0.16      -0.07
      7.22      -0.04      -0.12
      7.57       0.73       0.24
      7.58       1.00       0.17
      8.25       0.40       0.80
      7.97       0.13       0.48
      8.09       0.18       0.32
      8.04       0.35       1.12
      8.86      -0.04       1.29
      8.69       0.59       0.30
      8.27       0.76       0.53
      8.90       0.08       0.05
      8.11       0.03      -0.23
      9.15      -0.08       0.04
      7.75      -0.83       0.80
      7.85      -0.23       1.12
      8.34      -0.84       0.56
      8.10      -0.54      -0.08
      9.09      -0.61       0.73
      8.82      -0.89       0.66
      9.33       0.02      -0.39
      8.53       0.71      -0.53
      8.06      -0.06      -1.02
      7.17      -0.42      -0.44
      7.66      -0.02      -0.06
      8.24       0.37      -0.71
      7.94       0.52      -0.49
      8.04      -0.36      -0.62
      8.65       0.13      -0.49
      7.45      -0.23       0.55
      7.58      -0.05       1.18
      6.98      -0.65       0.02
      6.92      -0.08       0.32
      7.44      -0.11       0.15
      7.32      -0.04      -0.02
      6.67      -0.96      -0.29
      6.19      -0.63      -0.27
      6.55       0.26      -0.18
      5.52      -0.55      -0.01
      5.36       0.41       0.53
      5.82       0.12      -0.14
      5.81       0.06      -0.32
      5.54       0.42       0.41
      5.82      -0.47       0.31
      6.25      -0.17       0.12
      6.73      -1.06      -0.11
      7.74      -1.46       0.64
      7.36      -1.04      -0.13
      7.84      -0.39      -0.25
      7.93      -1.25       0.74
      7.83      -0.48      -0.14
      8.22       0.20      -0.13
      8.08      -0.31      -0.08
      8.14       0.18       0.12
      9.11       0.60       0.21
      7.93      -0.37       0.26
      7.99      -0.62       0.25
      8.18      -0.58      -0.19
      7.65      -0.26      -0.08
      8.54       0.14       0.10
      8.76       0.53       0.23
      8.07       0.23      -0.06
      7.20      -0.04       0.13
      7.52      -0.63      -0.17
      8.43      -0.49       0.08
      8.54      -0.67       0.04
      8.12      -0.30      -0.04
      7.69       0.07       0.08
      8.25      -0.47      -0.33
      8.18      -0.58       0.05
      8.19       0.35       0.50
      8.89      -1.27      -0.10
      7.61      -1.95       0.39
      8.11      -1.27       0.19
      8.72      -0.89      -0.07
      8.52      -0.82       0.13
      8.72      -0.76       0.17
      8.64      -0.53       0.05
      8.37       0.31       0.25
      8.06      -0.19      -0.09
      8.34      -0.55       0.19
      7.92      -0.33       0.02
      7.59       0.53       0.77
      8.11       0.69       0.45
      8.00      -0.01      -0.05
      7.59      -0.33       0.21
      7.95       0.16      -0.09
      7.85       0.15      -0.29
      7.58       0.41      -0.75
      7.40       0.20      -0.24
      7.40       0.13       0.05
      7.17       0.90      -1.30
      7.48       0.60      -0.20
      8.11       1.04      -0.17
      8.31       0.67       0.16
      8.33       0.63       0.53
      9.02       0.69      -0.04
      9.03       0.48      -0.53
      9.00       1.12      -0.27
     10.02       1.09      -0.57
      8.82       0.10      -0.28
      7.70       0.19      -0.08
      7.33       0.68      -0.36
      7.35       0.12       0.04
      7.82       0.31       0.36
      7.43      -0.71      -0.46
      8.49      -0.25      -0.15
      8.35      -0.78       0.42
      7.49      -0.66       0.03
      6.71      -0.75      -0.01
      6.97      -0.53      -0.06
      6.88      -0.09       0.18
      8.51      -0.09      -0.49
      9.32      -1.22       0.10
      8.55      -0.81       0.14
      8.55       0.37       0.81
      8.93       0.07       0.09
      8.72       0.10      -0.73
      8.55       0.88      -0.96
      8.26       0.82      -0.47
      7.36       0.28      -0.02
      7.32       1.00       0.11
      7.61       0.76      -0.64
      8.22       1.07      -0.76
      7.55       1.04      -1.00
      7.79       1.17       0.58
      8.59       1.00       0.36
      8.30       1.46       0.18
      8.49       1.00       0.00
      9.24       1.35      -0.09
      8.91       0.88      -0.42
      8.78       0.88      -1.06
      8.32       1.02      -0.74
      9.21       0.89      -0.21
      9.02       0.27       0.75
      9.40       0.66       0.47
      9.57       0.33       0.13
     10.77       0.79       0.03
     10.30       1.33      -0.37
      9.46       1.52      -0.43
      9.62       1.74      -0.72
     10.03       1.12      -1.08
      9.48       0.80      -0.82
      9.40       1.26      -0.92
      8.44       1.13      -0.33
      8.62       0.74      -0.45
      8.74       0.49      -0.21
      8.99       0.13      -0.97
      8.79      -0.05      -0.37
      8.09      -0.22      -0.62
      8.44       0.69      -0.48
      9.50       0.94      -0.23
      8.19       0.42      -0.30
      8.32      -0.11      -0.44
      8.13      -0.39       0.14
      7.46      -0.64      -0.11
      6.97       0.09       0.69
      6.28      -0.52       0.02
      6.94      -0.63      -0.23
      7.62      -0.31       0.02
      7.23       0.10       0.14
      7.75       0.75      -0.12
      7.48      -0.67       0.43
      7.09      -0.19      -0.04
      7.75       0.41       0.08
      7.83      -0.44      -0.01
      7.11      -0.22      -0.19
      7.33      -0.41       0.08
      7.09       0.53      -0.64
      7.62      -0.48      -0.37
      8.11      -0.92      -0.48
      7.39      -1.09      -0.94
      7.61      -1.29      -1.28
      7.80      -0.36      -0.41
      7.63      -0.04      -0.59
      8.06       0.42      -0.32
      8.20       0.53      -0.42
      8.85       0.14       0.12
      9.17       1.21      -0.32
      8.92       0.30      -0.28
      8.48       0.87      -0.54
      8.34       1.14      -1.10
      7.79       1.23      -0.50
      8.63       0.26      -0.48
      8.36      -0.35      -0.45
      7.98       0.08       0.14
      8.22       0.72       0.51
      8.72      -0.02      -0.11
      8.69      -0.33       0.16
      8.45      -1.17       0.51
      8.29      -1.09       0.93
      7.37      -0.57       0.49
      8.08       0.37       0.17
      8.01       0.45       0.23
      8.12      -0.04       0.04
      8.19       0.08       0.01
      7.99       0.62      -0.18
      8.48       0.66      -0.13
      8.28       0.27       0.47
      8.21      -0.43       0.54
      8.10      -0.01      -0.22
      7.09       1.20       0.21
      7.01       0.59       0.11
      6.84       0.08      -0.23
      7.49       0.05       0.01
      6.51       0.45       0.28
      7.21       0.20       1.25
      7.40       0.66       0.79
      7.54      -0.13       0.32
      7.29      -0.61       0.11
      6.22      -0.62       0.41
      7.14      -0.50       0.97
      7.64      -0.62       0.40
      8.74      -0.26       0.70
      8.68       0.22       0.18
      7.86       0.25      -0.26
      7.48       0.12       0.37
      6.76       0.26       0.29
      7.10      -0.43       0.62
      7.41      -0.82      -0.02
      8.17      -0.38      -0.28
      8.11      -0.77       1.01
      7.52      -1.47      -0.07
      8.33      -0.59       0.11
      8.13      -0.50      -0.07
      8.10      -0.10      -0.19
      7.98      -0.40       0.35
      7.90       0.01       0.30
      7.74       0.01       0.64
      7.47      -0.01       0.82
      7.90       0.77       0.81
      8.26      -0.01       0.32
      8.26      -0.48       0.20
      7.48      -0.34       0.13
      7.85      -0.91       0.64
      8.29      -0.38       0.68
      8.34      -0.39       0.61
      8.51      -0.04       0.10
      8.87      -0.15      -0.03
      8.36      -0.36       0.83
      9.04      -0.63       0.01
      8.08       0.45      -0.25
      7.86      -0.76      -0.33
      8.32      -0.20      -0.11
      7.80      -0.79      -0.13
      8.12       0.08      -0.44
      8.01       0.18       0.34
      8.14       0.35      -0.35
      7.55      -0.68      -0.14
      7.83      -0.89      -0.44
      7.18      -0.75      -0.08
      7.69      -0.86       0.04
      7.00      -1.02       0.52
      7.54      -1.14       0.53
      6.62      -1.23      -0.01
      7.04      -1.46      -0.15
      7.54      -1.11       0.13
      6.97      -1.12      -0.10
      7.04      -0.76      -0.24
      6.15      -0.30      -0.10
      5.28      -0.19       0.21
      6.40      -0.07       0.57
      6.63       0.47       0.59
      6.70       0.51       0.92
      7.13      -0.25       0.43
      7.19      -0.54       0.45
      7.03       0.30       0.56
      7.51      -0.52       0.52
      8.39      -0.53       0.18
      8.42      -0.65       0.35
      7.96      -1.14      -0.29
      7.90      -1.15      -0.30
      9.06      -0.61      -0.10
      9.43      -0.46      -0.24
      8.68       0.36      -0.69
      9.04       0.10      -1.00
      9.00      -0.13      -0.26
      8.73       0.12       0.03
      8.02      -0.46      -0.12
      8.07      -0.60       0.12
      7.53      -0.27       0.40
      7.87      -0.54       0.26
      8.36      -0.08       0.67
      7.08       0.35       0.15
      7.77       0.36       0.44
      8.03      -0.07       0.67
      7.72      -0.41       0.56
      7.78      -0.11       0.44
      8.27      -0.34       0.29
      7.79       0.45       0.20
      7.83       0.34      -0.37
      7.54       0.62      -0.03
      7.74       0.36       0.23
      7.14       0.24      -0.18
      7.88       0.05      -0.11
      7.99      -0.88       0.25
      8.08      -0.98       0.18
      7.97      -0.10      -0.12
      7.83      -0.80       0.15
      6.67      -0.34       1.04
      6.49      -0.22      -0.29
      7.31      -0.47      -0.25
      8.20      -0.61      -0.25
      8.64      -0.70       0.03
      8.90      -1.66       0.16
      8.56      -0.42       0.75
      8.70       0.10       0.85
      9.12      -0.19      -0.62
      8.82       0.87      -1.03
      8.71       0.62       0.19
      7.52       0.48       0.13
      7.48       0.51      -0.14
      7.73       0.55      -0.12
      8.11       0.85      -1.45
      7.33       1.18      -1.36
      7.65       0.87      -0.04
      8.30       0.91       0.10
      8.50       1.25       0.33
      8.45       0.83       0.06
      9.48       1.20      -0.38
      9.46       0.91      -0.50
      8.84       1.29      -0.74
      8.39       0.44      -0.59
      8.68       0.54      -0.30
      9.59       0.49      -0.02
      9.26       0.40       0.14
      9.72      -0.05       0.41
      9.74       0.64      -0.24
     10.99       0.93      -0.04
     10.08       0.96      -0.76
      9.40       1.85      -0.71
     10.25       0.94      -0.51
      9.60       0.79      -1.05
      9.45       1.33      -0.50
      8.88       1.37      -0.84
      9.59       1.32      -0.59
      9.18       0.57      -0.54
      8.85      -0.10      -0.95
      8.17       0.06      -0.64
      8.18       0.27      -0.73
      8.16       1.01      -0.57
      9.44       0.96      -0.44
      8.29       0.41      -0.07
      7.88      -0.18      -0.41
      8.18      -0.35      -0.43
      6.86      -0.48       0.19
      7.17       0.02       0.58
      6.63      -0.57       0.24
      6.90      -0.75      -0.21
      7.66      -0.55       0.28
      7.66      -0.23       0.09
      7.25       0.71       0.18
      7.46      -0.24       0.47
      6.98       0.16      -0.12
      7.69       0.52       0.05
      7.95      -0.19      -0.18
      7.83      -0.43      -0.00
      7.47       0.02      -0.19
      7.17       0.51      -0.87
      7.70      -0.31      -0.45
      7.62      -0.87      -0.20
      7.86      -1.05      -0.96
      7.42      -1.14      -0.77
      7.88      -0.38      -0.72
      8.00      -0.05      -0.37
      8.50       0.26      -0.64
      8.04       0.47      -0.36
      8.77       0.45       0.03
      8.60       0.98      -0.31
      9.12       0.45       0.19
      8.71       1.19      -0.29
      7.64       1.26      -1.20
      8.14       0.63      -0.20
      8.34       0.72      -0.43
      8.08      -0.29       0.31
      7.78       0.02      -0.55
      8.22       0.26       0.34
      8.70       0.57      -0.40
      8.22       0.09       0.48
      8.04      -0.85       0.65
      7.77      -1.01       0.87
      7.99      -0.71       0.69
      7.81      -0.42       0.05
      8.36       0.18      -0.01
      8.62      -0.25       0.39
      7.82      -0.30       0.33
      8.00       0.57      -0.17
      8.18       0.88      -0.48
      8.56       0.19      -0.04
      7.91       0.22      -0.04
      7.68       0.16      -0.11
      7.32       0.81       0.04
      7.34       0.49       0.58
      6.57       0.63       0.04
      7.67      -0.20       0.01
      6.97       0.20      -0.05
      6.98       0.54       0.82
      7.74       0.49       0.41
      7.91       0.24       0.24
      7.66      -0.03      -0.09
      6.83      -1.00       0.38
      7.41      -0.35       0.59
      6.96      -0.10       0.91
      8.09      -0.92       0.44
      8.77      -0.11       0.88
      8.10       0.36      -0.15
      7.79      -0.44       0.16
      7.27       0.29       0.41
      6.71      -0.04       0.66
      7.39      -0.18      -0.13
      7.68      -0.11       0.17
      8.37      -0.92       0.86
      7.45      -0.85       0.08
      8.27      -1.23      -0.10
      8.07      -0.18       0.45
      8.83      -0.40      -0.24
      7.51      -0.01       0.42
      8.06       0.32       0.80
      7.89       0.00       0.43
      7.84       0.01       0.72
      7.56      -0.04       1.05
      8.23       0.41       0.26
      8.49      -0.02       0.50
      8.50      -0.50       0.55
      8.02      -0.99      -0.27
      8.21      -0.43       1.16
      8.59      -0.68       0.31
      8.35      -0.03       0.51
      8.73       0.12       0.24
      8.58      -0.06       0.25
      9.10      -0.29      -0.13
      8.53       0.73      -0.27
      8.51      -0.66      -0.44
      8.13      -0.34       0.22
      7.89      -0.57       0.74
      8.75       0.18      -0.50
      7.65      -0.03       0.03
      8.24       0.35       0.04
      7.47       0.05      -0.28
      7.49      -0.99      -0.19
      7.41      -0.92      -0.11
      7.63      -0.73      -0.35
      7.71      -1.11       0.36
      7.18      -1.37       0.15
      7.25      -1.61       0.25
      7.07      -1.27      -0.29
      7.22      -1.03       0.12
      6.69      -1.45      -0.38
      6.81      -0.64      -0.53
      6.23      -0.29      -0.39
      5.80      -0.20      -0.27
      6.12      -0.28       0.54
      6.85       0.97       0.10
      6.56       0.01       1.01
      6.41      -0.34       0.67
      7.26      -0.64       0.55
      7.29       0.03       0.20
      7.21       0.17       0.35
      7.73      -0.37       0.00
      8.00      -0.60      -0.05
      7.87      -1.33       0.18
      7.92      -0.84      -0.28
      8.47      -1.02      -0.18
      8.80      -0.86       0.07
      8.86      -0.51      -0.53
      8.59       0.38      -0.54
      9.51       0.13      -0.17
      9.08      -0.19       0.22
      8.40       0.28       0.15
      8.35      -0.59      -0.17
      7.36       0.11       0.43
      7.36      -0.71       0.37
      7.93      -0.06       0.32
      7.63       0.51      -0.41
      7.45       0.55       0.14
      7.89       0.11       0.89
      7.74       0.06       0.46
      7.47      -0.19      -0.16
      8.39       0.02      -0.01
      8.16      -0.04       0.05
      7.16       0.76      -0.15
      8.28       0.29      -0.12
      7.59       0.20       0.02
      7.52       0.59       0.16
      7.59       0.60      -0.31
      7.91       0.01      -0.09
      7.53      -0.85       0.30
      8.08      -0.25      -0.04
      8.53      -0.91       0.30
      7.42      -0.58       0.12
      6.04      -0.42       0.04
      6.87      -0.31      -0.31
      7.41       0.10      -0.18
      8.32      -0.10      -0.25
      9.07      -1.28       0.30
      8.68      -0.73       0.17
      8.62       0.39       0.99
      8.65      -0.30      -0.40
      8.93       0.41      -0.92
      8.78       1.04      -0.43
      7.92       1.09      -0.23
      7.42       0.80       0.32
      7.74       0.60       0.04
      7.72       0.78      -1.22
      8.21       1.07      -1.20
      7.40       1.09      -0.22
      8.35       1.26       0.49
      8.44       1.33      -0.05
      7.86       0.62       0.12
      8.85       1.41      -0.13
      9.09       1.16      -0.28
      8.95       1.13      -0.57
      8.72       0.60      -0.75
      8.44       0.74      -0.79
      7.51       0.77       0.07
      7.57       0.69      -0.04
      7.05       0.26       0.41
      7.82       0.79      -0.05
      8.35      -0.09       0.54
      8.90       0.19       0.18
      8.62       0.35       0.51
      8.33      -0.69       0.49
      8.51      -0.26      -0.07
      7.74      -0.25       0.03
      7.35      -0.29      -0.20
      8.69       0.28       0.70
      8.65       0.44       0.21
      8.62       0.10      -0.40
      8.37       0.57      -0.22
      9.08       0.15      -0.13
      8.96       0.43      -0.46
      9.36       0.16      -0.73
      8.78      -0.07      -0.43
      9.21       0.21      -0.02
      8.81       0.67      -0.09
      8.37       0.70       0.12
      9.06       0.84      -0.53
      9.02       1.35      -0.56
      9.40       1.32       0.08
      8.96       0.43       0.14
      8.82      -0.29       0.64
      8.94       0.78       0.16
      9.24       0.68      -0.56
      8.81       0.62       0.43
      9.05       0.64      -0.24
      8.98       0.57      -0.45
      9.03       0.21      -0.71
      8.01       1.07      -0.74
      8.08       0.64      -0.90
      7.74       0.65      -0.21
      9.26      -0.39      -1.40
      8.89       1.08       0.39
      9.04       0.52      -0.31
      9.04       0.37      -0.91
      8.18       0.81      -0.16
      8.42       0.91      -0.53
      8.22       0.93      -0.76
      8.20       0.94      -0.32
      8.32       0.68      -0.67
      8.96       0.68      -0.43
      9.69       0.36       0.16
      9.03       0.85      -0.40
      8.77       0.36      -0.60
      8.86       0.51      -0.32
      8.12       0.38      -1.23
      8.45      -0.56      -0.29
      7.66      -0.50       0.11
      7.60      -0.77      -0.08
      7.15      -0.82      -0.15
      7.98      -0.30      -0.01
      7.35      -0.96       0.29
      7.34      -0.55       0.34
      7.42      -0.86       0.16
      8.13      -0.96      -0.14
      8.33      -1.28      -0.39
      8.86      -1.24      -0.05
      7.97      -1.50      -0.41
      7.83      -0.69      -0.68
      8.29      -0.43      -0.41
      8.68       0.13      -0.32
      8.13       0.18       0.59
      7.33      -0.16       0.22
      8.00       0.12       0.46
      8.31       0.24      -0.29
      7.83      -0.47      -0.43
      7.54      -0.42      -0.55
      7.19      -0.23      -0.53
      7.61      -0.88      -0.91