# vtk DataFile Version 3.0
Low resolution, disturbed wind of YZ Slice at time = 6 seconds.
ASCII
DATASET STRUCTURED_POINTS
DIMENSIONS     1   101    35
ORIGIN    1882.00    -500.00       5.00
SPACING       9.71      10.00      10.00
POINT_DATA            3535
VECTORS DisYZ float
      6.14       0.17       0.44
      4.35       0.19      -0.49
      4.05       0.51      -0.41
      4.11       0.45       0.07
      3.77       0.37       0.48
      4.31       0.20      -0.18
      2.99       0.50       0.09
      2.83       0.74      -0.17
      3.52       0.35       0.09
      4.17      -0.16      -0.38
      4.67      -0.04       0.18
      5.60      -0.17      -0.40
      5.09       0.17      -0.04
      5.71       0.78       0.31
      5.52       0.34       0.32
      4.77      -0.07       0.19
      4.77      -0.57       0.11
      4.36       0.48       0.47
      3.81       0.99      -0.13
      4.30       0.51       0.09
      5.17       0.35       0.62
      5.61       0.27       0.02
      5.73      -0.45       0.04
      5.92      -0.38       0.24
      5.69      -0.36       0.19
      6.88       0.69       0.27
      6.57       1.24       0.71
      6.08      -0.25      -0.12
      5.87       0.17       0.09
      5.89       0.14      -0.15
      5.18       0.19      -0.03
      4.63      -0.40      -0.10
      5.75      -0.13       0.25
      4.51       0.44       0.02
      6.13       0.04      -0.14
      5.59       0.28      -0.28
      5.13       0.03      -0.18
      5.32       0.41      -0.35
      5.27      -0.00      -0.13
      4.34      -0.42       0.28
      4.98       0.01      -0.03
      4.29      -0.03      -0.21
      4.38      -0.28      -0.35
      3.08      -0.69      -0.62
      2.96      -0.51      -0.37
      3.95      -0.88       0.15
      3.31      -0.63      -0.08
      3.91      -1.14      -0.22
      3.84      -0.94      -0.28
      4.82      -0.76       0.01
      4.53       0.15      -0.50
      3.65      -0.38      -0.31
      3.57      -0.01      -0.04
      3.87      -0.17       0.28
      3.70      -0.52       0.02
      5.32      -0.56      -0.88
      5.19       0.48      -0.27
      4.99       0.48      -0.29
      4.61       1.39       0.39
      5.18       1.09       0.57
      4.15       1.28       0.14
      4.66       0.53       0.39
      4.34       1.10      -0.15
      3.04       0.52      -0.65
      2.37      -0.39      -0.53
      2.46       0.04       0.05
      3.09      -0.21       0.22
      3.75      -0.94       0.02
      2.93      -0.09      -0.10
      3.07       0.30       0.67
      3.45       0.51       0.25
      3.44       0.75      -0.12
      4.25       0.46      -0.20
      3.25       0.57      -0.01
      2.94       0.42      -0.11
      4.25       1.05       0.05
      5.08       0.05       0.18
      3.66      -0.05      -0.26
      3.65      -0.40      -0.08
      3.61       0.63      -0.22
      4.88       1.30       0.47
      3.89       0.50      -0.16
      4.10       0.36       0.34
      3.58      -0.61       0.28
      4.72      -0.58       0.03
      2.82      -0.73      -0.65
      3.35      -1.08      -0.31
      4.03      -0.30      -0.15
      3.80       0.21       0.06
      3.66       0.89       0.11
      3.62       0.61       0.66
      3.94       0.59       0.41
      3.34       0.74       0.20
      3.36      -0.21      -0.53
      3.16       0.21      -0.64
      3.75       0.57      -0.05
      3.92      -0.09      -0.42
      4.09       0.54       0.13
      3.27       0.56      -0.10
      3.91       0.38      -0.18
      4.03       0.90       0.55
      7.31       0.79       0.15
      6.39       0.68       0.12
      5.64       0.88       0.19
      4.75       0.05       0.08
      4.82       0.57      -0.24
      4.64       0.49      -0.58
      6.28       0.36       0.09
      5.21       0.54       0.01
      4.85       0.24      -0.38
      5.41       0.14       0.04
      5.89       0.00      -0.70
      5.91      -0.51       0.03
      6.03       0.28      -0.87
      6.38       0.88       0.10
      6.06       0.47      -0.74
      6.00       0.19      -0.27
      5.89       1.02      -0.27
      5.64       0.56      -0.16
      5.45       0.90      -0.38
      5.84      -0.36       0.72
      5.96       1.18      -0.35
      7.21       0.01       0.22
      6.51       0.48       0.13
      6.46       0.28      -0.22
      6.45       0.09       0.21
      7.06       0.59       0.30
      6.60       0.43      -0.44
      7.21      -0.26       0.11
      6.79      -0.08       0.10
      7.12       0.05       0.39
      6.35       0.15       0.30
      5.20       1.04      -0.30
      5.66       1.47      -0.14
      5.77       1.16       0.10
      6.82       1.16      -0.04
      7.21       0.78      -0.34
      6.79      -0.40       0.25
      6.18      -0.29       0.08
      5.02      -0.52      -0.15
      5.78      -0.46       0.25
      5.48      -0.15       0.23
      4.06      -0.08      -0.10
      4.68      -0.37      -0.05
      4.37      -0.51       0.14
      4.30      -0.90      -0.72
      4.53      -0.51       0.50
      4.66      -0.34      -0.44
      5.11      -0.80       0.15
      5.06      -0.69       0.58
      4.82      -0.81      -0.37
      5.50      -1.18       0.16
      5.56      -0.36       0.02
      6.31      -0.60       0.34
      5.04      -0.29      -0.14
      5.17      -0.75      -0.54
      5.43       0.25      -0.79
      6.18       0.21       0.57
      6.11       0.67       0.15
      5.68       0.17       0.08
      6.28       0.68       0.27
      4.79       1.17       0.03
      5.78       1.61      -0.38
      5.02       0.83      -0.44
      4.53      -0.16       0.38
      4.71       0.29      -0.06
      4.84      -0.02       0.25
      4.20       0.07      -0.04
      4.86       0.12       0.67
      4.41       0.76       0.37
      5.94       0.18       0.03
      4.25       0.29      -0.14
      4.18       1.26       0.47
      5.33       0.77      -0.04
      4.97       1.02       0.03
      5.00      -0.03      -0.35
      5.39       0.13       0.12
      5.37       0.11       0.03
      5.65       0.43       0.20
      4.59      -0.24      -0.11
      4.90       0.72      -0.21
      4.88       1.19      -0.58
      3.59       1.07       0.04
      5.21      -0.10       0.08
      5.57      -0.75      -0.51
      5.69      -0.29      -0.12
      5.31      -0.56      -1.09
      5.55      -0.98       0.19
      5.51      -0.44      -0.25
      4.62       0.46      -0.01
      5.39       0.89      -0.03
      4.66       0.78       0.07
      4.15       1.03       0.08
      4.71       0.31       0.17
      4.93       0.27       0.28
      4.33       0.38      -0.39
      4.58      -1.04      -0.44
      3.50      -0.24       0.03
      4.12      -0.12      -0.19
      3.95      -0.03      -0.38
      4.41       0.57       0.17
      5.78       0.10       0.19
      6.66       0.65       0.15
      7.93      -0.04       0.39
      5.57       0.65      -0.14
      5.65       0.64      -0.27
      6.31      -0.09      -0.65
      6.76       1.03      -0.04
      5.85       1.54       0.05
      5.77      -0.08      -0.33
      5.39       0.82      -0.60
      5.59      -0.01      -0.18
      6.38      -0.92       0.23
      6.75       0.97      -0.24
      7.25       0.47      -0.84
      6.87       0.81       0.59
      7.25       0.90       0.47
      8.05       0.32      -0.16
      7.67       0.67      -0.03
      7.15       0.65       0.27
      5.63       0.39       0.47
      6.93      -0.09       0.42
      6.48      -0.08       0.61
      6.00       0.30      -0.31
      6.46       0.46       0.33
      6.18      -0.19       0.19
      6.49      -0.13      -0.06
      8.59       0.45       0.22
      7.42       1.05       0.17
      8.69       0.50      -0.17
      7.72      -0.10      -0.52
      7.53       0.25      -0.55
      7.31       0.89       0.30
      7.24       1.70       0.33
      5.72       0.82      -0.18
      7.11       1.08       0.21
      5.70       0.33      -0.41
      7.11       0.60       0.74
      6.64       0.59       0.05
      6.01      -0.61      -0.35
      5.79      -0.08       0.28
      6.41       0.49      -0.03
      5.92       0.18       0.56
      5.50       0.10      -0.01
      4.61       0.07       0.03
      5.64       0.01       0.05
      5.74      -0.48       0.54
      5.40       0.28       0.49
      5.73      -0.81       0.62
      5.64      -0.67      -0.31
      5.79      -0.67      -0.06
      5.75      -0.44      -0.35
      5.60       0.30       0.19
      7.03      -0.37      -0.46
      6.56      -0.50      -0.31
      6.11      -0.65      -0.19
      6.00      -0.71      -0.14
      6.14       0.34       0.23
      6.85       0.24       0.38
      7.01       0.45       0.01
      5.79       0.40      -0.19
      6.54       0.26       0.73
      6.91       0.67       0.17
      6.22       0.04      -0.36
      5.46       0.08      -0.49
      4.95       0.87      -0.12
      5.17       0.67      -0.31
      5.62      -0.04       0.62
      5.47       0.64      -0.17
      5.73       1.32       0.11
      5.72       0.09       0.33
      5.32       0.56       0.08
      5.98       0.49      -0.39
      6.97       0.34      -0.38
      6.06       0.06      -0.21
      6.48      -0.01      -0.39
      6.29       0.26      -0.37
      6.57       0.47       0.37
      5.69       0.30       0.38
      3.51       0.05       0.02
      4.83      -0.01      -0.30
      5.40       0.35      -0.55
      5.10       0.93       0.52
      5.50       0.45      -0.17
      5.09       0.53       0.26
      6.28       0.06      -0.38
      6.92       0.42      -0.47
      6.87      -0.33      -1.11
      5.29      -0.09      -0.28
      5.52      -0.25      -0.29
      5.30       0.51      -0.28
      4.88       0.11       0.35
      5.94       0.91      -0.86
      4.83       0.38      -0.80
      3.78      -0.78      -0.52
      5.04      -0.27      -0.66
      5.06      -0.03       0.09
      4.47      -0.57      -0.05
      4.58       0.33      -0.19
      5.70       0.23       0.38
      4.61       0.62      -0.40
      5.37       0.58      -0.33
      5.24       0.36       0.42
      7.65       0.74       0.12
      7.44       0.08       0.34
      5.99       1.10      -0.20
      6.00       0.30      -0.16
      5.14       0.89      -0.53
      7.63      -0.05      -0.17
      5.98      -0.41       0.13
      5.45       0.76      -0.15
      6.42       1.22      -0.00
      6.15       0.47      -0.48
      7.04       0.58      -0.01
      8.45       0.80       0.36
      7.93      -0.24      -0.26
      7.91       0.86      -0.51
      8.34       0.48      -0.36
      8.47      -0.35      -0.08
      8.25       0.04      -0.15
      8.15       0.21       0.65
      7.75       0.80      -0.22
      8.23       0.24       0.28
      8.34       0.08       0.71
      7.02       0.15      -0.48
      6.22       0.13      -0.39
      7.33       0.25      -0.07
      7.69       0.13       0.02
      8.69       0.99      -0.11
      8.60       0.67      -1.09
      8.46       0.06       0.16
      7.17       1.13      -0.46
      7.17       0.88      -0.65
      6.50       0.91      -0.49
      6.56       2.14      -0.29
      6.35       1.03       0.55
      6.52       1.42       0.18
      5.98       1.36       0.40
      7.46       0.20       0.41
      7.01       0.80      -0.00
      6.29       0.23       0.01
      6.29       0.62      -0.21
      6.99      -0.36      -0.09
      6.91       0.31       0.06
      6.96       0.67      -0.01
      6.50       0.17      -0.60
      5.26      -0.46       0.85
      4.81      -0.49       0.38
      4.76       0.43      -0.23
      7.45      -0.67      -0.01
      6.08      -1.02       0.06
      5.36      -0.13       0.15
      5.94       0.28       0.10
      6.17      -0.73      -0.61
      6.75      -0.67      -0.50
      6.69      -0.80      -0.48
      6.23      -0.03      -1.25
      7.14       0.38      -0.74
      6.54      -0.07      -0.46
      6.87       1.01       0.27
      7.00       0.86      -0.03
      7.10      -0.22      -0.19
      7.38       1.17       0.39
      6.41       0.05      -0.25
      6.05       0.26       0.07
      6.40      -0.27      -0.78
      5.66       0.33      -0.37
      6.49       0.45       0.53
      6.23      -0.00       0.40
      4.82       0.50      -0.17
      5.26       0.55       0.04
      5.57       0.38      -0.24
      5.53       0.78      -0.00
      6.22       0.95       0.08
      6.32       0.36       0.39
      6.60       1.07      -0.15
      6.29      -0.02      -0.42
      5.99       0.08      -0.35
      5.84       0.01       0.42
      5.90      -0.19       0.62
      5.19       0.48       0.65
      5.66      -0.21       0.25
      5.59       0.36      -0.96
      6.19       0.07      -0.01
      6.39       0.01      -0.05
      6.50       0.30       0.45
      7.68      -0.64      -0.45
      7.30       0.71      -0.01
      7.44      -0.48      -0.74
      6.37      -0.88       0.30
      6.31      -0.44       0.13
      5.60       0.53       0.46
      6.23      -1.22      -0.32
      5.99       0.00      -0.08
      6.01      -0.11      -0.26
      5.10      -0.57      -0.16
      6.32      -0.83      -0.00
      5.14       0.40       0.03
      5.02       0.68      -0.37
      6.23       0.48       0.10
      5.42       1.39       0.19
      5.53       0.99      -0.24
      6.53       0.04       0.62
      7.23       0.36       0.19
      7.73      -0.08      -0.16
      8.49      -0.57       0.07
      7.42      -0.29      -0.17
      6.23       0.51       0.23
      7.48       1.44      -0.34
      7.51       0.45      -0.11
      5.94       0.22      -0.76
      6.98       0.14      -0.12
      7.00       0.60       0.05
      6.61       0.66      -0.09
      6.60      -0.56      -0.59
      8.12       0.84      -0.35
      8.77       0.13       0.19
      8.21      -0.09      -0.02
      8.88       0.80      -0.20
      9.12       0.88      -0.08
      9.09       0.49       0.01
      9.13      -0.32      -0.80
      7.65       0.11       0.49
      8.19      -0.35       0.12
      8.57      -0.73      -0.08
      8.40      -0.41      -0.52
      8.05      -0.82       0.49
      7.64       0.13       0.14
      7.74      -0.23       0.36
      8.74       0.43       0.28
      8.46       0.85      -0.01
      7.30       0.75      -0.18
      7.45       0.83      -0.08
      6.88       0.08      -1.07
      7.01       0.50      -0.77
      8.25       2.18      -0.10
      7.22       0.98      -0.38
      6.65       0.39      -0.29
      6.82       0.16      -0.22
      6.87       0.49       0.63
      7.21       0.58       0.38
      7.16      -0.02       0.67
      6.88       0.73       0.34
      8.01       0.71       0.09
      7.32       1.41      -0.24
      6.92       1.21       0.12
      6.00       0.16       0.18
      5.74       0.13       0.13
      5.95       0.23      -0.01
      7.04       0.08       0.05
      6.09       0.57      -0.24
      6.10      -0.57      -0.22
      6.71      -0.22      -0.13
      5.76       0.18      -0.70
      6.36      -0.47      -0.56
      6.49      -0.25       0.07
      6.53      -0.10      -0.85
      6.93       0.47      -0.27
      7.41      -0.24       0.26
      7.52       0.10       0.24
      6.30       0.23      -0.08
      7.09       0.76      -0.54
      6.78       0.87       0.26
      6.07       0.88      -0.37
      6.41       0.04      -0.66
      6.49       0.21      -0.35
      5.16      -0.59       0.22
      5.06       0.08      -1.03
      6.42       0.17      -0.55
      5.33       0.60      -0.10
      5.73      -0.09       0.20
      5.93       0.13       0.23
      5.90       0.17      -0.07
      6.23       1.07      -0.17
      6.24       0.65       0.45
      5.95       0.32       0.37
      6.57       0.67      -0.89
      7.01      -0.34      -0.37
      6.43       0.09      -0.24
      7.02       0.75      -0.25
      5.59       0.47      -0.01
      5.85      -0.25       0.38
      4.99      -0.09       0.28
      5.45      -0.56      -0.46
      6.06      -0.90       0.03
      6.29      -0.76      -0.53
      6.56      -0.10       0.48
      7.74      -0.50       0.97
      8.02       0.06      -0.10
      7.90      -0.05      -0.19
      6.87       0.01       0.65
      5.90      -0.56      -0.19
      6.46      -0.13       0.96
      5.75      -0.72      -0.83
      6.54      -0.65      -0.35
      6.38      -0.69       0.70
      5.77      -0.13       0.12
      6.04       0.23      -0.18
      5.60       0.90      -0.28
      4.29       0.62      -0.30
      5.88       0.17      -0.55
      5.74       0.55      -0.36
      6.24      -0.10       0.00
      6.07      -0.30      -0.50
      6.98      -0.52       0.32
      7.79      -0.57      -0.26
      8.46      -1.03      -0.21
      7.30       0.02      -0.46
      7.37       0.48      -0.09
      7.49       0.79      -0.24
      7.15      -0.03      -0.10
      7.73       0.83      -0.52
      7.44       0.81       0.11
      7.61       0.06      -0.10
      7.37       1.19      -0.42
      7.20       0.18      -0.44
      9.08       0.30      -0.01
      9.49       1.03      -0.09
      9.24       0.22       0.10
      9.18       0.59      -0.67
     10.16       1.13      -0.14
      9.96       0.47      -0.01
      8.39       0.41      -0.06
      7.74      -0.90      -0.23
      7.84      -1.03       0.04
      8.91      -0.54      -0.44
      8.90      -0.35      -0.05
      9.57      -0.21      -0.06
      8.57       0.31       0.33
      8.41       1.38       0.15
      8.33       0.46      -0.11
      9.60       1.10      -1.12
      8.07       1.10      -0.93
      6.92      -0.23      -0.31
      7.91      -0.23      -0.18
      6.99      -0.82      -0.68
      6.79      -0.19      -0.33
      7.27       0.11      -0.13
      7.64      -0.84      -0.07
      7.61       0.92       0.36
      7.36       0.89       0.41
      7.44       0.93       0.54
      8.34       0.99       0.61
      8.00       1.30       0.82
      7.43       1.10       0.57
      7.43       0.50       0.57
      6.37       0.34       0.66
      5.60       0.83       0.21
      6.46       0.57      -0.32
      7.12      -0.63       0.22
      6.89       0.83      -0.25
      6.79      -0.64      -0.52
      6.48      -0.03      -0.32
      7.61      -1.02       0.33
      7.08       0.52      -0.15
      6.24      -0.06      -0.44
      5.93       0.24      -0.06
      6.36      -0.08      -0.18
      6.73       0.22      -0.61
      7.24       0.06       0.06
      6.72      -0.33      -0.15
      6.66      -0.37      -0.14
      7.64       0.47      -0.39
      6.53       1.12       0.22
      6.73       0.37       0.07
      5.51       1.21       0.49
      5.93       0.55      -0.25
      5.86      -0.57      -0.66
      5.45       0.37      -0.19
      5.92      -0.12       0.01
      6.49       1.04      -0.40
      6.12       0.18      -0.26
      6.46      -1.33      -0.26
      5.07       0.43       0.26
      5.47       1.01       0.10
      5.37      -0.35      -0.63
      6.59      -0.84      -0.37
      6.26       0.15       0.28
      6.77      -0.08      -0.17
      7.46      -0.58       0.06
      7.06      -0.10      -0.32
      6.64      -0.68       0.99
      6.20      -0.61      -0.20
      5.52      -1.42       0.03
      6.87      -0.41       0.38
      6.17      -0.48      -0.24
      6.51      -1.12      -0.23
      5.61       0.36       0.02
      7.49      -0.52       0.16
      6.80      -0.19      -0.29
      6.95      -0.67       0.08
      6.13      -0.77      -0.17
      6.98      -1.38      -0.20
      6.00      -0.28      -0.10
      5.39       0.09      -0.68
      6.02      -0.13      -1.14
      5.99       0.66      -0.56
      6.47       0.63       0.47
      6.58      -0.19      -0.40
      6.61       0.39      -0.47
      5.25       0.42       0.03
      5.47      -0.12       0.14
      5.85       0.43      -0.06
      6.03      -0.43      -0.05
      5.95      -0.56      -0.04
      6.83      -0.46       0.11
      7.99       0.47       0.47
      8.32       0.11      -0.21
      7.90      -0.75       0.09
      7.09       0.46      -0.06
      8.75       1.33       0.64
      7.80       0.75       0.12
      8.71       0.26      -0.61
      7.83      -0.09       0.14
      7.73       0.53       0.36
      7.62       0.60      -0.06
      7.39       0.95      -0.21
      7.84      -0.24      -0.66
      8.96       0.56       0.28
      9.86       0.01       0.32
     10.04       0.41      -0.10
     10.08       0.78       0.13
      9.77       0.18      -0.15
      8.15       0.26      -0.05
      7.86       0.29       0.03
      9.20      -0.11       0.06
      9.86       0.00      -0.10
      9.75       0.69      -0.30
     10.07       0.65       0.03
      9.69       0.80       0.27
      9.75       0.05       0.63
      8.60       0.71       0.20
      9.57       0.11      -0.46
      8.67       0.17      -0.69
      7.30      -0.83      -1.56
      6.83       0.14       0.20
      7.52       0.20      -0.58
      7.06      -0.40      -0.20
      7.47       0.64      -0.12
      7.60       0.41      -0.14
      7.70       1.52      -0.14
      7.58       0.83       0.35
      8.47       0.17       0.12
      8.43      -0.16       0.65
      7.04       0.83      -0.30
      6.06       0.70       0.66
      6.74       0.27       0.88
      5.13       0.29       0.75
      5.22       0.56       0.41
      6.19       0.17      -0.04
      5.80      -0.25      -0.11
      7.03      -0.82      -0.24
      6.28      -0.36       0.16
      6.17       0.38       0.09
      5.80      -0.71      -0.20
      7.57      -0.16      -0.05
      6.48       0.09      -0.46
      5.96       0.06      -1.07
      6.28       0.57       0.02
      6.66       0.11      -0.19
      6.98       0.66      -0.02
      6.75       0.07      -0.85
      8.23      -0.76      -0.12
      8.59      -0.85      -0.71
      7.21      -0.30      -0.35
      7.14       0.14      -0.05
      6.77       0.59      -0.19
      6.64       0.11       0.14
      7.06      -0.14      -0.10
      6.22       0.00      -0.65
      7.17      -0.43      -0.21
      6.29      -0.04      -0.23
      5.91      -0.03       0.22
      5.91      -1.15      -0.35
      5.96      -0.52      -0.31
      7.17      -0.49       0.42
      6.95      -1.23       0.06
      6.00      -0.35       0.28
      7.17      -0.94       0.02
      8.42      -0.42       0.60
      7.96       0.19       0.31
      7.98      -0.57       0.61
      8.03      -0.87       0.75
      6.97      -0.84       0.66
      6.44      -0.67       0.39
      6.22      -0.19       0.95
      6.25      -0.58       0.38
      5.88      -0.26      -0.03
      5.99      -0.09       0.27
      7.78      -0.82       0.73
      7.54      -0.87      -0.45
      6.82      -0.94       0.21
      6.16       0.47      -0.52
      6.75       0.46      -0.23
      5.73       0.45      -0.69
      6.79      -0.24      -0.70
      5.55       0.27      -1.21
      5.94       1.25      -0.67
      6.43       0.60      -0.77
      6.13      -0.19      -0.10
      5.90       0.18       0.38
      5.91      -0.33       0.40
      6.14       0.44       0.33
      6.54       0.55      -0.35
      5.92       0.10      -0.22
      6.60       0.04      -0.22
      7.32       0.10      -0.22
      7.53       0.09      -0.04
      8.68       0.26      -0.23
      7.52       0.05      -0.30
      7.91      -0.15      -0.25
      8.43       0.45      -0.04
      8.21       1.44       0.47
      8.41       0.54      -0.12
      7.66       0.53      -0.25
      7.99       0.59       0.68
      9.12       1.16      -0.10
      7.39       0.01      -0.55
      8.40       0.16      -0.99
      8.47       0.51      -0.44
      9.57       1.05      -0.30
      9.52       1.13      -0.51
      8.81       0.87       0.11
      8.84      -0.09       0.27
      8.18       0.28       0.18
      8.91       0.40      -0.05
      8.53       0.82       0.08
      9.72       0.69       0.97
     10.33      -0.48       0.06
     11.09      -0.73      -0.45
      9.97      -0.74       0.07
      9.01       0.30      -0.24
      8.27       0.56      -0.26
      7.98       0.08      -0.93
      8.59       0.18      -0.77
      8.25       0.59      -0.09
      6.88       0.08       0.15
      6.69       0.43       0.01
      7.40       0.33      -0.91
      7.97       0.52      -0.11
      8.17       0.03      -0.31
      8.41      -0.14      -0.18
      7.32       0.88       0.31
      7.63       1.29       0.27
      7.92       1.48       0.18
      7.67       0.78       0.27
      7.25       0.60       0.83
      6.16       0.48      -0.07
      5.93       0.53      -0.07
      5.40       0.57       0.12
      5.16       0.60       0.11
      5.51      -0.30      -0.33
      7.02       0.14      -0.20
      6.92      -0.12       0.45
      7.03       0.66      -0.40
      6.23       0.03      -0.38
      6.80       0.11      -0.63
      6.19       1.00      -0.77
      6.77       0.71      -0.43
      7.00       0.54      -0.33
      8.30       0.13      -0.53
      8.26       0.21      -0.37
      6.99      -0.13      -0.19
      8.08       0.01      -0.50
      8.68      -0.30       0.15
      7.23      -0.81      -0.57
      6.69      -0.27      -0.15
      8.15       0.32      -0.47
      8.42       0.17       0.11
      8.59      -0.04       0.66
      7.39       0.36      -0.37
      6.48      -0.29      -0.93
      7.04       0.25      -0.44
      6.97      -0.35      -0.64
      5.58      -0.42      -0.46
      5.94      -0.61      -0.90
      6.82      -0.64      -0.28
      7.54      -0.62      -0.14
      7.20      -0.94       0.44
      7.52      -1.21       0.51
      8.89      -0.86       0.08
      8.39      -0.04      -0.10
      7.45      -0.69       0.39
      7.38      -0.68       0.89
      8.19      -0.86       0.05
      7.81      -0.70      -0.01
      7.55      -0.73       0.45
      6.52      -0.66       0.13
      7.18      -0.94       0.39
      6.93      -0.91       0.73
      6.46      -0.03       0.49
      7.81      -0.07      -0.19
      6.89      -0.40       0.23
      6.84       0.35       0.06
      7.48       0.17       0.39
      6.95       0.25       0.55
      6.99       0.22      -0.14
      6.61       0.40      -0.32
      6.21       0.64       0.29
      7.39       0.15       0.04
      6.56      -0.08      -0.24
      5.26       0.01      -0.07
      6.34      -0.32       0.36
      6.63       0.00       0.26
      6.54       0.00       0.07
      7.86       0.34       0.34
      6.96       1.19       0.40
      6.31       0.38      -0.01
      7.84       0.57       0.33
      8.86       0.38       1.08
      8.88       0.88      -0.05
      8.50       0.57       0.03
      8.35       0.25      -0.31
      7.60       0.63       0.57
      8.73       0.46       0.39
      9.12       0.76       0.60
      9.86      -0.24       0.56
      9.22       0.38      -0.40
      9.29       0.51      -0.71
      8.86       0.39      -0.79
     10.02       0.92      -0.30
      9.26       0.45       0.15
      8.89       1.16       0.50
      8.96       1.26       0.06
      9.16       0.81       0.08
     10.02       0.66      -0.00
      9.17       0.73       0.54
      9.49      -0.28       0.26
      9.81       0.13       0.28
     10.48      -0.78       0.17
     10.34      -0.77       0.21
     10.02       0.30      -0.31
      9.24       0.44      -0.44
      8.60       0.24      -0.21
      7.53       0.30      -0.63
      8.27       0.35      -0.06
      7.56      -0.23      -0.23
      7.27       0.22       0.17
      7.47       0.43      -0.03
      6.50       0.59       0.09
      7.34       0.52      -0.11
      7.76       0.16      -0.02
      9.28       0.05       0.35
      7.73       1.51      -0.41
      8.59       1.29       0.20
      8.05       0.85      -0.37
      7.93       0.79       0.19
      8.34       1.12       0.11
      6.82       0.62       0.70
      5.76       1.30      -0.03
      5.57       0.84       0.56
      5.47       0.73       1.14
      6.75       0.39       0.26
      6.79       0.55       0.29
      7.57       0.02      -0.19
      7.18       1.02       0.19
      7.21       0.86      -0.36
      7.08       1.23      -1.13
      7.65       1.03      -0.69
      7.22       0.97      -0.96
      8.70       1.20      -0.98
      9.43       0.89      -0.89
      9.52      -0.55      -0.67
      8.23      -0.99       0.05
      8.26      -0.38      -0.38
      8.44      -0.80      -0.65
      7.32      -0.94      -0.02
      7.27       0.20      -0.92
      7.13       0.87       0.16
      7.33       0.73      -0.01
      7.91       0.13       0.45
      7.70       0.04      -0.27
      7.81      -0.23      -0.22
      7.63       0.01      -0.50
      6.41       0.69      -0.09
      6.29      -0.66      -0.62
      7.08      -1.01      -0.12
      8.70      -0.30       0.25
      7.58      -1.14      -0.10
      8.94      -1.76       0.37
      8.19      -1.21       0.74
      9.75      -1.49       0.12
      8.21      -1.02       0.60
      8.51      -0.70      -0.24
      8.55      -0.41       0.21
      8.54      -0.68       0.60
      7.35      -0.64       0.67
      7.66      -0.91      -0.09
      6.43      -1.26       0.04
      7.22      -0.54       0.50
      6.86      -0.52       0.33
      7.70       0.41       0.21
      8.48       0.53      -0.37
      7.52       0.96      -0.06
      7.19       0.64      -0.21
      7.15       0.94      -0.16
      7.07       0.07       0.03
      7.11       0.12      -0.12
      6.48       0.16       0.60
      8.04       0.62      -0.43