# vtk DataFile Version 3.0
Low resolution, disturbed wind of YZ Slice at time = 6 seconds.
ASCII
DATASET STRUCTURED_POINTS
DIMENSIONS     1   101    35
ORIGIN    1504.00    -500.00       5.00
SPACING       9.71      10.00      10.00
POINT_DATA            3535
VECTORS DisYZ float
      4.54       1.88      -0.74
      5.36       1.19      -0.06
      4.82       0.74      -0.10
      4.05       0.55       0.49
      4.42       0.15       0.45
      4.30       0.45      -0.58
      3.44       0.40      -0.17
      5.26      -0.28       0.02
      3.73       0.03      -0.38
      4.05       0.32       0.15
      3.06      -0.21       0.36
      3.60      -0.19      -0.07
      4.80      -0.29      -0.05
      3.76      -1.21       0.58
      3.99      -1.55       0.78
      5.45      -1.22       0.95
      5.56      -1.20       0.24
      5.84      -1.44       0.65
      6.01      -1.80       0.31
      5.98      -1.36       0.37
      5.10      -0.62       0.87
      5.50      -0.77      -0.44
      5.65       0.23      -0.15
      5.58      -0.69       0.47
      4.21      -0.36       0.12
      2.78      -0.45      -0.22
      3.08       0.02      -0.56
      3.45      -0.31      -0.15
      3.89       0.42       0.15
      3.61      -0.48       0.05
      3.74      -0.19      -0.16
      3.48       0.03      -0.03
      2.76       0.02      -0.20
      3.77       0.58      -0.68
      4.53       0.45       0.43
      3.42       0.56       0.01
      3.26       0.92      -0.43
      3.34       0.49       0.28
      3.92       0.07      -0.03
      4.12      -0.30      -0.07
      4.35       0.53      -0.63
      2.19       0.69      -0.86
      2.20       0.03      -0.45
      3.08       0.85       0.63
      3.32      -0.03      -0.12
      3.06       0.14      -0.35
      2.60      -0.26      -0.11
      2.80       0.18       0.46
      2.54       0.98      -0.45
      2.27       0.60       0.54
      3.44       0.64       0.03
      2.64      -0.12       0.09
      2.31       0.49       0.42
      2.50       0.43      -0.15
      2.92       0.56       0.79
      2.59       0.52       0.58
      3.03       0.45      -0.19
      3.26       0.45       0.68
      2.66       0.12      -0.96
      4.45      -0.47       0.07
      3.96       0.19      -0.02
      5.37       0.15      -0.19
      5.26      -0.22       0.07
      4.03       0.46       0.52
      4.34       0.60       0.12
      5.66      -0.14      -0.36
      5.77      -0.45      -0.61
      6.45      -0.20       0.06
      6.30       0.17       0.31
      6.35      -0.06       0.31
      6.31       0.13       0.73
      6.73       0.29       0.08
      6.23       0.66       0.54
      5.77       0.35       0.21
      4.14       0.56      -0.10
      5.61       0.64       0.46
      4.64       0.89      -1.10
      3.70       0.25      -0.33
      3.78       0.08      -0.02
      3.99       0.50       0.31
      3.29       0.05      -0.61
      3.41      -0.44      -0.41
      4.60      -0.98      -0.10
      4.45      -0.23       0.15
      3.54       0.30      -0.45
      3.51       0.05      -0.70
      3.45      -0.07      -0.66
      3.60       0.45      -0.51
      4.56       0.68      -0.11
      4.88       0.34      -0.38
      4.79      -0.58      -0.13
      5.79       0.26      -0.13
      5.06       0.46      -0.16
      5.88       0.84       0.11
      4.68       0.71       0.20
      5.71      -0.02      -0.05
      5.15      -0.13       0.53
      5.06       0.63       0.39
      4.37      -0.43      -0.09
      3.90      -0.08       0.73
      4.16      -0.59       0.13
      5.48       1.60       0.28
      4.79       1.12       0.20
      5.49       0.17       0.54
      5.63       0.59       0.68
      5.08       0.88      -0.12
      5.56       0.30       0.27
      5.31       0.33      -0.25
      5.30       0.07      -0.45
      5.07      -0.27      -0.95
      6.21       0.53      -0.17
      6.27      -0.26       0.28
      5.95      -0.14       0.39
      5.71       0.20       0.23
      5.59      -0.51       0.31
      5.45      -1.43       0.29
      6.48      -0.90       0.64
      6.52      -0.97       0.41
      7.88      -1.23       0.89
      7.07      -0.89       0.15
      7.21      -1.51       1.00
      6.56      -1.83       0.86
      6.56      -0.63      -0.08
      6.65      -0.98      -0.42
      6.65      -0.26      -0.01
      4.83      -0.59       0.21
      5.50       0.18      -0.70
      4.85       0.62      -0.54
      4.39      -0.25      -0.43
      4.46      -0.49      -0.32
      4.70      -0.04       0.08
      5.04       0.41      -0.67
      5.29      -0.08       0.10
      4.15       0.57      -0.01
      5.65       0.28       0.36
      5.37       0.62       0.32
      4.15       1.46      -0.10
      5.34       0.90      -0.01
      4.11       0.83       0.18
      5.52       0.20       0.52
      4.22       0.27      -0.09
      4.29       0.02      -0.45
      4.68       0.97      -0.03
      3.93       0.34      -0.16
      4.65       0.01      -0.18
      4.07      -0.92      -0.39
      3.34      -0.41      -0.28
      2.72      -0.19       0.00
      2.77       1.08       0.33
      2.31       0.67       0.06
      3.89       1.24       0.27
      3.82      -0.38       0.64
      4.46      -0.47      -0.47
      2.22       0.59      -0.72
      4.05       0.76      -0.23
      4.44       0.08       0.63
      4.13       0.06      -0.08
      4.59       0.36       0.29
      4.19       0.78      -0.35
      4.02       0.53      -0.07
      4.64       0.26       0.11
      4.16       0.60       0.54
      5.14       0.44       0.73
      5.90      -0.59       1.11
      5.44       0.12       0.38
      5.59      -0.00      -0.30
      6.02       0.06      -0.23
      7.55       0.14       0.29
      7.78       0.28       0.16
      7.18      -0.38       0.53
      7.33      -0.94       0.56
      6.86       0.48       0.54
      7.26       0.12       0.57
      6.23       1.52       0.22
      5.42       0.67       0.04
      6.00       0.23      -0.55
      5.21       1.03       0.17
      5.49       0.27      -0.06
      5.15       0.38      -0.41
      5.22       0.02      -0.26
      4.53       0.01      -0.37
      4.13      -0.17       0.11
      4.76       0.10      -0.49
      4.88      -0.05       0.03
      5.24       0.38      -0.18
      4.08       0.89      -0.34
      3.62       0.01      -0.19
      4.46       0.54      -0.23
      5.66      -0.22       0.16
      5.65      -0.66       0.16
      5.32      -0.73       0.27
      5.56       0.71       0.08
      6.69       1.27       0.77
      6.58       0.76      -0.08
      7.65       0.79       0.07
      7.05       0.49       0.56
      6.16      -0.24       0.79
      5.36      -0.10       0.23
      5.59      -0.27       0.28
      5.06       0.54      -0.27
      5.46      -0.35       0.25
      5.12      -1.32       0.48
      7.16       0.12       0.16
      6.54       0.16      -0.50
      5.47       0.05      -0.23
      6.79      -0.37      -0.16
      5.31       0.05       0.29
      6.07       0.60      -0.30
      5.75      -0.59       0.21
      5.61      -0.02       0.13
      5.27       0.60      -0.49
      6.17       0.52       0.38
      6.63       0.06      -0.09
      6.85      -0.36       0.52
      7.56      -0.49      -0.59
      7.40      -0.99      -0.24
      6.22      -1.12      -0.07
      5.78      -0.42       0.24
      6.85       0.30       0.32
      7.03       0.32       0.22
      6.67      -0.45       0.29
      6.95      -0.59       0.84
      7.11      -0.90       0.51
      6.74      -0.36      -0.03
      6.87      -0.40      -0.84
      6.75      -0.52      -0.02
      6.94      -0.16       0.12
      5.80       0.04      -0.30
      6.16       0.36       0.31
      4.94       0.34      -0.62
      5.67      -0.44      -0.69
      5.23       0.47      -0.43
      5.94      -0.01      -0.36
      6.34       0.11      -0.83
      5.31      -0.18      -0.35
      6.77       0.44      -0.13
      5.80       0.24      -0.72
      5.96       1.10      -0.52
      5.23       0.67      -0.82
      4.54      -0.01       0.16
      4.63       0.53       0.11
      5.09       0.50      -0.09
      4.27       0.52      -0.53
      5.48       0.77       0.66
      4.86       0.51      -0.71
      5.02       0.23       0.61
      4.20      -0.77       0.57
      4.20      -0.57      -0.23
      3.58      -0.58      -0.07
      3.70       0.79       0.36
      3.42       0.33       1.12
      3.71      -1.14       0.47
      3.39      -0.50       0.45
      3.80      -0.60      -0.44
      2.36      -0.44      -0.53
      3.65      -0.13       0.32
      4.89       0.35       0.45
      5.08       0.59      -0.48
      5.37      -0.42      -1.13
      4.00       0.55      -0.17
      5.12       0.25       0.56
      5.47       0.22       1.00
      4.29       0.28       0.39
      5.77       0.04       0.02
      5.31       0.07       0.65
      5.78      -0.47       0.34
      6.16      -0.30      -0.16
      8.82       0.47      -0.71
      8.81       0.04      -0.35
      8.42      -0.92       0.06
      7.16      -0.31       0.63
      7.30      -0.25       0.59
      7.42       0.04      -0.12
      6.24      -0.24       0.13
      6.92       0.41      -0.15
      7.00       0.33      -0.39
      7.42       0.24      -0.58
      6.48       0.39       0.10
      6.42      -0.88      -0.39
      6.95       0.49      -0.46
      6.29       0.90      -0.83
      5.23      -0.74      -0.60
      5.43      -0.58      -0.49
      4.90      -0.76       0.16
      5.36      -0.69       0.23
      4.79      -0.70      -0.41
      5.41      -0.10       0.11
      4.89       0.50       0.42
      7.40       0.14       0.04
      6.32      -0.51      -0.51
      6.27       0.10       0.13
      6.56      -0.23       0.16
      6.88       0.37       0.64
      6.93       1.68      -0.12
      7.49       1.25       0.72
      6.85       1.20       0.31
      7.07       0.15       0.34
      6.30       0.71       0.35
      7.44       0.25      -0.17
      6.14      -0.73      -0.63
      6.05      -0.35      -0.47
      5.22       1.09      -0.04
      6.00      -0.36       0.49
      7.78      -0.43      -0.55
      6.48      -0.37       0.07
      7.07      -0.58       0.70
      7.79      -0.69      -0.25
      5.76      -0.45      -0.79
      6.59       0.55       0.33
      6.72      -0.31       0.81
      5.89       0.24       0.37
      5.68       0.01      -0.28
      6.28       0.92      -0.25
      6.33       0.10       0.45
      5.54       0.25       0.16
      7.47      -1.19      -0.77
      7.33      -1.16      -0.18
      8.40      -0.59      -0.12
      7.18       0.33      -0.38
      7.95      -0.57      -0.19
      7.54      -0.60       0.48
      8.25       0.48       0.63
      7.88      -0.17       0.24
      7.74       0.01      -0.66
      6.72       0.54       0.42
      7.37       0.36      -0.03
      6.75      -0.43      -0.48
      7.38       0.66      -0.21
      6.59      -0.66      -0.15
      5.91       0.02      -0.61
      5.55       1.06      -0.57
      6.32       0.57      -1.13
      6.38       0.72      -0.93
      6.21       0.65      -0.27
      6.79       0.10      -0.62
      6.16       0.19      -0.38
      6.44       0.92       0.04
      6.92      -0.08      -0.16
      5.61       0.64      -0.30
      5.03       0.37      -1.15
      5.50      -0.74      -0.07
      5.71       0.94       0.02
      5.91       1.24       0.27
      5.32       0.29       0.44
      4.65       1.01       0.33
      4.31      -0.54       0.11
      5.25       0.27       0.84
      5.64      -0.16       0.32
      5.13      -0.23      -0.73
      3.92      -0.16       0.02
      4.15      -0.04      -0.02
      3.92       0.01      -0.07
      4.06       0.20       0.19
      4.12      -0.33       0.01
      3.23      -0.16       0.33
      3.65      -1.36      -0.69
      2.72      -0.73       0.25
      4.48      -0.41      -0.11
      6.37       0.48       0.63
      4.60      -0.29      -0.06
      6.00      -0.34       0.35
      5.66       0.20       0.52
      5.23      -0.16       0.69
      5.24       0.13      -0.10
      6.01      -0.70       0.01
      5.03       0.49       0.32
      6.63      -0.48       0.44
      6.33       0.61       0.19
      7.80       0.06       0.01
      8.36      -0.77       0.08
      8.83       0.01       0.29
      7.47      -0.61       1.04
      7.31       0.09       0.51
      8.01       0.50       0.27
      8.52       1.10      -0.35
      6.94       0.30      -0.51
      7.13       0.07      -0.20
      7.48       0.87      -0.33
      7.33       0.24       0.22
      6.49       0.46      -0.25
      6.13       0.29      -1.31
      7.23       0.22      -1.07
      6.59       0.83      -0.97
      6.16      -0.36      -0.46
      6.14      -0.75      -0.37
      5.93      -1.16      -0.31
      5.39      -0.32      -0.15
      5.04       0.20      -0.13
      5.62       0.95       0.17
      6.62      -0.35      -0.25
      5.87       0.92      -0.33
      6.36      -0.38      -0.17
      5.69       0.56       0.26
      6.11       0.74       0.46
      6.79       0.97       0.90
      7.43       1.97       0.36
      7.93       1.10       0.18
      6.87       0.72       0.51
      6.98       0.72       0.39
      7.31      -0.10      -0.32
      6.91       0.56      -0.12
      6.63       0.71      -0.40
      6.77       0.55      -0.43
      5.91       0.57       0.36
      7.62       0.34      -0.37
      7.33       0.50      -0.04
      6.84      -0.88      -0.10
      7.40       0.70      -0.44
      7.48      -0.69      -0.04
      6.29      -0.92      -0.33
      6.61      -0.67       0.24
      6.56      -0.12       0.14
      6.34      -0.07       1.00
      6.63      -0.39      -0.14
      7.33      -0.28       0.10
      7.16      -0.01      -0.53
      7.01      -1.08      -0.23
      7.63      -0.80      -1.08
      8.37      -0.96      -0.45
      8.23       0.23       0.29
      8.89      -0.58       0.83
      7.38      -0.00      -0.14
      7.15       0.21      -0.20
      8.98      -0.18      -0.14
      7.44       0.71       0.30
      7.97       0.77       0.64
      7.60       0.43       0.59
      7.08      -0.11       0.12
      7.18      -0.48       0.02
      6.31      -0.03       0.56
      5.86       0.21      -1.17
      5.85       0.28      -0.29
      6.64       0.34      -0.57
      6.52       0.16      -0.55
      6.54       0.42      -0.49
      6.23       0.62      -0.15
      6.91       0.61      -0.01
      6.21       0.26      -0.60
      6.44       1.08      -0.52
      6.52      -0.44      -0.18
      5.57      -0.17      -0.91
      6.22      -0.10      -0.23
      6.17       0.17      -0.70
      6.25       0.91      -0.05
      5.07       0.26       0.35
      5.04       0.70      -0.31
      5.68       0.81       0.04
      5.72       0.35       0.53
      5.74       0.94       0.49
      4.88       0.48      -0.16
      5.32      -0.65      -0.15
      4.23       0.14      -0.52
      4.85      -0.32      -0.45
      3.96      -0.97       0.55
      4.26      -0.27       0.06
      5.09      -0.83       0.22
      4.31      -0.41       0.24
      4.20      -0.54      -0.40
      5.10      -0.29      -0.63
      5.60      -0.75      -0.72
      5.94      -0.01       0.01
      6.49       0.15      -0.05
      5.76      -1.17       0.03
      5.54      -0.97      -0.21
      5.47      -1.01       0.29
      6.17      -0.61       0.68
      6.36      -0.44       0.58
      6.20      -0.10       0.51
      6.50      -0.04      -0.38
      7.17       0.18      -0.16
      7.68       0.22      -0.04
      7.85      -0.36      -0.09
      7.31      -0.37       0.14
      7.20      -0.38       0.08
      9.31       0.23       0.28
      9.24       0.13       0.43
      7.72       0.91      -0.19
      7.23       0.53       0.58
      7.32      -0.24      -0.52
      6.94       0.56      -1.20
      7.38       0.19      -0.57
      7.44      -0.04      -0.09
      7.16       0.34      -1.22
      6.51       0.38      -0.76
      5.22       0.05      -0.51
      6.30      -1.10      -0.80
      6.66      -1.14       0.09
      6.51       0.11      -0.31
      5.97      -0.17       0.11
      5.94       0.43       0.24
      5.48      -0.92      -0.20
      5.80       0.04       0.25
      7.73       0.80       0.05
      7.40      -0.08       0.02
      5.97       0.68      -0.07
      6.96       0.60       0.51
      7.07       1.18      -0.32
      7.19       1.04      -0.24
      6.63       0.58       0.39
      6.99       0.24       0.49
      8.05       0.64       0.47
      7.62       1.00       0.03
      6.16      -0.02      -0.59
      6.95       0.62       0.33
      7.08       0.25       0.84
      6.99       0.67      -0.10
      6.80       0.44      -1.10
      6.06       0.22      -1.12
      6.26      -1.15      -0.74
      7.78      -0.03      -0.49
      7.18      -0.91      -0.32
      6.32      -0.00      -0.35
      5.89      -0.66       0.29
      6.82       0.06       0.53
      6.76       0.12       0.75
      7.40      -0.28       0.60
      6.80      -1.11      -0.25
      7.32      -1.61      -0.65
      7.95      -0.60      -0.47
      8.05       0.18      -0.61
      7.37      -0.54       0.04
      7.89      -0.83       0.44
      7.43      -1.43       0.62
      7.69      -0.75       0.67
      7.64      -0.09       0.10
      7.59      -0.66       0.62
      7.82      -0.37      -0.31
      7.71       0.29       0.75
      8.24       0.02       0.21
      7.91       0.22      -0.63
      7.21      -0.43      -0.06
      5.80       0.09      -0.13
      7.54      -0.47      -0.55
      7.13       0.58       0.17
      7.22       0.57      -0.25
      6.28       1.04      -0.83
      7.26      -0.66      -0.44
      7.74      -0.09      -0.29
      5.55       1.83      -0.75
      6.10       0.69      -0.62
      7.40       0.18       0.07
      7.61       0.01      -0.06
      6.68      -0.31      -0.85
      6.37       0.92      -0.39
      5.43      -0.10       0.01
      6.33       0.05      -0.46
      6.01       1.07      -0.19
      6.82       0.51      -0.26
      6.27       0.23       0.07
      5.90      -0.42      -0.43
      5.51       0.02      -0.45
      5.38      -0.22      -0.21
      6.00      -0.24      -0.24
      5.37       0.29      -0.93
      5.80       0.48       0.08
      4.41       0.47      -0.65
      5.46      -0.23       0.06
      4.26      -0.08       0.11
      5.38       0.17      -1.07
      5.76      -0.56      -0.47
      6.32      -0.74      -0.02
      6.01      -0.67      -0.56
      6.17      -0.55      -0.36
      6.61      -1.44       0.64
      7.18      -0.81       0.45
      6.67      -0.81       1.11
      6.14      -0.24       0.47
      6.99      -0.38       0.54
      7.39      -0.52       0.45
      6.63      -0.17      -0.44
      7.65       0.51       0.14
      6.76      -0.14       0.53
      6.75      -0.55       1.08
      6.50      -0.09       0.20
      7.54       0.25       0.08
      8.25       0.39       0.31
      9.30       1.02       0.44
      8.37       1.03      -0.08
      7.23       1.30      -0.42
      6.89      -0.48      -0.06
      6.64       0.70      -0.38
      6.62       1.39      -1.01
      7.15       1.36      -0.48
      7.34       0.97       0.06
      6.45       1.02      -0.19
      6.87       0.99      -0.45
      5.54       0.34      -0.36
      6.33       0.46       0.29
      5.42       0.44      -0.16
      5.46       0.17       0.30
      7.00      -0.16      -0.06
      6.52       0.23      -0.09
      6.85       0.37       0.00
      7.42       0.02       0.36
      6.47      -0.00       0.37
      6.50       0.34      -0.32
      6.75       1.00       0.36
      6.66       0.89       0.73
      8.45       1.06       0.23
      7.50       0.28       0.42
      8.01       0.65       0.10
      6.97       0.40      -0.30
      7.78       0.55      -0.27
      7.01       0.69       0.37
      6.55       0.35       0.91
      7.46       0.09       1.17
      7.35      -0.19       0.34
      7.64      -0.04       0.24
      6.34      -0.33      -0.22
      6.40       0.77      -0.50
      7.93      -0.75       0.04
      7.62      -1.14      -0.23
      7.05      -0.30      -0.27
      7.23      -0.25       0.54
      6.83       0.40       0.05
      6.47      -0.39       0.00
      6.62      -1.13       0.06
      6.79      -1.24      -0.16
      6.48      -1.02      -0.32
      7.67      -0.63      -0.60
      6.48      -0.22      -0.21
      8.49      -0.42       0.05
      7.33      -1.05       0.11
      7.63      -1.16       0.49
      7.39      -0.30       0.66
      7.19      -1.19      -0.14
      5.80      -1.09      -0.53
      8.28      -0.60       0.20
      7.73      -0.05      -0.44
      8.27      -0.32       0.75
      7.84       1.04       0.90
      7.37      -0.59       0.37
      6.41      -0.44       0.23
      7.02      -0.01      -0.36
      6.33      -0.57       0.30
      6.47       0.21      -0.18
      7.15       0.45       0.23
      6.76       1.15      -0.12
      6.60       0.90       0.69
      6.62       0.49       0.35
      7.57       0.66      -0.33
      7.86       0.16      -0.38
      7.54      -0.95      -0.49
      7.70      -0.63       0.19
      6.96      -0.28      -0.49
      7.29       0.31      -0.59
      7.35       0.14      -0.43
      6.60       0.51      -0.56
      5.99       0.67      -0.50
      7.02      -0.15      -0.12
      6.00      -0.75      -0.42
      5.40      -0.32       0.54
      5.59       0.59       0.42
      6.83       0.44       0.69
      5.81       1.02      -0.31
      5.00       0.93       0.28
      5.19       0.23      -0.06
      7.10       0.10      -0.37
      6.70      -0.22      -0.18
      7.21      -0.42       0.04
      5.51      -0.26      -0.13
      6.62      -1.02       0.24
      6.45      -0.89      -0.09
      7.30      -0.84      -0.25
      7.66      -0.47       0.01
      6.34      -0.64       1.03
      6.60       0.42       0.21
      7.56      -1.06       0.07
      7.23      -0.57       0.26
      7.01      -0.33       0.01
      7.95      -0.31      -0.12
      7.25      -0.24       0.23
      7.89      -0.35       0.71
      8.09      -0.40       0.48
      8.09       0.19       0.73
      8.88      -0.32      -0.19
      8.12       0.44      -0.35
      8.68       0.77       0.59
      8.30       0.81      -0.06
      7.26       0.91      -0.20
      6.20       0.90       0.42
      6.57       1.22       0.04
      6.66       1.66      -0.90
      6.44       1.74      -0.97
      6.78       0.59      -0.77
      7.10       0.48      -0.26
      6.70      -0.02      -0.15
      7.48       0.99      -0.32
      6.76      -0.37      -0.35
      6.62       0.24       0.04
      6.36       0.67      -0.34
      6.90       0.31       0.02
      7.35       0.77       0.02
      7.18       0.95       0.15
      7.62       1.06      -0.36
      7.05       1.56      -0.00
      7.86      -0.23      -0.01
      7.58       1.35       0.43
      7.16       0.27       1.10
      7.40       0.20       0.68
      8.11       0.19       0.62
      8.94       0.51       0.96
      8.80       0.50       0.57
      7.76       0.44       0.77
      7.49      -0.09       0.12
      7.27      -0.46       0.04
      7.81      -0.63       0.06
      6.93      -0.19      -0.37
      7.15      -0.18       0.74
      7.27       0.04       0.04
      6.39       0.09       0.35
      6.56      -0.69      -0.55
      8.40      -0.50      -0.61
      7.87       0.43      -0.08
      7.47      -0.25       0.05
      6.89      -1.04      -0.01
      6.02      -1.20       0.53
      6.96      -1.32       0.75
      7.41      -1.04       0.18
      7.20      -0.63      -0.19
      6.29      -0.59      -0.07
      7.16       0.42      -0.83
      7.91       0.08      -0.55
      8.31      -0.01       0.06
      8.23      -0.38      -0.42
      7.02      -0.77       0.55
      7.58      -0.04       0.11
      6.63      -0.50       0.17
      8.27       0.24      -0.19
      8.27      -0.19      -0.01
      7.27      -0.32       0.64
      7.27       0.12       0.98
      7.39       0.63       0.05
      7.58      -0.45       0.59
      6.25       0.38      -0.26
      7.09       0.26      -0.19
      6.30       1.02      -0.07
      6.27       0.23      -0.10
      6.44       1.03       0.15
      7.40       0.70      -0.55
      7.67       1.09       0.26
      8.11       0.85       0.02
      7.81       0.50       0.01
      8.37      -0.24      -0.20
      8.19       0.98      -0.14
      7.39       0.21      -0.45
      8.30       1.33      -0.61
      7.88       0.66      -0.74
      7.97       0.53      -0.63
      7.54       0.32       0.17
      6.78       0.36      -0.02
      6.51      -0.19      -0.56
      5.67       0.46      -0.34
      4.56       0.65       0.29
      7.06       1.45       0.64
      5.92       0.74       0.40
      6.34       2.15       0.11
      5.96       0.91      -0.04
      6.73       0.46      -0.75
      6.60       0.21      -0.09
      7.05      -0.23      -0.62
      7.37      -0.20       0.07
      5.29      -0.90      -0.21
      6.12       0.20       0.46
      7.26      -1.13      -0.15
      7.69      -0.78       0.45
      7.99      -1.05       0.17
      5.92      -0.52       0.29
      6.20      -0.28      -0.07
      6.44      -0.85       0.37
      6.62      -0.18       0.40
      7.53      -0.73       0.09
      8.07      -0.23       0.26
      9.22       0.65       0.50
      8.42      -0.12       0.44
      9.29       0.27       0.67
      9.86      -0.48      -0.12
      8.95       0.40       0.61
      8.30       0.62       0.37
      7.45       0.23       0.33
      6.69       0.48       0.43
      6.61       1.75      -0.27
      7.38       2.01      -0.05
      6.38       1.83      -0.24
      6.34      -0.10      -0.13
      7.68       0.17       0.25
      8.89       0.87       0.04
      8.62       0.32       0.10
      7.30       0.18       0.04
      6.91       0.68      -0.27
      7.60       0.27      -0.35
      6.10       0.36       0.09
      6.18       0.67       0.04
      7.23       0.77       0.16
      7.14       1.00       0.27
      6.47      -0.15      -0.49
      7.40       0.54      -0.80
      7.38       0.37      -0.39
      7.64       1.15       0.15
      6.82       0.39       0.61
      8.12      -0.35       0.38
      7.86      -0.28       0.31
      8.16      -0.22       0.34
      8.48      -0.48       0.09
      8.37      -1.04       0.82
      7.73       0.09       0.33
      7.46      -0.04       0.39
      7.49       0.52       0.38
      6.76      -0.11       0.24
      7.43      -0.24       0.61
      6.07      -0.00       0.25
      6.02      -0.16      -0.04
      7.17      -0.74      -0.28
      7.90       0.01      -0.32
      7.89       0.27      -0.77
      7.86      -1.17      -0.55
      7.16      -1.99      -0.05
      6.54      -0.57      -0.52
      6.33      -0.79      -0.10
      7.66      -0.33       0.16
      7.29      -0.07       0.23
      7.04      -0.13       0.13
      7.90      -0.30      -0.40
      7.70       0.53      -0.55
      8.26      -0.10      -0.27
      7.55      -0.53      -0.23
      6.95      -1.41       0.10
      7.94      -0.18       0.03
      8.17      -0.41      -0.43
      8.04       0.41      -0.30
      8.18       0.79      -0.43
      8.17      -0.32       0.30
      8.08      -0.39      -0.31
      7.25       0.64       0.65
      6.37       0.31       0.52
      6.89       0.09       0.21
      7.62       0.41       0.08
      6.11       1.00       0.50
      6.27       0.87       0.12
      6.66       0.45      -0.04
      7.97       1.51      -0.36
      7.49       1.15      -0.60
      8.12       0.64       0.15
      8.76       0.58       0.34
      7.67       0.49      -0.10
      7.53      -0.20      -0.33
      8.79       0.94      -0.30
      7.67       0.59      -0.87
      7.99      -0.00       0.21
      7.45       0.46      -0.22
      7.26      -0.35      -0.32
      8.23       0.44       0.07
      6.88       0.27       0.04
      5.47      -0.59      -0.45
      5.63       0.76       0.35
      6.73       0.93      -0.12
      6.56       1.34       0.81
      7.23       2.23       0.61
      5.90       1.22       0.06
      6.72       0.34       0.52
      6.57       0.53       0.35
      6.65       0.40       0.44
      6.49       0.15       0.09
      7.01       0.41      -0.06
      6.76       0.10       0.27
      7.64       0.04       0.81
      6.99      -0.57       0.13
      7.30      -0.30       0.05
      7.64       0.37       0.16
      7.07       0.13       0.08
      8.19       0.62       0.40
      6.64       0.88       0.20
      8.14       0.41       0.03
      8.31       0.35       0.51
      8.75       0.01       0.14
      7.90      -0.25       0.70
      8.72      -0.15       0.33
      8.85       0.38       0.43
      8.75       0.29      -0.12
      9.21       0.02       0.67
      9.38       0.98       0.11
      7.79       0.95      -0.17
      7.45       0.83      -0.09
      7.63       0.86       0.22
      7.59       0.77      -0.09
      7.49       0.52      -0.68
      7.97      -0.64       0.20
      7.38       0.71      -0.56
      8.13       0.45       0.07
      8.08       0.56      -0.54
      7.20       0.55      -0.64
      6.26       0.39      -0.59
      5.83       0.42       0.07
      6.85       0.16      -0.22
      6.47       0.28       0.48
      7.36      -0.27      -0.38
      8.00      -0.16      -0.85
      7.29       0.45      -0.43
      6.78       0.64      -0.42
      7.83       0.72       0.53