# vtk DataFile Version 3.0
Low resolution, disturbed wind of YZ Slice at time = 3 seconds.
ASCII
DATASET STRUCTURED_POINTS
DIMENSIONS     1   101    35
ORIGIN    1756.00    -500.00       5.00
SPACING       9.71      10.00      10.00
POINT_DATA            3535
VECTORS DisYZ float
      5.32       1.20       0.04
      5.56       0.79       0.09
      4.54       0.43      -0.33
      4.84       0.20      -0.65
      5.04       0.48      -0.19
      6.20       0.77       0.16
      5.24      -0.12       0.03
      5.95      -0.50       0.23
      5.38      -0.91       0.01
      5.79      -1.24       0.40
      5.38      -0.29       0.03
      5.86      -0.64      -0.24
      5.50       0.28       0.37
      4.30      -0.49       0.36
      4.11      -0.32       0.63
      3.53       1.08       0.72
      3.45       1.57       0.37
      3.43       1.02       0.29
      3.89       0.97       0.34
      4.69      -0.11       0.18
      4.67       1.21       0.56
      6.09       0.02       0.07
      5.65      -0.00       0.85
      5.14      -0.59       0.27
      6.12      -0.13       0.24
      6.05       0.01       0.16
      5.98       0.54      -0.19
      5.80      -0.69       0.59
      5.25      -0.80       1.19
      5.12       0.33       1.18
      5.76       0.34       0.84
      5.25       0.30      -0.05
      5.64      -0.11       0.20
      3.97      -0.47      -0.03
      4.17       0.61      -0.31
      3.77       0.01       0.15
      4.78       0.99       0.70
      4.30       1.52      -0.16
      4.91       0.49       0.26
      5.56       0.37       0.41
      4.67       1.28       0.68
      5.84       0.83       0.86
      3.82       1.06       1.25
      3.61       1.07       1.11
      2.82       1.01       0.76
      3.36       0.59       0.65
      3.99      -0.34       0.47
      3.62       0.29       0.05
      3.26       0.31       0.91
      4.28      -0.03       0.23
      4.59      -0.33       0.78
      4.44       0.31       0.01
      3.40       0.14      -0.04
      3.84       0.77       0.67
      4.12       1.48       0.34
      4.38       1.41       0.32
      4.65       0.90      -0.18
      4.80       0.60      -0.80
      4.49      -0.35       0.42
      3.56      -0.56      -0.40
      3.54       0.70      -0.50
      3.67       0.79      -0.15
      2.94       0.36      -0.58
      1.96      -0.60       0.02
      2.41      -0.44       0.26
      2.13      -0.03      -0.56
      2.19      -0.34      -0.07
      2.69       0.86       0.08
      2.58       0.97      -0.31
      2.38      -0.36      -0.75
      1.17       0.35      -0.11
      3.09       1.03       0.67
      2.89       1.27       0.66
      2.95       1.08       0.05
      3.70       0.48      -0.09
      3.97      -0.48       0.30
      4.74       0.24       0.21
      3.72       0.26       0.04
      2.81       0.76       0.14
      1.89       1.07      -0.32
      1.68       0.42       0.82
      2.91       0.23      -0.48
      3.61      -0.31      -0.03
      3.51      -0.45      -0.13
      4.50      -0.44      -0.22
      4.19       0.21       0.38
      3.96       0.54       0.46
      3.63       0.48      -0.24
      3.02       1.02      -0.08
      4.37       1.15      -0.77
      3.06       1.24       0.17
      3.49       0.81      -0.55
      4.44       1.40      -0.64
      3.13       1.66      -0.32
      3.05       1.57      -0.08
      3.08       1.56      -0.50
      2.41       0.75      -0.10
      2.35       1.18      -0.35
      2.46       0.63      -0.07
      2.84       0.44       0.47
      3.59      -0.13       0.13
      6.43      -0.87       0.06
      5.50      -0.08      -0.27
      6.53       1.11      -0.91
      6.13      -0.32      -0.40
      5.64      -0.05      -0.23
      5.44       1.54       0.05
      6.12       0.55      -0.20
      8.20       0.79      -0.03
      7.25      -0.82       0.07
      7.16      -0.78      -0.25
      7.22      -0.07      -0.30
      7.25      -0.16      -0.47
      6.75      -0.08       0.65
      6.99      -0.23       0.14
      4.78      -0.28       0.41
      5.44       0.34       0.17
      4.61       0.93       0.03
      4.69       1.53       0.11
      5.58       0.22       0.44
      4.84       0.08       0.45
      5.32       0.72       0.77
      6.62       0.67      -0.22
      7.23      -0.35       0.65
      7.20      -0.32       0.94
      6.31      -0.15       0.15
      7.66      -0.85       0.17
      7.14      -1.13       0.29
      6.22      -0.27       0.08
      6.49      -0.23       1.37
      6.36      -0.49       0.89
      5.63       0.88       0.41
      6.12       0.17       0.38
      6.49       0.13       0.37
      6.37      -0.64      -0.02
      5.44       0.47      -0.15
      5.36       0.51       0.03
      6.07       1.09      -0.03
      6.62       0.60       0.47
      6.02      -0.04       0.37
      6.58       0.55       0.70
      5.76       2.14      -0.10
      5.30       0.91       0.09
      4.50       1.48       0.49
      5.45       1.18       0.01
      5.83       1.15       0.12
      5.42       1.51       0.70
      4.51       0.60       0.67
      5.47       0.97       0.74
      4.24       1.37       0.82
      5.20       0.39       0.36
      4.75       1.21       0.87
      5.43       0.38       0.60
      5.10       0.98      -0.19
      5.22       0.49      -0.05
      5.08       0.46       0.09
      5.29       0.73       0.31
      5.07       1.04       0.58
      6.23      -0.04       0.52
      4.70      -0.62       0.11
      5.35       0.20      -0.48
      5.04       1.68       0.39
      3.67       1.06       0.54
      5.38       0.81      -0.27
      4.17      -1.07      -0.11
      3.33      -0.43      -0.05
      3.50      -0.12      -0.21
      2.95       0.66      -0.55
      3.03       0.71       0.31
      3.26       0.47      -0.44
      3.74       0.35      -1.22
      3.19      -0.32      -0.02
      3.83      -0.37      -0.01
      3.58       0.69       0.44
      3.13       0.55       0.27
      4.30       0.02      -0.26
      4.65       0.92       0.40
      4.95       0.41      -0.36
      4.63       0.14      -0.14
      4.34       0.32       0.03
      3.63       0.39      -0.21
      3.99       0.74       0.33
      3.95      -0.32       0.28
      3.96       0.10       0.09
      4.92      -0.72      -0.22
      5.30      -0.73       0.39
      4.89       0.04       0.25
      4.24      -0.35      -0.48
      4.18       0.61      -0.84
      3.92       0.95       0.17
      4.63       1.36      -1.03
      3.12       1.61      -0.67
      3.88       0.83      -0.21
      3.62       1.25       0.07
      4.01       0.87      -0.42
      3.84       0.66       0.49
      4.23       0.33      -0.42
      3.71       1.29      -0.03
      4.73       0.14       0.28
      3.83       0.31       0.38
      4.53      -0.13       0.26
      5.16      -0.57      -0.11
      7.02       0.26       0.57
      6.85       0.64      -0.12
      6.43       0.26       0.08
      6.90       0.84      -0.42
      6.30       0.44       0.33
      6.08       1.24       0.37
      6.29       1.02       0.05
      7.54       0.86       0.41
      7.56      -0.56       0.13
      7.73      -0.71       0.24
      6.90      -0.13       0.68
      8.16      -0.48      -0.02
      7.06       0.04       0.40
      8.13       0.17       0.24
      6.66       0.44       0.19
      5.38       0.90       0.15
      5.90       0.06       0.34
      6.11       0.34       0.47
      6.82      -0.48       0.51
      6.94       0.72       0.09
      6.37       0.76       0.63
      7.35       0.31       0.09
      7.82       0.49       0.29
      7.29       0.01       0.29
      6.69      -0.60      -0.18
      7.31      -0.35       0.47
      7.21      -0.57       0.16
      7.20       0.27       0.46
      7.41      -0.17       0.56
      6.58      -0.27       0.33
      6.87       0.81      -0.19
      6.31       0.75      -0.29
      6.64       0.04      -0.09
      5.76      -0.30      -0.02
      5.54       0.06       0.49
      6.14       0.97       0.05
      6.39       1.42       0.52
      6.92       0.81      -0.32
      6.74       1.73      -0.23
      6.66       1.71       0.23
      7.28       1.42       0.05
      6.11       1.84      -0.51
      5.83       1.25      -0.28
      6.50       0.97       0.29
      6.34       1.12       0.66
      6.31       1.07       0.29
      6.66       0.39       0.27
      6.07       0.79       0.45
      5.97       0.62       0.14
      5.63       0.43       0.41
      4.88       0.78       0.43
      5.44       0.09       0.08
      5.34       1.10       0.32
      5.68       0.25       0.49
      5.87       0.26       0.40
      6.88       0.15       0.83
      6.09       0.20       0.84
      6.03      -0.64       0.16
      5.73      -0.33       0.29
      6.04       0.13       0.09
      5.48       0.63       0.03
      4.14       1.39      -0.55
      4.29      -0.28      -0.43
      4.98      -0.66      -0.06
      4.21      -0.58      -0.14
      3.59      -0.05      -0.27
      3.08       1.46      -0.22
      4.17       0.13      -0.06
      5.04      -0.14      -0.86
      5.44       0.09      -0.19
      4.48      -0.06      -0.40
      3.94       0.66       0.19
      4.25       0.46      -0.01
      5.14       0.08       0.32
      5.54      -0.70      -0.50
      6.80       0.54       0.20
      4.64       0.91      -0.75
      4.92       0.24       0.29
      4.74       0.81       0.22
      3.94       0.04       0.25
      4.20       0.01      -0.27
      4.77      -0.08      -0.29
      5.21      -1.46      -0.17
      4.74      -0.51      -0.72
      4.57      -1.25      -0.32
      5.75       0.02       0.04
      5.07      -0.27       0.31
      4.96       0.54       0.28
      4.47       0.23       0.22
      4.81       0.43      -0.06
      5.06       1.43       0.06
      4.78       1.09      -0.59
      4.47       0.42       0.11
      4.57       1.16      -1.30
      5.51       0.97      -0.22
      5.56       0.61      -0.42
      5.98       0.15      -0.65
      5.24       0.21      -0.08
      5.13      -0.08      -0.52
      5.32      -0.49      -0.97
      5.50      -1.04       0.19
      6.90       0.53       0.13
      7.62       0.72      -0.20
      7.21       1.17      -0.06
      8.26       0.41      -0.27
      7.85       0.71       0.18
      8.14       0.56       0.37
      8.64       0.58      -0.06
      7.29       0.17       0.94
      8.65       0.33       0.86
      8.38       0.44       0.72
      7.94       0.17       0.78
      6.60      -0.56       0.80
      8.50      -1.07      -0.06
      8.41      -0.32       0.20
      7.63       0.08       0.38
      6.04       0.86       0.60
      6.41       0.85       0.15
      6.51       0.65       0.28
      6.97      -0.08       0.39
      7.16       0.52       0.70
      7.91       0.56      -0.27
      7.58       0.18       0.46
      8.35      -0.13       0.05
      7.64       0.33       0.75
      6.90      -1.01       0.24
      7.29      -0.23       0.93
      7.35      -0.22       0.46
      6.70       0.23       0.17
      7.07       0.27       0.52
      7.04       1.20       0.25
      7.94      -0.15       0.25
      5.76       0.63      -0.56
      7.06       0.24       0.06
      6.37       0.55       0.18
      6.65       0.43       0.67
      7.57       1.28       0.12
      6.83       0.58      -0.27
      7.24       0.11      -0.39
      7.43       0.66      -0.24
      7.48       1.72       0.15
      6.20       1.60      -0.17
      6.50       1.64      -0.37
      6.65       0.68       0.20
      5.85       0.50      -0.13
      6.91       0.74       0.36
      6.20       0.86       0.20
      7.31      -0.01       0.68
      6.47       0.32       0.61
      6.48       0.18       0.26
      6.09       0.96       0.12
      5.85       0.46       0.36
      6.33       0.21       0.35
      6.24       0.83       0.64
      5.38       0.65       0.87
      6.10       0.22       0.57
      6.63       0.22       0.69
      6.65       0.82       0.55
      5.70      -0.47       0.17
      6.63      -0.31      -0.38
      7.24      -0.38      -0.22
      6.21       0.39      -0.04
      4.44       0.16      -0.36
      5.05      -0.49      -0.34
      5.00      -0.32      -0.21
      4.90      -0.89      -0.27
      5.27      -0.17      -0.19
      4.21       0.39      -0.38
      4.90       0.90       0.00
      5.70       0.40      -0.39
      5.04       0.52      -0.61
      5.17      -1.05       0.06
      6.12      -0.38       0.13
      5.50      -0.32       0.51
      6.18      -1.17       0.97
      6.97      -0.93       0.15
      6.29       0.02      -0.50
      6.73      -0.23      -0.15
      6.46       0.15       0.03
      5.69       0.39      -0.17
      6.71       0.20      -0.34
      6.15      -0.12       0.35
      5.21      -0.94      -0.27
      5.69      -0.64      -0.14
      5.53      -0.33      -0.18
      5.26      -0.90       0.57
      6.23      -0.52      -0.22
      6.57      -1.38      -0.30
      5.54      -1.13      -0.45
      5.77      -0.44      -0.51
      5.53       0.15      -0.34
      5.67       0.18      -0.34
      5.05       0.56      -0.77
      4.85       1.17      -0.61
      5.54       1.09      -1.32
      5.63       0.69      -0.56
      5.15       0.63      -0.17
      5.61      -0.35      -0.48
      6.42      -0.92      -0.66
      5.29       0.06      -0.43
      5.67      -0.42      -0.47
      6.51      -0.93      -0.86
      7.67       0.02       0.55
      7.01      -0.06       0.13
      7.46       0.54      -0.27
      7.66       0.98      -0.01
      7.82       1.03       0.59
      8.10       0.14       0.43
      7.22       0.54       0.29
      7.49       0.91       0.06
      7.23       0.71       0.12
      8.68       0.52       0.41
      8.14       0.96       0.04
      8.80      -0.84      -0.08
      9.03      -0.72       0.26
      8.12      -0.09       0.01
      7.63      -0.70       0.52
      7.03      -0.03       0.98
      6.73      -0.13       0.49
      7.49       0.03       0.00
      7.61       0.43      -0.57
      7.66       0.64      -0.11
      7.22       0.56      -0.21
      7.69       0.08       0.14
      7.60       0.21       0.15
      7.96       0.72      -0.14
      6.80      -0.80      -0.15
      7.42       0.27      -0.44
      8.33      -0.49      -0.14
      8.71      -0.53      -0.16
      8.53       0.82       0.61
      8.56       0.20       0.18
      7.76       0.47       0.13
      7.11       0.72       0.50
      6.91       1.05       0.21
      7.44       0.60      -0.74
      7.42       1.18       0.14
      8.09       1.01      -0.73
      7.80       0.71      -0.20
      7.43       0.83      -0.16
      8.12       1.14      -0.26
      7.54       0.88      -0.27
      7.61       1.17       0.02
      6.45       0.38      -0.27
      8.10       0.14      -1.10
      5.94       0.39      -0.43
      6.74       0.54      -0.36
      6.43       1.49      -0.71
      7.00       0.20       0.17
      6.79       0.71       0.02
      6.38       0.40       0.31
      6.83       0.38      -0.21
      6.65       0.66      -0.17
      6.72       0.36       0.24
      6.87       1.00      -0.11
      6.80       0.12       0.20
      6.92       0.67      -0.04
      7.21       0.82       0.16
      7.26       0.58      -0.10
      6.07       0.20       0.37
      6.18      -0.62      -0.31
      7.08       0.19       0.77
      6.54       0.47       0.06
      5.74       0.02      -0.76
      5.82      -0.17      -0.12
      5.44      -0.60       0.75
      4.99       0.02       0.37
      6.02       0.37      -0.11
      5.24       1.18      -0.39
      5.75       0.06      -0.22
      5.95      -0.34      -0.69
      6.05       0.31       0.04
      5.75      -0.31      -0.18
      7.10      -0.03      -0.33
      6.91      -0.48       0.49
      7.17      -0.21      -0.35
      6.22      -0.07      -0.02
      7.01      -0.70       0.27
      5.70       0.55       0.62
      6.71       0.81      -0.03
      5.88       0.32      -0.18
      6.74      -0.41      -0.50
      5.43      -0.08      -0.36
      4.85      -0.61       0.00
      5.03       0.93      -0.25
      5.37      -0.21       0.10
      5.93      -0.72       0.60
      5.85      -0.16      -0.36
      5.99       0.09      -0.16
      6.43      -1.40      -0.53
      7.06      -0.55      -0.71
      7.04      -0.23      -0.55
      5.58       0.48      -0.24
      4.67       0.52      -0.78
      4.86       0.20      -0.93
      5.79      -0.40      -0.60
      5.97      -0.02      -0.22
      5.53      -0.49       0.61
      5.95      -0.25      -0.38
      5.83       0.31       0.11
      6.79      -0.49      -0.12
      5.78      -0.51      -0.56
      6.03      -0.51      -0.05
      8.78       0.10       0.08
      8.16       0.78       0.21
      7.76       0.10       0.51
      8.00       0.15       0.46
      8.77      -0.44       0.10
      7.37      -0.06       0.31
      7.79       0.65       0.51
      7.96       0.56       0.49
      7.93       0.20       0.14
      8.45       0.23      -0.00
      7.77       0.72      -0.00
      8.44      -0.19       0.51
      9.16       0.31      -0.01
      8.43       0.07       0.18
      8.38      -0.41       1.02
      7.18      -0.68       0.67
      6.70       0.41       0.09
      6.62       0.60       0.11
      7.36       0.44       0.54
      8.00       0.67       0.04
      8.52       0.33       0.57
      8.48       0.32       0.62
      8.15       0.02       0.31
      7.84       0.08       0.20
      8.47      -0.23       0.61
      7.42       0.29       0.45
      8.27       0.12      -0.10
      9.83      -0.01       0.56
      8.61      -0.32       1.24
      8.33       1.13       0.44
      7.69      -0.04      -0.08
      8.14       0.44       0.49
      8.29       0.33      -0.15
      7.58       1.22       0.00
      8.10       0.78      -0.24
      7.57       0.50      -0.44
      7.83       0.47      -0.06
      8.60       0.89      -0.70
      7.17       1.07      -0.76
      7.96       0.84      -0.81
      6.13       0.26       0.43
      6.65       0.88      -0.66
      6.27       0.79      -1.13
      6.60       0.27      -0.78
      7.03       0.18      -1.23
      5.66       0.30      -1.36
      6.76       1.47      -0.00
      6.40       0.67       0.35
      6.48       0.71      -0.03
      6.77       0.28      -0.94
      6.40       1.18      -0.10
      6.74       1.62       0.26
      7.35       1.19       0.24
      7.34       0.10       0.07
      6.78      -0.31      -0.19
      7.66       0.48      -0.07
      7.67       0.56       0.26
      7.17       0.41      -0.14
      7.86       0.47       0.37
      7.40       0.55       0.38
      6.97       0.56      -0.02
      6.77       0.51      -0.07
      5.36       0.72       0.22
      5.71       0.80      -0.23
      6.23       0.56       0.37
      6.70       0.72       0.46
      5.16       0.65      -0.10
      5.22      -0.08      -0.24
      6.09      -0.35       0.34
      6.18      -1.49      -0.55
      6.46      -0.33      -0.27
      5.95      -0.17      -0.22
      6.43      -0.06       0.01
      6.67      -1.45       0.41
      7.48      -1.21       0.51
      7.08      -0.22       0.07
      6.57      -0.30       0.12
      6.56       0.06      -0.77
      7.20       0.46      -0.40
      6.37      -0.27      -0.13
      5.69      -0.27       0.11
      5.89      -0.06      -0.05
      6.60       0.66       0.03
      6.00       0.00       0.33
      6.33      -0.09      -0.06
      5.93      -0.10       0.83
      7.05       0.03       0.19
      6.57      -0.83       0.33
      6.50      -0.19      -0.36
      5.92       0.30       0.11
      6.29      -0.60      -0.33
      5.03       0.26      -0.09
      4.67       0.34      -0.12
      5.49      -0.13      -0.13
      6.59      -1.46       0.34
      6.58      -0.95      -0.56
      6.91      -0.64      -0.40
      6.80      -0.69      -0.29
      6.37      -0.06      -0.25
      7.15      -0.57      -0.30
      6.28       0.07      -0.84
      7.85       0.52       0.35
      8.45      -0.85       0.84
      8.61      -0.60       0.45
      8.32       0.70      -0.02
      8.18      -0.09       0.22
      8.65       0.20       0.06
      8.94       0.01      -0.25
      7.31       0.56       0.37
      6.58       0.43      -0.15
      8.74       0.86       0.14
      8.55       0.70       0.09
      8.42       0.30       0.25
     10.15      -0.24       0.81
      9.33       0.73       0.41
      8.80      -0.24       0.37
      7.61       0.07      -0.07
      6.98       0.01      -0.36
      7.17       0.16      -0.02
      7.64       0.12       0.02
      7.66      -0.07       0.64
      9.05       0.50       0.58
      9.31      -0.68       0.01
      9.57      -0.34      -0.48
      8.76       0.23      -0.30
      8.63      -0.07      -0.58
      8.80       1.44      -0.17
      9.32       0.57       0.26
      8.76       0.19      -0.22
      7.93       0.30      -0.30
      7.35       0.82       0.04
      8.67       0.48       0.25
      8.63       0.60       0.09
      8.54       0.65       0.09
      8.44       0.36      -1.20
      7.90       0.44      -0.56
      8.38      -0.12      -0.81
      9.55       0.17      -0.52
      8.82      -0.13      -0.22
      9.42       1.06      -0.88
      7.90       0.82      -0.50
      5.50       0.48      -0.31
      5.90       0.75      -0.52
      6.01       0.17      -0.64
      7.58       0.09      -0.68
      6.74       1.20      -0.30
      5.92       0.19      -0.80
      6.16       0.34      -0.83
      6.89       0.72      -0.15
      5.55       0.54       0.01
      7.13       0.60      -0.27
      7.09       0.96      -0.36
      7.29       0.60      -0.23
      7.42       0.79      -0.11
      7.54      -0.09       0.54
      7.52      -0.23       0.07
      7.65      -0.23       0.83
      7.46      -0.25       0.15
      7.95       0.36       0.04
      8.05       1.08       1.00
      8.17       0.30       0.23
      7.03       0.14       0.30
      6.11       1.18      -0.07
      6.17       0.86       0.50
      7.03       0.40      -0.29
      5.83       0.52       0.32
      6.28       0.86       0.04
      6.76       0.75      -0.26
      5.90      -0.58       0.59
      6.29      -1.02       0.54
      5.80      -0.88      -0.01
      6.18      -0.20      -0.12
      6.03      -0.21       0.10
      5.85      -0.23       0.05
      5.28      -0.43       0.03
      6.81      -1.24       0.34
      6.84      -0.15       0.84
      7.70      -0.55       0.63
      6.89      -0.77       0.02
      7.72      -0.43      -0.44
      7.04      -0.16      -0.40
      7.54      -0.08       0.25
      6.03      -0.23       0.09
      6.95      -0.25       0.20
      6.13      -0.21      -0.25
      6.34       0.02      -0.13
      7.15       0.03       0.03
      7.29       0.70       0.42
      6.40       0.05      -0.01
      6.06       0.14       0.35
      6.23      -0.07       0.21
      5.17       0.25      -0.33
      5.20       0.09      -0.66
      5.88      -0.67      -0.74
      6.70       0.02      -0.14
      7.33      -0.87      -0.70
      8.61      -1.06      -0.18
      7.06      -0.08      -0.47
      7.27      -0.38       0.59
      6.77       0.48       0.24
      8.22       0.24      -0.55
      6.87      -0.23      -0.51
      7.86      -0.02       0.38
      7.53       0.21      -0.01
      8.09       0.15       0.45
      8.54      -0.19       0.31
      8.06       0.18       0.09
      8.26       0.17       0.19
      8.99       0.70      -0.21
      8.94      -0.62       0.16
      7.34      -0.87      -0.17
      8.05      -1.14      -0.00
      8.51       0.70       0.22
      8.44      -0.21       0.98
     10.01      -0.23       0.19
      8.24       0.06      -0.13
      8.55       0.30       0.91
      8.17       0.31       0.36
      7.63       0.24      -0.33
      7.18       1.29      -0.13
      7.38       0.20      -0.48
      8.79       1.06       0.62
      9.62       0.34       0.29
     10.02      -0.46      -0.17
      9.66      -0.21      -0.39
      8.69       0.21       0.11
      9.86       0.22       0.21
      9.27       0.74      -0.28
      9.29       0.08      -0.08
      8.10       1.37       0.24
      9.11       1.14      -0.70
      8.71       1.34      -0.93
      8.90       0.73      -0.43
      9.13       0.24      -0.96
      8.82       0.21      -0.51
      8.73       0.93       0.05
      8.37       0.35      -0.86
      8.37       0.31      -0.08
      8.57       0.74      -1.27
      7.87       0.67      -0.33
      8.28       0.29      -0.10
      8.15       0.01      -0.86
      5.24      -0.11      -0.92
      5.33       0.01      -0.83
      6.02      -0.55      -0.87
      7.22      -0.38      -0.65
      6.44       0.33      -1.18
      6.63       0.80      -0.05
      6.45       0.36      -0.50
      7.53       0.61      -0.17
      7.48      -0.10       0.16
      8.20       0.53      -0.50
      8.38       0.65       0.26
      7.04       0.82       0.06
      8.09      -0.54       0.02
      7.60       0.02       0.76
      7.82      -0.05       0.57
      7.60      -0.02       0.31
      8.01       1.16       0.05
      7.98       1.05       0.63
      7.83       0.85       0.36
      7.62       0.66       0.48
      6.71       1.01       0.37
      6.22       0.76       0.30
      6.60       0.36      -0.12
      5.71       0.25       0.17
      6.82       0.18       0.16
      6.15      -0.12       0.28
      6.38       0.34       0.15
      7.20      -0.11       0.24
      6.80      -1.40      -0.18
      6.69      -1.19       0.13
      5.93      -0.75       0.23
      7.01      -0.01      -0.41
      7.02      -0.30       0.16
      6.91      -1.34       0.35
      7.06      -1.44       0.25
      6.25      -0.26       0.33
      7.42      -0.78       0.64
      7.61       0.14       0.36
      7.73       0.06      -0.16
      7.24      -0.48      -0.06
      7.05       0.31      -0.09
      6.74      -0.02      -0.36
      6.50      -0.15       0.46
      6.74      -0.41      -0.21
      7.81       0.42       0.03
      7.16       0.77      -0.16
      7.17       1.30      -0.21
      7.56       0.55      -0.52
      7.14       0.50      -0.20
      7.35       0.50       0.51
      7.16       0.05      -0.79
      6.48      -0.02      -0.35
      7.63       0.48      -0.19
      7.23       0.88      -0.15
      6.95       0.01       0.63
      8.06       0.00       0.25
      8.12      -0.51      -0.01
      7.92      -0.51      -0.04
      8.05      -0.99      -0.42
      8.92      -0.07      -0.18
      7.46       0.30      -0.25
      8.03      -1.36       0.14
      7.65      -0.81       0.32
      8.41      -0.01       0.61
      9.27      -0.04       0.10
      9.06       0.53       0.56
      9.54      -0.10       0.23
      9.54      -0.60       0.37
      9.80      -0.20       0.88
      8.83      -0.22       0.47
      8.11       0.15      -0.06
      7.64      -0.00       0.30
      8.22       0.07       0.88
      9.18      -0.21       0.38
      8.31       0.98       0.42
      8.52       0.64       0.22
      7.79       0.70       0.02
      6.83       0.71       0.05
      7.73       1.17      -0.35
      8.05       0.17      -0.00
      9.44       0.57       0.17
     10.25       0.86      -0.25
     10.06       0.48      -0.12
      9.94       0.76      -0.20
      9.75       0.40       0.12
      8.96       0.89       0.15
      9.65       0.41      -0.16
      8.91       0.82      -0.17
      8.09       0.61      -0.16
      7.19       1.50      -0.71
      7.63       0.81      -0.24
      8.93       0.71      -0.35
      8.53      -0.26       0.24
      8.53       0.51      -0.74
      8.43      -0.07      -0.09
      7.87      -1.00      -0.82
      8.11      -0.42      -0.36
      9.25       0.39      -1.05
      7.93       1.01      -1.63
      7.48       0.57      -0.27
      7.69       0.50      -1.08
      7.23       0.60      -0.39
      6.07      -0.06      -0.80
      4.97       0.15      -0.83
      6.07       0.05      -1.15
      6.82       0.72      -0.98
      6.01       0.77      -0.12
      6.35       0.24       0.06
      7.20       0.32       0.22
      6.90       1.00      -0.14
      7.74      -0.03      -0.02
      7.93       0.53      -0.63
      8.19       0.52      -0.07
      7.05      -0.37       0.05
      6.93      -0.56      -0.02
      8.69      -0.25       0.25
      7.56       0.17       0.54
      8.40       0.92      -0.39
      8.28       1.48       0.76
      8.16       0.64       0.71
      8.21       1.01       1.20
      7.19       0.29       0.60
      5.99       0.55       0.08
      6.87      -0.58       0.20
      6.68       0.57      -0.34
      7.26       0.10      -0.27
      6.37       0.31       0.12
      7.36       0.87       0.42
      7.00      -0.15       0.24
      7.07      -0.65       0.44
      6.79      -0.51       0.11
      7.41      -0.37      -0.02
      7.61       0.23       0.14
      7.21      -0.36       0.01
      7.95      -0.91       0.34
      8.31      -1.01       0.17
      8.43       0.34       0.33
      8.53      -0.16      -0.13
      7.62       0.11       0.17
      8.74       0.06      -0.12
      8.24       0.55       0.11
      7.74       0.01       0.07
      7.11      -0.25      -0.37
      7.85      -0.33      -0.19
      7.35       0.84       0.74
      7.53       1.08      -0.27
      8.29       0.99      -0.52
      6.84       0.34      -0.42
      7.96       0.33      -0.53
      7.18       0.80       0.11
      7.00       1.08      -0.23
      5.84       0.53      -0.24
      6.45       0.14      -0.23