# vtk DataFile Version 3.0
Low resolution, disturbed wind of YZ Slice at time = 3 seconds.
ASCII
DATASET STRUCTURED_POINTS
DIMENSIONS     1   101    35
ORIGIN    1882.00    -500.00       5.00
SPACING       9.71      10.00      10.00
POINT_DATA            3535
VECTORS DisYZ float
      5.11      -0.57       0.67
      3.63      -0.57       0.37
      3.53       0.90       0.11
      3.97       1.07       0.51
      3.01       0.83      -0.33
      3.40       0.16      -0.29
      3.53      -0.08      -0.17
      3.19      -0.28       0.05
      2.60      -0.19       0.26
      2.91      -0.28      -0.46
      4.35      -0.24       0.21
      5.05       0.17      -0.21
      4.48       1.39      -0.56
      5.81       1.70      -0.32
      5.63       1.12      -0.26
      5.54      -0.53       0.27
      5.08      -0.12       0.30
      5.93       0.18       0.58
      4.75       0.02       0.84
      3.72       0.21       0.72
      5.67       0.30       1.15
      5.49      -0.53       0.58
      5.05      -0.14       0.11
      5.57       0.23       0.30
      5.05       0.19       0.41
      5.56       0.50      -0.01
      5.35       0.35       0.27
      5.87       0.24      -0.48
      5.38       0.29       0.32
      5.11      -0.17      -0.03
      4.93      -0.10       0.63
      3.73       0.13       0.25
      4.53       0.57      -0.00
      4.40       0.06      -0.55
      5.19       0.80      -0.50
      4.99       0.27      -0.25
      5.38       0.06       0.15
      5.49      -0.74       0.77
      4.66       0.20      -0.26
      4.78       0.21      -0.26
      4.28       1.09      -0.42
      4.68       0.38       0.13
      4.74      -0.42       0.52
      4.78      -0.39      -0.41
      4.22      -0.01      -0.64
      4.79      -1.46      -0.53
      4.67      -1.23       0.09
      4.14      -0.53      -0.44
      4.28      -0.36      -0.61
      5.41      -0.19      -0.37
      4.56      -0.21      -0.07
      3.83       0.10       0.57
      3.99      -1.15       0.43
      3.89      -0.66      -0.30
      4.48      -0.98       0.19
      4.16      -0.51       0.24
      5.01       0.43      -0.15
      4.56      -0.25      -0.52
      4.17       0.58      -0.66
      4.29       1.01       0.05
      3.90       0.24       0.24
      4.44       0.64      -0.42
      4.71       0.31      -0.06
      4.55      -0.37      -0.09
      3.70       0.08       0.42
      3.89       0.87      -0.08
      3.33       1.05       0.09
      3.74       0.27       0.54
      3.67       0.51      -0.03
      3.67      -0.23       0.48
      3.43      -0.40      -0.34
      4.39       0.07       0.96
      5.57      -0.01       0.17
      4.97      -0.21      -0.31
      4.16       0.18      -0.49
      4.67      -0.04      -0.74
      5.30       0.17      -0.68
      4.27       0.23      -0.89
      3.68       0.12      -0.65
      4.44      -0.14      -0.48
      3.89       0.53      -0.24
      4.37       0.72      -0.59
      4.23       0.19      -0.31
      3.84       0.06       0.03
      3.47      -0.77      -0.40
      3.26      -0.85      -0.14
      3.73      -0.51      -0.37
      5.13      -0.72       0.06
      4.50      -0.03       0.07
      4.08      -0.08       0.57
      3.41       0.39      -0.07
      2.22       0.48      -0.21
      2.83       0.20       0.18
      3.32      -0.10       0.89
      2.79       0.37      -0.52
      3.92      -0.51      -0.56
      3.94      -0.41      -0.63
      3.06      -0.01      -0.44
      3.07      -0.28       0.07
      3.63       1.03       0.09
      3.98       0.94      -0.08
      6.97       1.13       0.09
      5.98       0.49       0.37
      6.71       0.41      -0.09
      5.15       0.76       0.39
      4.86       0.94      -0.31
      5.19       0.61      -0.67
      5.08      -0.26      -0.28
      5.45      -0.22       0.46
      4.26       0.11      -0.01
      4.53       0.28      -0.59
      4.93       0.68      -0.25
      6.21       0.78      -0.52
      5.91       0.96      -1.04
      6.53       1.29       0.07
      7.22       0.91      -0.68
      7.12       0.63       0.43
      6.76       0.23       0.17
      7.08      -0.32       0.71
      5.10      -0.04       0.75
      5.80       0.17       0.32
      5.75       0.12       1.17
      6.31      -0.15       0.50
      6.35      -0.72       0.07
      5.53       0.39       0.08
      5.93       0.57       0.86
      6.27       0.17      -0.17
      7.18       0.56       0.71
      7.06       1.06       0.07
      7.00       0.17      -0.50
      6.40       0.64       0.45
      6.38       0.54      -0.23
      5.17       0.97       0.26
      5.92       0.92       0.26
      5.16       0.16      -0.63
      6.24       0.51      -0.46
      6.90       0.53       0.14
      6.80       0.11       0.02
      6.00      -0.18      -0.79
      5.44       0.79      -0.28
      5.69       0.12       0.02
      5.39      -0.01       0.21
      5.42       0.29      -0.36
      4.98      -0.60       0.26
      5.39      -0.04      -0.25
      4.89      -0.88      -0.14
      5.59      -0.18      -0.81
      5.37      -1.04       0.29
      5.07      -0.75      -0.34
      5.46      -0.90      -0.77
      5.62      -1.14      -0.01
      5.48      -1.65      -0.01
      5.61      -0.69      -0.04
      5.74      -1.30       0.74
      5.55      -0.47      -0.23
      5.38      -0.78      -0.31
      5.66      -0.91      -0.04
      6.64      -0.47       0.30
      6.19       0.05      -1.06
      5.85       0.14      -0.33
      4.88       0.90       0.63
      4.58       1.20      -0.53
      6.91       1.33      -0.16
      6.46       0.45       0.22
      5.02       0.45       0.01
      5.61      -0.16      -0.76
      4.64       0.88       0.36
      5.00      -0.04       0.42
      4.85      -0.11      -0.25
      5.40      -0.32       0.62
      5.88      -0.22       0.82
      5.53      -0.71       0.01
      5.75       0.83       0.13
      6.17       0.35       0.41
      5.55       0.05      -0.58
      6.05       0.01       0.44
      5.80      -0.95      -0.29
      5.95       0.24      -0.62
      5.96       0.26       0.19
      5.08      -0.85       0.17
      4.44      -0.83       0.26
      4.06       0.86      -0.33
      4.41       0.12      -0.62
      5.42      -0.07      -0.13
      5.90      -0.65      -0.22
      4.89      -1.10      -0.19
      4.87      -0.62       0.20
      4.56      -0.47       0.09
      5.44      -1.06       0.78
      5.18       0.35       0.71
      5.14       0.53       0.07
      4.08       0.90      -0.15
      3.98       0.66       0.32
      3.95       0.09       0.25
      3.91      -0.14       0.38
      4.47       0.35      -0.46
      4.35       0.27      -0.53
      4.26      -0.44       0.03
      3.75      -0.48      -0.11
      4.69       0.40      -0.17
      4.32       1.11      -0.63
      5.03       0.12      -0.26
      6.66       0.60      -1.12
      6.26       0.30      -0.04
      6.30       0.75      -0.26
      5.78       0.32      -1.10
      5.79       1.02      -0.43
      6.00       0.83      -0.87
      5.51      -0.09      -0.21
      5.11      -0.50      -0.31
      6.22       0.88      -0.59
      5.87       0.20      -0.55
      5.87      -0.29      -0.09
      6.52       0.84      -0.56
      6.04       1.17      -1.05
      6.82       0.36      -0.29
      7.38       1.17       0.80
      8.68       0.58      -0.15
      8.36       0.10       0.42
      6.95       0.57      -0.49
      7.08       0.60       0.49
      7.16       0.32       0.92
      6.73       0.13      -0.05
      6.51       0.67      -0.41
      6.89      -0.27       1.01
      7.14      -0.05       0.18
      7.11      -0.24      -0.01
      7.83       0.31       0.19
      7.84       0.48      -0.36
      6.99       0.02      -0.12
      6.70       0.57      -1.19
      7.58      -0.02       0.25
      6.58       0.79       0.23
      7.07       0.92       0.16
      6.71       1.11       0.11
      6.03       0.59       0.22
      6.13       1.19      -0.65
      6.47       1.23      -0.23
      5.50       0.43       0.49
      6.05       0.97       0.07
      6.45       0.18       0.56
      6.29       0.66      -0.09
      6.54       0.53      -0.33
      6.27       0.25       0.23
      6.15      -0.13       0.28
      5.27      -0.60      -0.15
      5.69      -1.38      -0.76
      5.75       0.45       0.08
      5.95      -0.67       0.13
      6.74      -1.52       0.22
      5.58      -1.40       0.09
      4.99      -0.76       0.04
      5.40      -1.09      -0.97
      6.37      -1.09      -0.58
      6.44      -0.41      -0.53
      5.77      -0.34      -0.20
      5.64      -0.04      -0.52
      6.45      -0.32       0.20
      6.26      -0.43      -0.60
      6.92      -0.28      -0.38
      6.72      -0.51      -0.48
      5.74      -0.49      -0.13
      6.59       0.75      -0.12
      6.77       0.00       0.10
      6.36      -0.53      -0.09
      5.23      -0.60      -0.33
      5.56       0.43      -0.29
      5.79      -0.23       0.15
      5.01      -0.89      -0.01
      5.05       0.17       0.12
      5.05       0.57       0.21
      6.47      -0.34       0.73
      7.08      -0.62      -0.13
      5.98       0.61      -0.28
      6.04       1.07      -0.03
      5.72      -0.03      -0.33
      6.08      -0.88       0.31
      7.40      -0.18       0.79
      7.32       0.23      -0.26
      6.22      -0.10      -0.49
      5.19      -0.25      -0.22
      5.96       0.08      -0.50
      5.64       0.65       0.09
      4.81       0.23       0.37
      5.17       0.28      -0.34
      5.48       0.24      -0.46
      6.68      -0.37      -0.43
      5.60      -0.08      -0.84
      5.68      -0.62      -0.30
      6.02      -0.72       0.08
      4.74       0.07      -0.04
      4.84       0.03       0.11
      5.20       0.02      -0.06
      4.87       0.18      -0.45
      3.77      -0.55      -0.13
      5.00      -0.27      -0.00
      4.96       0.27      -0.39
      6.09      -0.09      -0.33
      5.35       1.49      -0.43
      4.18       0.90      -0.25
      5.23      -0.20       0.35
      5.05      -0.05       0.57
      6.31       0.67      -0.03
      7.55       0.48      -0.15
      7.44       0.44       0.43
      7.55       1.02       0.44
      6.92       0.29      -0.39
      7.12       0.56      -0.45
      6.47      -0.09      -0.42
      6.36      -0.20      -0.55
      5.54       0.59      -0.36
      5.59       0.30      -0.06
      6.36       0.47      -0.15
      6.78       0.17      -0.56
      7.27       0.73      -0.61
      7.29       1.01      -0.74
      7.82       0.73      -0.14
      7.42       0.51      -0.04
      7.60       0.66       0.48
      8.75       0.27      -0.02
      8.20       0.72       0.40
      7.48       0.33       0.45
      7.06       0.51       0.95
      6.71      -0.13       0.16
      5.84       0.05      -0.28
      6.43      -0.36       0.24
      6.55       0.13       0.14
      6.78      -0.37       0.01
      7.17       1.06       0.67
      8.25       0.71      -0.01
      7.67       0.99      -0.30
      7.82       0.93      -0.70
      6.88      -0.15       0.11
      7.07       1.47      -0.07
      7.62       1.36       0.25
      7.15       1.26      -0.43
      6.99       0.54      -0.52
      6.53       0.05      -0.19
      8.40       0.45       0.74
      7.04       0.51       0.71
      6.30       0.55       0.51
      6.15       0.04      -0.58
      6.46      -0.25       0.13
      6.12      -0.12      -0.35
      6.76      -0.16       0.27
      5.58       0.13       0.44
      5.53       0.15      -0.60
      5.75      -0.44       0.08
      7.08       0.29      -0.76
      6.59      -0.51      -0.68
      6.70      -0.56      -0.16
      6.08      -0.56       0.01
      6.93      -0.94      -0.03
      6.16      -0.36      -0.79
      6.94      -1.16      -0.89
      6.62      -1.03      -0.47
      6.78      -0.55      -0.98
      6.81      -0.20      -0.58
      5.73       0.45      -0.32
      6.02       0.22      -0.54
      6.14      -0.56      -0.64
      6.61      -1.02      -0.15
      5.61      -0.20       0.61
      6.65      -0.43      -0.09
      6.09      -0.32      -0.18
      5.84       0.03      -0.44
      5.23       0.00       0.30
      6.82       0.42       0.01
      5.85      -0.32      -0.00
      6.19       0.04      -0.41
      5.80      -0.45       0.06
      5.75       0.14       0.09
      5.46      -0.27       1.11
      6.35      -0.10       0.64
      6.31      -0.17      -0.26
      6.38       0.09      -0.46
      6.58      -0.01      -0.04
      6.20      -0.93       0.34
      5.96      -0.65       0.69
      5.64      -0.53       0.87
      5.76       0.22      -0.65
      6.28      -0.57      -0.08
      5.10      -0.16       0.05
      5.16      -0.44       0.44
      5.17      -0.02      -0.35
      6.02      -0.10       0.13
      5.84      -0.28       0.05
      6.81      -0.30       0.23
      7.18      -0.92      -0.78
      5.66      -0.70      -0.64
      6.15      -0.26      -0.32
      5.73      -0.04       0.15
      5.15      -0.31      -0.08
      4.34       0.46       0.13
      3.83      -0.12      -0.33
      5.42      -0.11       0.39
      4.29      -0.93       0.12
      4.33       0.13       0.04
      5.79      -0.45      -0.31
      5.56       0.92      -0.05
      4.77       1.24      -0.11
      4.67       0.20      -0.10
      5.57       0.04       0.54
      6.48       0.35       0.48
      8.10       0.30      -0.12
      7.94       0.56      -0.49
      7.74       0.69      -0.32
      6.58       1.44      -0.18
      7.02       1.81      -0.73
      6.31      -0.37      -1.17
      6.93       0.14      -0.89
      6.42       0.85      -0.70
      6.46       0.83      -0.01
      6.52       0.75      -0.82
      7.28       0.71      -0.52
      7.49       0.85      -0.05
      8.08       1.50      -0.74
      7.47       0.79      -0.33
      9.03       0.75      -0.04
      9.13       0.35      -0.83
      8.89      -0.79      -0.09
      8.87      -1.61       0.63
      8.30      -0.13       0.16
      7.59       0.52       0.31
      8.36       0.27       0.76
      7.93      -0.45       0.76
      8.65       0.09      -0.09
      7.64       0.55      -0.24
      7.67       0.56       0.29
      7.77       0.83      -0.13
      7.40       0.52       0.03
      7.13       1.03      -0.78
      7.06       1.20      -0.23
      6.20       0.64      -0.23
      7.25       1.05      -0.32
      7.75       0.94      -0.01
      7.79       1.14      -0.06
      7.07       0.91      -0.20
      7.30       0.86       0.29
      7.54       0.58       0.06
      8.19       0.65       0.79
      7.08       0.29       0.30
      6.70       0.29       0.35
      5.82      -0.08      -0.14
      7.27      -0.05       0.43
      6.55      -0.14      -0.32
      5.96      -0.50      -0.21
      5.41      -0.19      -0.17
      7.36       0.02      -0.56
      6.74      -0.18      -0.79
      6.34      -0.86      -0.72
      6.89      -0.66      -0.75
      6.67      -0.23       0.09
      6.95      -1.25      -0.75
      5.80      -0.27      -0.67
      5.80      -0.20      -0.72
      5.91      -0.62      -0.40
      6.39      -0.18      -0.65
      7.33       0.93      -0.29
      7.49       0.30       0.05
      5.52      -0.27      -0.12
      7.45      -0.68      -0.20
      7.73      -0.86      -0.56
      7.32       0.65      -0.30
      7.96      -0.88      -0.24
      6.84       0.13      -0.31
      6.41       0.07      -0.22
      6.75       0.19       0.09
      6.70       0.27      -0.36
      6.42       0.57      -0.16
      6.29      -0.06       0.04
      6.69       0.08       0.17
      7.04       0.12       0.52
      7.15      -0.21       0.52
      6.02      -0.02       0.00
      6.42       0.10      -0.23
      6.51      -0.33      -0.31
      7.68      -0.33      -0.06
      6.72      -0.69      -0.12
      6.84       0.28       0.18
      5.99       0.20       0.64
      5.66      -0.35       0.50
      6.14      -0.54       0.01
      5.79      -0.53      -0.09
      5.54      -0.47      -0.05
      6.49      -0.01      -0.10
      6.17      -0.48      -0.48
      7.43      -0.59       0.61
      6.52      -1.14      -0.34
      6.55      -0.76      -0.38
      6.17      -0.10       0.44
      4.93       0.20      -0.47
      5.44      -0.40      -0.42
      5.12      -1.54      -0.20
      5.54      -0.07      -0.65
      5.99      -0.21      -0.27
      5.46       0.73       0.41
      5.28      -0.01       0.33
      5.55       0.51      -0.23
      5.53       1.09       0.01
      5.64       0.88       0.00
      6.52       0.69      -0.00
      5.77       0.54       0.06
      6.07      -0.23       0.47
      6.73       0.25       0.37
      7.68      -0.22      -0.80
      7.32      -0.74      -0.25
      6.73       0.32      -1.07
      6.69       0.53      -0.28
      6.78       1.31      -0.12
      6.86       1.14      -0.20
      7.33       0.93      -0.75
      7.58       0.52       0.22
      6.96      -0.35      -0.01
      6.63      -0.73      -0.20
      6.85       0.24       0.31
      8.05       0.65      -0.07
      7.85       1.35       0.03
      8.12       1.09      -0.59
      8.93       0.97      -0.70
      9.52      -0.15      -0.32
      9.44       0.34       0.53
      9.53       0.08       0.44
      9.91      -0.94       0.11
      8.47      -2.05      -0.43
      8.53      -0.64       0.05
      8.59      -1.08       0.86
      9.21      -0.49      -0.18
      7.97       0.32      -0.02
      8.39       1.04       0.59
      7.66       0.89      -0.20
      8.00       0.78      -0.04
      7.60       0.95      -0.07
      6.95       0.83      -0.14
      8.25       0.59      -0.46
      7.04       0.34      -0.77
      7.08      -0.09      -0.45
      7.95       0.37       0.13
      6.47      -0.09      -0.55
      8.11       0.29       0.02
      6.92       0.37       0.46
      7.52       0.61       0.30
      7.72       0.92      -0.05
      6.70       0.12       0.36
      6.54      -0.06       0.04
      5.89      -0.35       0.19
      6.35       0.12      -0.15
      6.31       0.26      -0.36
      6.22      -0.03      -0.07
      7.17      -0.01      -0.55
      7.56      -0.44       0.14
      6.61       0.31       0.41
      6.79      -0.06      -0.13
      6.94       0.40      -0.26
      6.41      -0.31       0.22
      5.70       0.16      -0.59
      5.67      -0.64      -0.41
      6.09      -0.79      -0.21
      6.57       0.39      -0.24
      7.74       0.76      -0.24
      7.13       0.34      -0.14
      6.30      -0.88      -0.18
      6.95       0.06       0.02
      6.86      -0.20       0.12
      7.44       0.15      -0.34
      6.74       0.64      -0.78
      6.56       0.40      -0.56
      7.01       0.46      -0.54
      6.14      -0.35      -0.02
      6.89      -0.80       0.01
      6.69       1.59       0.25
      7.15       0.63       0.85
      7.07       0.83       0.43
      6.19       0.45       0.42
      5.74       0.21       0.17
      6.87      -1.16       0.11
      6.71      -0.63       0.56
      6.10      -0.85       0.38
      6.92      -1.04       0.30
      6.34      -0.73       0.22
      5.80      -0.06       0.18
      5.66      -0.67       0.62
      5.50       0.22       0.70
      5.10      -0.68       1.17
      6.11      -0.81       0.34
      5.74      -0.91      -0.33
      6.08      -0.37      -0.49
      6.42      -0.15       0.24
      6.61      -0.63       0.50
      6.84      -0.76      -0.45
      6.94       0.00      -0.16
      6.56      -0.11      -0.67
      5.91      -0.17       0.45
      5.56      -0.31      -0.48
      5.69      -0.87       0.11
      4.69       0.67      -0.78
      5.64       0.52      -0.49
      6.47       0.50      -0.63
      5.47       0.68      -0.40
      5.18      -0.13       0.32
      5.53       0.73       0.43
      6.33       0.35       0.53
      6.73       0.17       0.15
      6.28      -0.37       0.01
      6.15      -0.40       0.48
      6.15       0.99      -0.26
      7.53       0.30       0.00
      8.42      -0.01      -0.19
      7.26      -0.44      -0.39
      7.96      -0.42      -0.42
      7.26       1.09      -0.38
      7.52       0.97       0.32
      7.54       0.75      -0.84
      8.02       1.72      -0.13
      8.36       1.34      -0.20
      8.38       0.96       0.66
      7.66       0.25      -0.38
      7.52      -0.19      -1.15
      8.11       1.48      -0.52
      8.66       1.25       0.09
      9.33       0.88       0.16
      8.52      -0.10       0.21
      8.17      -0.08       0.15
      9.07       0.01       0.05
      8.39      -0.03      -0.09
      8.61      -1.12      -0.40
      9.35      -0.46       0.25
      9.33      -0.20       0.13
      9.30       0.62       0.32
      9.11      -0.07       0.29
      9.10      -0.28      -0.04
      8.27       1.51      -1.10
      7.97       0.43      -0.34
      7.46       0.65       0.32
      7.23       0.50       0.54
      7.66       0.35      -0.07
      8.93       0.92      -0.72
      7.93       0.27      -0.49
      7.55       0.02      -0.72
      8.68      -0.12       0.03
      7.75       0.28       0.27
      7.59      -0.19      -0.09
      7.56       1.36       0.14
      6.95       0.13       0.29
      6.26      -0.22       0.20
      5.59      -0.16       0.03
      6.83       0.23       0.12
      6.01      -0.09      -0.03
      6.03       0.24      -0.57
      6.36      -0.03       0.32
      6.47      -0.37       0.44
      6.19      -0.38       0.39
      5.84       0.40       0.18
      5.59      -0.22       0.25
      6.42      -0.78      -0.29
      6.58       0.08       0.01
      6.28      -0.09      -0.48
      5.83      -0.04      -0.49
      5.74       0.51      -0.73
      7.58       0.06      -0.55
      7.69      -0.59      -0.66
      7.14      -0.38      -0.23
      7.58      -0.60      -0.39
      7.58      -0.41       0.28
      6.72      -0.04       0.31
      6.24      -0.96      -0.56
      6.30      -0.27       0.15
      7.15      -0.18      -0.46
      6.61      -0.24      -0.50
      6.24      -1.29      -0.69
      6.85      -0.75       0.14
      6.05      -0.47      -0.14
      5.82       0.03       0.05
      5.19       0.09       0.11
      6.25      -0.22       0.57
      6.29      -0.13       1.20
      6.97      -0.81       0.71
      7.50      -0.91       0.88
      7.52      -1.26       0.49
      7.47      -0.85       0.34
      7.75      -0.73      -0.09
      7.08      -0.42       0.11
      6.94      -0.82      -0.08
      6.49      -0.71       0.93
      6.45      -0.01       0.40
      6.31      -0.69       0.61
      7.20      -0.79       0.26
      6.29      -0.16      -0.49
      6.29      -0.82      -0.06
      7.22      -1.02      -0.29
      6.92      -0.49      -0.24
      6.23      -0.47      -0.51
      5.40       0.14      -0.26
      5.87       1.45       0.06
      5.22       0.51      -0.25
      6.51      -0.12       0.15
      5.93      -0.19      -0.73
      5.73       0.22      -0.99
      5.90       0.63      -0.63
      5.41       0.21      -0.08
      5.44      -0.06       0.16
      6.33      -0.18       0.42
      5.53       0.48       0.27
      5.31       0.47       0.31
      6.03       0.34      -0.12
      6.86      -0.02      -0.03
      6.59       0.45       0.53
      6.58       0.62      -0.78
      8.50       0.29       0.72
      7.87      -0.02       0.13
      7.92       1.18       0.02
      7.52       0.38       0.37
      7.82       0.43       0.09
      7.52       1.33       0.06
      7.89       0.73      -0.21
      8.29       1.38      -0.41
      8.39       0.96      -0.27
      8.00       0.71      -0.83
      8.53       0.80       0.34
      8.19       0.88       0.68
      8.74       1.29       0.09
      8.42      -0.32      -0.70
      7.81       0.41       0.12
      9.17       0.68       0.21
      8.08       0.35       0.34
      9.68       1.46      -0.15
      9.45       0.18       0.60
     10.30       0.29       0.33
      9.76       0.23      -0.59
     10.26      -0.01      -0.60
      9.62       0.68      -0.53
      9.13       0.82      -0.34
      7.98       1.38      -0.02
      7.39       0.32      -0.14
      7.98       1.55      -0.01
      7.90       0.98       0.06
      8.78       1.10       0.50
      7.24       0.46      -0.27
      7.92      -0.07      -0.75
      7.61       0.19      -0.03
      8.51      -0.15      -0.45
      8.62       0.41      -0.27
      8.16       0.77       0.32
      8.13       0.83       0.32
      8.39       0.44       0.40
      6.71       1.13      -0.24
      6.70       0.60       0.05
      6.07      -0.07       0.22
      7.49      -0.50      -0.38
      5.58       0.55       0.27
      5.02       0.32       0.20
      5.59       0.22       0.02
      5.21       0.80       0.09
      6.15      -0.25      -0.18
      5.44      -0.13      -0.17
      5.63       0.71       0.21
      6.59       0.43      -0.12
      6.80       1.19      -0.25
      7.43       0.22       0.27
      7.27       0.54      -1.09
      7.40       0.05      -0.57
      8.52      -0.39      -0.29
      7.20      -1.12       0.08
      7.84      -0.37       0.16
      7.66      -0.17      -0.42
      7.04      -0.16       0.24
      6.64      -0.22       0.20
      7.02      -0.43      -0.05
      7.61      -0.39       0.32
      8.15       0.38      -0.50
      7.87      -0.30      -0.03
      6.93       0.60      -0.19
      6.99       0.22       0.18
      6.35      -0.26       0.15
      6.15       0.44       0.13
      6.32      -0.54       0.54
      6.63      -0.17       0.80
      7.43      -0.52       0.83
      8.40      -0.63       0.30
      6.83      -0.75      -0.06
      8.35      -0.72       0.16
      7.21       0.23      -0.17
      7.77      -0.37       0.10
      7.31      -1.03       0.21
      7.31      -0.74       0.15
      6.99      -0.16       0.29
      6.24      -1.30       0.63
      7.32      -0.95       0.32
      7.76      -1.48      -0.48
      7.05      -0.73       0.65
      7.09      -0.91      -0.13
      6.88      -0.38      -0.34
      6.01       0.72      -0.81
      5.45      -0.47      -0.69
      5.32      -0.50       0.10
      6.35       0.09      -0.29
      7.55       0.52      -0.35
      5.95       0.63       0.17
      5.77       0.43      -0.40
      6.72       0.49      -0.33
      5.89      -0.26      -0.20
      4.96       0.11       0.13
      5.26       0.26       0.57
      7.22       0.22       0.42
      6.40       0.16       0.32
      7.21      -0.18       0.12
      7.44       0.37      -0.13
      6.76      -0.20      -0.11
      8.09      -0.13       0.05
      8.55       0.99      -0.17
      9.09       0.16      -0.58
      8.26       0.33      -0.12
      8.76       0.89       0.06
      7.77       0.91       0.44
      7.89       1.36      -0.05
      9.12       0.81      -0.44
      8.12       1.50      -0.53
      8.35       0.70      -0.82
      8.83       1.06      -0.50
      9.26       0.45      -0.45
      9.71       1.00      -0.37
      8.99       1.14       0.19
     10.14       0.45      -0.63
      9.82       0.80      -0.10
      8.80       0.56       0.07
      9.82       0.11       0.65
      9.85       0.31      -0.02
     10.62       0.27       0.54
     10.64       0.17       0.23
     10.55       0.79       0.17
      9.88       1.10      -0.23
      8.79       0.58      -0.04
      8.48       0.53      -0.82
      7.57       1.16       0.19
      7.38       0.14       0.01
      7.62      -0.14      -0.67
      7.72       0.13       0.19
      7.28       0.15       0.10
      7.30       0.93      -0.45
      7.07      -0.04       0.07
      7.49      -0.41      -0.51
      8.81       1.01       0.15
      8.44       0.16       0.25
      8.48       0.09      -0.08
      8.75       1.22       0.77
      8.56      -0.20       1.19
      7.84       0.46       0.24
      7.38       0.53      -0.29
      6.97       0.65       0.06
      7.03       0.74      -0.31
      6.24       0.23       0.10
      6.25       1.21       0.71
      5.52       0.40       0.79
      5.75       0.71      -0.25
      6.26       0.11      -0.21
      5.94       0.31      -0.39
      6.25       0.32      -0.29
      6.32       0.93      -0.27
      8.15       0.17       0.08
      7.67       0.12       0.30
      8.50      -0.31      -0.37
      8.32      -0.74      -0.59
      7.84      -0.61       0.15
      7.51      -0.93      -0.59
      7.66      -0.80      -0.51
      7.98      -0.26      -0.21
      7.91      -0.09      -0.25
      8.07       0.27      -0.35
      7.16      -0.04      -0.11
      7.66       0.27      -0.14
      8.29      -0.24      -0.15
      8.20      -1.49      -0.45
      7.67       0.47       0.14
      7.49       0.52       0.07
      6.36      -0.42       0.84
      5.89      -0.31       0.51
      6.82      -0.41      -0.18
      7.46      -0.82       0.28
      9.04      -1.49       0.12
      8.45      -2.29      -0.57
      7.93      -1.64      -0.31
      8.35      -0.12      -0.85
      7.39      -0.45      -0.31
      7.07      -0.79       0.15
      7.11      -0.14       0.15
      7.35      -1.27       0.49
      7.45      -0.52       0.43
      7.61      -0.70      -0.01
      6.85      -1.20       0.23
      7.26      -1.21      -0.30
      7.90      -1.01      -0.33
      6.48       0.17      -0.48
      6.86       0.22      -0.19
      6.83       0.88      -0.58
      5.72      -0.04      -0.25
      6.53       1.04      -0.18
      7.16       1.01      -0.80
      7.28       0.18      -0.91
      7.21       1.01      -0.22
      6.91       0.67       0.36