# vtk DataFile Version 3.0
Low resolution, disturbed wind of YZ Slice at time = 0 seconds.
ASCII
DATASET STRUCTURED_POINTS
DIMENSIONS     1   101    35
ORIGIN    1504.00    -500.00       5.00
SPACING       9.71      10.00      10.00
POINT_DATA            3535
VECTORS DisYZ float
      5.42       1.95      -0.70
      6.46       1.03      -0.13
      6.17       1.34       0.12
      5.91       0.52       0.62
      4.47       0.39      -0.16
      4.82      -0.56      -0.40
      5.40       0.51       0.08
      5.13       0.09       0.37
      4.90       0.49       0.05
      4.87      -0.09       0.16
      4.72      -0.62       0.52
      4.58      -0.18       0.40
      4.56      -0.28       0.26
      4.88      -0.89       0.09
      4.41      -0.73       0.45
      5.16      -0.38       0.14
      5.56      -0.14       0.35
      5.50      -0.60       0.16
      5.47      -1.18       1.13
      4.96      -0.13       0.75
      4.33      -0.48      -0.10
      5.60      -0.03       0.42
      5.74       0.59       0.25
      4.98       0.13      -0.46
      4.73       0.22      -0.45
      3.72      -0.17      -0.27
      3.68       0.20      -0.35
      3.43       0.13      -0.35
      3.56       0.85      -0.58
      4.79      -0.28      -0.72
      4.98      -0.30      -0.75
      4.18      -0.15       0.30
      2.39      -0.83      -0.53
      2.84       0.28      -0.18
      4.11       0.96      -0.41
      2.39       0.03      -0.45
      2.72      -0.07      -0.59
      2.67       1.28       0.00
      3.81       1.05       0.19
      3.16       0.65       0.02
      2.58      -0.60       0.33
      3.36       0.90      -0.59
      3.56       0.37      -1.02
      2.45       0.72      -0.55
      3.32       0.70      -0.78
      4.12       0.38      -0.15
      3.38       0.44      -0.17
      2.58       1.31      -0.49
      3.06       0.53       0.01
      1.87       0.72      -0.21
      2.21       1.58       0.05
      1.54       0.27      -0.09
      2.61       0.02       0.35
      2.07       0.25      -0.06
      2.01       0.23       1.03
      3.19       0.46       0.73
      3.34       0.52       0.24
      2.93       0.41       0.69
      2.49       0.62       0.67
      3.94       0.21       0.57
      3.08      -0.75      -0.07
      4.25      -0.15       0.29
      4.45       0.29       0.55
      3.83       0.36       0.26
      4.82      -0.53      -0.62
      4.80       0.68      -0.30
      4.75      -0.42      -0.75
      6.65      -0.44      -0.16
      5.14      -0.05       0.37
      5.93       0.22      -0.08
      6.10       0.42      -0.21
      6.55      -0.06      -0.21
      5.44      -0.03      -0.70
      5.51      -0.55       0.15
      4.78      -0.75      -0.10
      4.69      -0.84      -0.39
      4.56       0.24      -0.29
      3.50       0.42       0.24
      2.71       0.59       0.12
      3.49       0.02       0.38
      2.43      -0.48       0.21
      4.01      -0.48      -0.19
      4.36      -0.45      -0.03
      4.19      -0.83       0.47
      2.42      -0.86       0.62
      4.04      -0.01      -0.14
      3.07       0.08      -0.37
      3.58       0.69      -0.49
      3.57      -0.47      -0.13
      4.50      -0.54       0.31
      4.56      -0.58       0.41
      5.40       0.07       0.10
      5.09       0.38       0.30
      4.84      -0.24      -0.50
      4.56      -1.08       0.20
      4.25      -0.06       0.28
      3.73       0.07       0.40
      5.50       0.23      -0.05
      4.97       0.30       0.76
      4.46      -0.54       0.65
      4.70      -0.37       0.61
      5.40       0.85       0.19
      5.42       1.62       0.33
      6.87       1.11       0.35
      6.31       0.05       0.51
      7.22       0.28      -0.22
      6.62      -0.48      -0.41
      5.82      -0.20      -0.32
      5.39      -0.28       0.40
      5.75      -0.62       0.58
      6.31       0.81      -0.56
      6.72      -0.28      -0.68
      6.22      -0.05       0.39
      5.32      -0.35       0.35
      6.53      -0.33       0.37
      5.98      -0.55       0.37
      7.49       0.29       0.23
      7.46      -0.40       0.31
      6.48      -0.42       0.65
      5.90      -0.60       0.03
      6.04      -0.38       0.33
      6.39      -0.75       0.23
      7.20       0.12      -0.47
      7.08       0.69       0.41
      6.32      -0.21      -0.48
      6.25      -0.25      -0.39
      5.22      -0.12      -0.52
      5.21      -0.72      -0.08
      5.21      -0.02      -0.13
      5.31       0.63      -0.14
      6.33       0.21      -0.63
      5.10      -0.01      -0.42
      5.09       0.50       0.08
      3.95       0.57      -0.78
      4.85       0.54       0.05
      5.37       1.28       0.33
      4.82       0.72      -0.78
      6.34       0.18      -0.99
      4.27       0.40      -0.29
      4.11       1.31      -0.09
      4.24       0.38      -0.35
      4.95       0.50       0.14
      4.71       1.88      -0.38
      5.37       1.12      -0.08
      4.31       0.60       0.13
      5.06       0.68      -0.66
      4.76       0.76      -0.32
      5.07       0.32       0.39
      3.40       1.05       0.16
      3.54       0.80       0.18
      3.74       1.26       0.48
      3.87       0.96      -0.20
      3.05       0.47       0.48
      3.12       0.44      -0.39
      4.45      -0.04      -0.22
      4.01       0.05       1.00
      2.66       0.15       0.38
      3.56       0.96       0.11
      3.45       0.95       0.00
      4.49       0.47       1.33
      3.50       0.06       0.54
      4.35      -0.48      -0.44
      4.72      -0.29      -0.56
      4.53      -0.54       0.30
      4.82      -0.89       0.33
      6.47      -0.79      -0.53
      6.59       0.12      -0.23
      6.97      -0.36      -0.66
      6.99       0.65      -0.00
      6.33      -0.67      -0.05
      5.83       0.16      -0.22
      6.63      -0.23       0.25
      7.20      -0.69      -0.18
      5.99       0.16       0.03
      5.78      -0.61      -0.09
      6.16      -0.97       0.12
      5.79      -0.22      -0.27
      5.13      -0.09      -0.71
      4.37       0.39       0.03
      3.37       0.98      -0.29
      4.33       0.47      -0.23
      4.00      -0.20       0.16
      4.15      -0.47      -0.87
      5.08      -0.97       0.18
      4.51      -1.37       0.10
      3.86      -0.15      -0.18
      4.51      -1.00       0.98
      4.14      -0.08      -0.26
      5.20      -0.57      -0.19
      5.42       0.08       0.06
      5.97      -0.74       0.09
      6.11      -0.52       0.58
      6.06       0.16       0.48
      6.50       0.84       0.86
      5.71       0.43       0.71
      6.28       0.30       0.64
      5.00      -0.08       0.48
      5.47      -0.55       0.90
      5.63       0.32       0.68
      5.37       0.50       0.36
      5.86      -1.15       0.04
      5.15      -0.92       0.07
      6.67       0.35      -0.48
      6.15       0.19      -0.28
      6.37       0.54       0.07
      6.23      -0.11       0.21
      6.61       0.26       0.38
      6.50      -0.32      -0.54
      6.55       0.24      -1.26
      6.18       0.11      -0.76
      6.31       0.40      -0.06
      6.96       0.40       0.21
      7.36      -0.70      -0.24
      6.58       0.43      -0.00
      6.36      -0.17       0.05
      6.47      -0.06       0.19
      5.89      -0.25       0.41
      6.57       0.60       0.41
      8.26      -0.55       0.44
      7.00      -0.04       0.99
      6.84      -0.70       0.34
      7.86      -0.94       0.18
      7.18      -0.64       0.02
      6.96      -0.44       0.08
      6.52      -0.69       0.66
      7.30      -0.55       0.16
      6.35       0.24       0.09
      6.33       0.44       0.02
      6.61       0.03      -0.45
      5.57       0.32      -0.24
      6.26       0.34      -0.18
      5.32       0.57      -0.91
      6.67      -0.15      -1.12
      6.06       0.64      -0.10
      5.12       0.39      -0.08
      5.75       0.19      -0.34
      5.80      -0.24      -0.32
      5.64       0.95      -0.24
      5.00       0.49      -0.56
      4.76      -0.51      -0.78
      4.73       0.29      -0.45
      5.56       0.77       0.58
      4.70       0.50       0.45
      5.17       0.91      -0.44
      4.02      -0.02      -0.71
      5.20      -0.01      -0.36
      4.76       0.51      -0.36
      4.84       0.04      -0.47
      4.53       0.29       0.34
      4.13       1.20      -0.13
      3.86       0.56      -0.17
      3.62       0.72      -0.03
      3.67       0.74      -0.16
      2.43      -0.49      -0.10
      2.37       0.06      -0.19
      4.27       0.51      -0.15
      4.60      -0.73       0.25
      4.55      -0.37       0.78
      4.35       0.27       0.68
      4.85       0.53       0.39
      4.67       0.45       0.64
      4.62      -0.32       0.65
      4.62      -0.78       0.56
      5.21      -0.97       0.17
      5.65      -1.01      -0.09
      5.72       0.01       0.21
      7.07      -0.89      -0.06
      8.20      -0.29       0.52
      8.21      -0.41       1.19
      8.28       0.03       0.18
      7.64      -0.80      -0.08
      6.32      -0.05       0.49
      7.52      -0.14       0.38
      6.69      -0.73       0.07
      6.06      -0.14       0.52
      6.50      -0.17      -0.13
      6.01      -0.85      -0.04
      6.32       0.23      -0.43
      6.12       0.59      -0.69
      6.49       0.69      -0.47
      5.58       0.70      -0.56
      4.07       1.02      -0.54
      4.83       0.21      -0.17
      4.55      -0.62      -0.20
      4.46      -0.77      -0.69
      4.59      -1.04      -0.31
      4.60      -1.21      -0.03
      4.37      -1.17      -0.60
      4.71      -0.30      -0.14
      5.71      -0.12      -0.13
      6.89      -0.51      -0.26
      6.70      -0.24       0.57
      6.14       0.41       0.62
      6.38       0.95       0.32
      6.75       1.52       0.68
      5.47       0.48       0.27
      6.10       0.91       0.66
      6.80       0.18       0.64
      6.47      -0.15       1.02
      5.83       0.61       0.68
      6.16       0.23       0.58
      6.46       0.03      -0.16
      6.17       0.08       0.10
      6.53      -0.60       0.20
      6.38       0.51       0.50
      6.42       0.78       0.35
      7.92      -0.20       0.13
      6.53      -0.48       0.09
      6.18      -0.63      -0.45
      7.55       0.31      -0.14
      5.99       1.02       0.18
      6.01       0.53       0.11
      6.69       0.44       0.13
      7.59       0.77       0.47
      6.21       0.66       0.51
      6.44       0.03      -0.06
      6.46      -0.97       0.22
      6.85      -0.33       0.29
      7.52       0.27       0.75
      8.19      -0.15       0.03
      7.74      -1.17       0.69
      8.30      -0.96       0.28
      7.93      -0.34       0.71
      8.27      -0.25      -0.17
      7.13       0.13       0.24
      8.22      -0.41       0.09
      7.35      -0.62      -0.00
      7.43       0.35       0.37
      7.13      -0.24      -0.41
      6.27       0.28      -0.95
      5.95       0.21      -0.64
      7.06       0.29      -0.49
      6.27       0.40      -0.83
      6.97       0.71      -0.99
      6.48       0.90      -0.63
      5.87       0.40      -0.87
      6.16       0.08      -0.28
      5.16      -0.00      -0.54
      5.66       0.29      -0.67
      5.35       0.00       0.40
      5.76      -0.25      -0.08
      6.11       0.51      -0.02
      5.38       0.61       0.30
      5.41       0.94       0.39
      5.19       0.51       0.18
      5.25       1.11      -0.53
      5.66      -0.39       0.20
      5.26      -0.46      -0.40
      5.35      -0.24      -0.66
      3.36       0.40      -0.20
      3.45       0.74      -0.63
      3.75      -0.16       0.19
      3.57       0.23      -0.56
      3.41       1.05       0.60
      3.97       0.08      -0.37
      4.05      -0.16       0.01
      3.91      -0.49      -0.28
      4.37      -0.31       0.82
      5.20      -0.10       0.11
      5.24       0.14       0.84
      5.16       0.89       0.66
      5.08      -0.06       0.54
      5.48       0.44       0.56
      6.10       0.31       1.06
      6.79       0.12       0.16
      5.05      -0.38       0.91
      5.56      -0.90      -0.23
      6.48       0.09      -0.21
      7.18       0.06       0.71
      8.24      -0.29       1.06
      8.46       0.56       0.40
      6.85      -0.16       0.21
      7.77      -0.38       0.21
      8.14      -0.32      -0.07
      7.00      -0.58       0.24
      7.09      -0.12       0.09
      6.71       0.66      -0.01
      7.21       0.28       0.07
      6.65       0.18      -0.67
      6.31       1.24      -0.42
      6.58       0.30      -1.01
      6.07      -0.30      -0.52
      5.58      -0.10      -0.59
      5.00      -0.20      -0.70
      5.95      -0.52      -0.64
      5.56      -0.92      -0.27
      4.67      -0.61      -0.07
      4.66      -0.65      -0.61
      4.81      -0.77      -0.65
      5.65      -1.19       0.25
      5.90      -0.49      -0.34
      5.78      -0.15       0.33
      5.89       0.39       0.40
      6.14       0.38       0.16
      6.31       1.44      -0.01
      6.62       0.88       0.36
      5.60       1.27      -0.05
      6.87       1.22      -0.22
      6.83       0.82       0.04
      6.87       1.26       0.69
      7.11       0.20       0.01
      6.31      -0.02       0.38
      6.45      -0.62       0.05
      6.58      -0.49       0.59
      7.66      -0.65      -0.05
      7.14      -0.48       0.26
      6.49       0.73       0.05
      8.72      -0.52      -0.21
      8.16      -0.11       0.47
      7.48      -0.82      -0.18
      6.65       0.21       0.01
      6.73      -0.17       0.02
      7.08       0.56       0.08
      6.85      -0.06       0.05
      6.83      -0.18       0.32
      5.75      -0.57       0.83
      5.94      -0.76       0.47
      6.77      -0.76       0.14
      7.47      -0.36       0.17
      7.77      -0.39       0.85
      8.44      -0.68       0.15
      8.76      -0.23       0.45
      8.17      -0.34       0.30
      8.83      -0.20       0.27
      7.84       0.81       0.55
      7.20       0.73       0.34
      7.88       0.63       0.70
      7.73       0.46       0.31
      6.77      -0.42       0.37
      7.11       0.83      -0.44
      7.24       0.25      -0.18
      6.79      -0.40      -0.77
      6.54      -0.24      -0.01
      7.30       0.15      -0.58
      7.80       0.77      -0.29
      7.58       0.21      -0.55
      7.09       0.13       0.32
      6.84       0.94       0.04
      6.23       0.58      -0.08
      6.48      -0.20      -0.30
      5.24       0.32       0.13
      6.58      -0.13       0.28
      6.60       0.65       0.03
      6.37       0.88       0.34
      6.62       1.36       0.13
      6.12       0.76      -0.75
      6.57       0.71      -0.39
      5.70       0.48      -0.74
      7.31       0.51      -0.22
      5.92       0.48      -0.59
      4.63       0.88      -0.61
      4.73       0.75      -0.70
      4.86       0.43      -0.43
      4.26       0.36       0.25
      4.89      -0.39       0.09
      4.39      -0.29       0.28
      5.68      -0.06       0.14
      5.55       0.29      -0.46
      4.71      -0.20      -0.24
      4.91      -0.77       0.35
      5.18      -0.21       0.73
      6.25       0.62       0.62
      5.92       0.09       0.22
      5.63       0.04       0.50
      5.33       0.37       1.57
      5.87      -0.73       1.35
      5.97      -0.57       0.80
      7.04       0.03       0.77
      7.10      -0.20       0.58
      7.63       0.43       0.18
      8.92       0.11       0.75
      8.07      -0.46       0.11
      8.09       0.58       0.24
      8.17      -0.32       0.47
      8.12       0.31       0.43
      8.16       0.29       0.02
      6.80      -0.47       0.54
      6.33       0.03      -0.28
      7.35      -0.34      -0.73
      6.62       0.33       0.07
      6.47       0.67      -1.04
      6.78       0.40      -0.48
      6.24       0.24      -0.72
      6.13      -0.11      -0.38
      5.71       0.54      -0.45
      5.58      -0.29      -0.76
      5.48      -0.76      -0.29
      5.22      -1.03       0.40
      5.81      -0.16      -0.14
      5.94       0.13       0.22
      6.71      -1.07      -0.47
      6.23       0.20      -0.05
      6.83       0.40       0.23
      7.05      -0.24       0.32
      5.57       0.74      -0.01
      6.10       1.48      -0.32
      6.90       0.40       0.08
      6.39       1.69       0.17
      8.02       1.09      -0.44
      7.16       0.48       0.37
      7.57       0.12      -0.25
      7.15       0.43      -0.51
      6.45      -0.09       0.05
      6.98      -0.70      -0.09
      7.95       0.16      -0.15
      7.25       0.74       0.37
      7.46      -0.40       0.38
      7.54      -0.98       0.09
      7.41      -0.41       0.21
      7.45       0.04       0.12
      8.14      -0.53      -0.00
      7.14      -0.40      -0.41
      6.61      -0.70      -0.22
      7.10       0.08       0.15
      7.22      -0.68       0.06
      7.23      -0.39       0.68
      6.29      -1.39       0.19
      5.46      -1.62      -0.13
      6.41      -0.58       0.46
      7.07      -0.65      -0.19
      7.41      -0.77       0.47
      7.13      -1.07       0.08
      8.02      -1.17       0.14
      7.44       0.46      -0.16
      7.33       0.01       0.00
      8.20       0.56       0.28
      7.72      -0.09      -0.13
      7.50       1.03      -0.08
      7.67       0.38       0.72
      7.72      -0.32       0.38
      7.32      -0.92      -0.08
      6.81      -0.07      -0.03
      7.99      -0.44      -0.33
      7.01      -0.08      -0.39
      8.06       0.75      -0.28
      7.41       0.95      -0.39
      7.56       0.41       0.19
      7.42       0.36      -0.77
      6.81       0.16      -0.09
      6.39       0.70       0.15
      7.63       0.39      -0.28
      7.48       0.94      -0.91
      7.44       0.53      -0.27
      7.16       0.49      -0.34
      6.54       0.67       0.12
      6.27       1.75      -0.33
      5.96       1.13      -0.13
      7.16       1.22      -0.79
      7.14       0.17      -0.14
      6.35       0.25      -0.04
      5.69       0.43      -0.19
      6.20       0.72      -0.33
      6.23      -0.13      -0.06
      5.58       0.53      -0.93
      5.51       1.35      -0.31
      5.19      -0.53      -0.20
      5.15      -0.74      -0.30
      5.47      -0.57      -0.34
      5.76      -0.13      -0.03
      3.92      -0.09       0.10
      5.68      -0.38      -0.38
      4.79      -0.42      -0.11
      5.43      -0.56       0.20
      6.60      -1.35       0.31
      6.80      -0.52       0.41
      6.40      -0.35       0.94
      6.97      -1.42       0.26
      6.29      -0.98       1.14
      6.87      -0.00       0.54
      6.78      -0.60       0.60
      6.40       0.05       0.53
      7.14      -0.08       0.38
      8.44      -0.43       1.22
      8.79       0.52      -0.28
      8.44       0.12       0.69
      8.15       0.64       0.97
      7.42       0.17       0.84
      7.75       0.70       0.45
      7.28       0.79      -0.53
      6.73       0.81      -0.14
      7.09       0.74       0.09
      6.18       1.37      -0.58
      6.19       0.70      -0.37
      6.96       1.12      -1.14
      6.70       0.60       0.25
      5.91       0.39      -0.29
      5.90      -0.55       0.10
      5.19      -0.69      -0.21
      5.00      -0.49       0.26
      5.71       0.10       0.88
      6.62      -0.19      -0.23
      6.84       0.02      -0.44
      6.40       0.58       0.04
      7.66       0.26       0.21
      6.15       0.18       0.52
      5.90       1.07      -0.01
      6.86       1.01       0.47
      6.29       1.87       0.26
      7.42       1.24       0.60
      7.01       0.49       0.53
      8.30       0.38       0.12
      7.36       1.23      -0.02
      7.76       0.23      -0.05
      7.21       0.94      -0.06
      7.51       0.30       0.30
      6.83       0.18      -0.20
      7.05      -0.12       0.96
      7.23      -0.17       0.25
      7.39      -0.90       0.41
      6.65      -0.12      -0.46
      7.79      -0.11       0.05
      8.50       0.37      -0.19
      6.91       0.21      -0.41
      7.31       0.06      -0.30
      7.01      -0.45       0.43
      7.42      -0.59       0.21
      6.64      -1.48      -0.16
      6.40      -1.25       0.12
      6.30      -1.18      -0.07
      7.16      -0.73      -0.12
      6.61      -1.46      -0.55
      7.55      -2.09      -0.28
      7.13      -0.73       0.34
      7.46      -0.23       0.52
      7.44       0.18       0.32
      7.27       0.46       0.17
      7.25       0.18       0.77
      8.06      -0.26      -0.44
      7.78       0.16       0.44
      7.73       0.65      -0.31
      7.12       0.25       0.20
      8.04      -0.39       0.36
      6.59       0.71       0.33
      7.72       0.38       0.29
      7.66       0.30       0.11
      7.33       0.24       0.37
      7.21       0.90       0.39
      7.08       1.82       0.22
      7.99       1.21      -0.35
      7.72       0.50       0.66
      7.74       0.67       0.06
      7.37       0.76      -0.21
      7.09      -0.57      -0.54
      8.48       0.21      -0.08
      7.21      -0.18      -0.41
      5.75       0.74       0.62
      6.88       0.59      -0.42
      7.89       0.70       0.38
      6.60       1.37      -0.08
      7.42       1.10      -0.55
      7.27       0.50      -0.52
      6.40       0.84      -0.33
      5.99       0.99      -0.24
      6.97       0.14      -0.14
      6.92       1.01      -0.60
      5.07       1.21      -0.40
      6.20       0.39       0.97
      6.61       0.51       0.47
      5.99      -0.98      -0.05
      6.19      -0.25      -0.22
      5.52       0.79       0.12
      6.42      -0.08      -0.30
      5.77      -0.18       0.40
      6.87      -0.66       0.64
      7.75      -0.71      -0.08
      6.23      -0.07       0.54
      6.82      -0.31       0.31
      7.13      -1.45       0.27
      6.87      -1.48      -0.02
      7.53      -1.05       0.04
      7.28      -0.60       0.85
      8.18      -0.68       0.06
      9.05      -0.77       0.18
      8.84       0.14       0.18
      8.64      -0.29      -0.48
      8.23       0.20      -0.29
      7.80       0.70       0.21
      7.02       0.71       1.05
      7.29       0.32       0.04
      8.39       0.83      -1.08
      6.51       0.99      -0.04
      7.10       1.43      -0.11
      6.56       0.66      -0.49
      6.63       0.85      -0.50
      7.51       0.79      -0.31
      8.68       1.09      -0.73
      6.75       1.13      -0.31
      7.11       0.41      -0.58
      6.01      -0.33       0.27
      7.24      -0.24      -0.03
      7.17       0.14       0.01
      7.30       0.77       0.43
      7.94       0.18      -0.10
      5.75       1.16      -0.75
      6.27       0.29       0.57
      6.50      -0.17       0.64
      7.39       0.39       0.92
      7.26       0.81       0.86
      6.69       1.27       0.40
      7.16       0.41       0.27
      7.80       0.35       0.64
      7.93       0.71       0.30
      8.90       1.01       0.55
      8.13       1.00       0.69
      7.30       0.16      -0.03
      7.71      -0.54       0.02
      7.72      -0.16       0.23
      7.66      -0.41       0.42
      7.89       0.27       0.35
      6.71      -0.13       0.23
      6.59      -0.28      -0.24
      8.05       0.12       0.30
      8.15       0.47      -0.02
      7.99      -0.07      -0.19
      7.60      -0.16       0.34
      7.20      -1.13       0.31
      6.99      -0.87      -0.05
      7.12      -1.16      -0.81
      7.27      -0.90      -0.20
      7.06      -1.64       0.22
      6.92      -0.62      -0.33
      5.64      -1.15      -0.27
      6.79      -0.92      -0.53
      7.63      -0.80      -0.03
      7.59      -1.02       0.20
      7.43      -0.56      -0.25
      8.03       0.95      -0.34
      7.05       0.66      -0.20
      7.83      -0.12       0.32
      7.91      -0.42       0.07
      8.49       0.52       0.59
      7.37       0.97      -0.18
      6.55       0.56       0.02
      6.66      -0.19       0.29
      6.82      -0.43       0.22
      7.35      -0.17      -0.22
      7.10       1.05      -0.50
      6.30       0.95      -0.12
      6.07       0.31       0.92
      8.25       0.50      -0.19
      8.23       0.27      -0.74
      7.67       0.72      -0.71
      7.47       0.78      -0.75
      7.23      -0.33      -0.37
      7.22       0.47      -0.08
      7.12       0.15      -0.02
      7.54      -0.11      -0.55
      7.83       0.58       0.16
      6.94       0.77      -0.23
      7.12       0.62      -0.07
      8.06       0.32      -0.18
      6.38       0.74       0.10
      6.83       0.75      -0.62
      5.74       0.25      -0.21
      7.24       0.40       0.10
      6.80       0.93       0.38
      5.43       0.54       0.02
      5.72      -0.28      -0.04
      6.70      -0.27       0.02
      6.93       0.34      -0.56
      7.17       0.55       0.27
      6.47       0.27      -0.43
      6.38       0.06       0.04
      6.75       0.47       0.45
      7.24       0.43       1.32
      7.22      -0.65       0.69
      7.25      -0.49       1.30
      6.78      -1.20       0.36
      6.28      -1.05      -0.40
      7.61      -1.31       0.66
      7.02      -0.44       0.57
      7.86      -0.83       0.77
      7.64       0.00       0.61
      8.53      -0.67      -0.06
      8.61       0.02      -0.14
      9.65       0.65       1.19
      8.96       0.60      -0.37
      8.77       0.71      -0.67
      7.65      -0.41       0.79
      7.45       0.45      -0.08
      7.33       0.99      -0.14
      6.37       0.13       0.11
      7.14       1.39       0.08
      7.07       0.49      -0.00
      7.57       0.40       0.63
      7.93       0.79      -0.05
      8.83       0.68      -0.16
      7.60       0.71      -0.29
      7.10      -0.22      -0.48
      7.43       0.64      -0.90
      7.63      -0.12      -0.47
      7.49       0.37      -0.47
      6.94       0.36      -0.51
      6.91       0.14       0.21
      6.93       0.74       0.16
      7.16      -0.12       0.22
      7.27       0.06      -0.28
      6.87       0.54      -0.01
      8.18       0.98       0.85
      7.20      -0.72       0.85
      7.87      -0.79       0.84
      7.85      -0.55      -0.19
      6.98       0.18       0.48
      8.00       0.45       0.43
      8.04       0.74       0.24
      8.67       0.26       0.38
      7.56       0.31      -0.20
      7.32       0.14       0.29
      7.38      -1.06      -0.05
      8.10      -1.39       0.20
      6.91       0.59      -0.42
      6.32       0.25       0.03
      8.23      -0.38       0.53
      7.74      -0.04       0.06
      7.64      -1.15      -0.02
      7.29      -0.83      -0.46
      7.06      -1.11       0.02
      8.08      -1.68      -0.34
      7.41      -0.81      -0.88
      7.07      -0.61      -0.64
      8.10       0.26      -0.43
      5.79      -0.43      -0.51
      6.55      -0.08      -0.98
      7.43      -0.00      -0.63
      8.16       0.14      -0.25
      7.66      -0.11      -0.05
      7.27      -0.57      -0.46
      7.80       0.45       0.08
      7.63       0.45      -0.69
      7.81      -0.26      -0.92
      8.55       0.33       0.21
      6.84       0.07      -0.01
      7.82       0.29       0.32
      6.80       0.73       0.03
      7.97      -0.62       0.29
      7.01       0.30      -0.11
      7.55       0.36       0.64
      6.70       1.31      -0.01
      6.73       1.13      -0.02
      6.40       0.77      -0.02
      7.17       0.92      -0.85
      8.37       0.90      -0.41
      9.27       1.06      -0.73
      8.65       0.78      -0.25
      7.96       1.44       0.75
      7.21       0.70      -0.13
      7.62       1.10       0.83
      7.99       0.74       0.19
      7.01      -0.54       0.24
      7.54      -0.26      -0.60
      8.21       0.23      -0.23
      7.87      -0.11       0.24
      7.25       0.77      -0.28
      5.78      -0.47       0.10
      6.23       0.67      -0.70
      6.14      -0.01       0.05
      7.31       1.82       0.31
      6.77       1.59       0.63
      5.59       0.04       0.81
      6.54      -0.50       0.27
      6.01      -0.31      -0.66
      7.04       1.14      -0.11
      7.10       0.79      -0.26
      6.86       1.48       0.83
      7.21       1.05       1.04
      7.73       0.54       0.26
      7.16      -0.13       0.65
      7.97       0.01       0.86
      6.67      -0.16       0.62
      7.02      -0.09       0.01
      7.25      -0.66       0.55
      7.67      -0.69       0.65
      7.69      -0.61       0.56
      8.57      -0.31       0.45
      8.84       1.03       0.29
      8.23      -0.87       0.45
      7.63       0.40      -0.62
      9.89       0.74       0.20
      7.95       1.51       0.52
      8.47      -0.01       0.45
      8.62       0.64       0.08
      8.47       1.44      -0.07
      7.65       1.40      -0.55
      7.48       0.57      -0.12
      6.87       1.19       0.49
      7.41       1.57       0.37
      8.35       0.74       0.49
      8.18       0.81      -0.19
      7.31       0.74      -0.98
      7.78       0.83      -0.75
      7.12      -0.37      -0.05
      6.60      -0.66      -0.51
      6.67       0.31      -0.67
      5.97       0.27      -0.22
      6.25       0.46       0.08
      7.12      -0.18       0.64
      8.02      -0.18      -0.02
      6.06      -0.55       0.19
      7.86      -0.09       0.35
      8.68      -0.41       0.64