# vtk DataFile Version 3.0
Low resolution, disturbed wind of YZ Slice at time = 6 seconds.
ASCII
DATASET STRUCTURED_POINTS
DIMENSIONS     1   101    35
ORIGIN    1378.00    -500.00       5.00
SPACING       9.71      10.00      10.00
POINT_DATA            3535
VECTORS DisYZ float
      4.17      -0.43      -0.31
      4.20      -0.16       0.05
      3.24       0.28      -1.16
      3.84       1.22       0.40
      4.49       0.04      -0.47
      3.47      -0.35      -0.63
      2.85       0.42      -0.01
      3.40       0.12       0.33
      3.29       0.62       0.14
      3.37       0.50      -0.54
      3.83       1.10      -0.52
      4.56       0.84      -0.74
      3.78       0.17       0.07
      4.23      -0.36       0.33
      3.71      -0.34      -0.07
      4.10      -0.82      -0.16
      3.47      -0.60      -0.33
      3.05       0.20       0.07
      3.17      -0.58       0.15
      3.13      -1.40       0.34
      3.59      -0.82      -0.16
      3.77      -1.70      -0.62
      4.20      -1.89      -0.54
      4.37      -1.01      -0.06
      3.49      -1.04       0.29
      3.85      -0.92       0.41
      3.99      -0.55       0.41
      3.11      -0.38      -0.35
      2.81       0.40      -0.37
      2.65      -1.25       0.76
      2.54      -0.21      -0.48
      2.94       0.36      -0.06
      4.14      -0.20      -0.45
      3.79      -0.85       0.12
      2.57      -1.07      -0.80
      3.11      -0.33      -0.46
      3.42      -0.75      -0.30
      3.68      -0.22       0.07
      3.69       0.30      -0.52
      2.59       0.26      -0.01
      3.46       0.46      -0.15
      3.21      -0.66      -0.26
      2.77      -0.88      -0.08
      3.00      -1.33       0.70
      2.42      -0.66       0.57
      2.83      -0.99       0.75
      3.49      -1.24      -0.31
      3.70      -0.79      -0.52
      3.97      -0.70      -1.09
      3.34      -1.24      -0.26
      3.56       0.03      -0.02
      4.05       1.01      -0.89
      4.62       0.31       0.06
      4.90       0.51       0.20
      4.76       0.53      -0.35
      4.59      -0.02      -0.97
      4.19      -0.31      -0.70
      5.65      -0.64      -0.92
      4.20      -0.05      -0.29
      5.35      -0.31       0.10
      4.90       0.49      -0.39
      5.25       0.48      -0.26
      4.18       0.59      -0.23
      5.52      -0.19       0.01
      5.26      -0.62      -0.44
      4.53       0.47      -0.51
      3.73       0.99      -0.65
      4.76       0.43      -0.71
      5.96      -1.01      -0.75
      4.56       0.06      -0.06
      4.69      -0.39       0.01
      4.27       0.03       0.61
      5.23       0.46       0.54
      4.78       0.18      -0.01
      5.24      -0.04      -0.48
      4.10      -0.04       0.11
      5.18       0.52       0.46
      5.12       1.13      -0.44
      5.98       0.96      -0.75
      5.91       1.25      -0.77
      5.85       0.25      -0.64
      5.18       0.52      -0.04
      4.50       0.45      -0.76
      5.54       0.09      -0.31
      3.74      -0.31       0.27
      4.74      -0.19      -0.01
      3.79      -0.12      -0.32
      4.06      -0.25       0.02
      3.35      -0.81       0.01
      3.60      -2.14      -0.02
      4.61      -0.93      -0.36
      4.09       0.69      -0.51
      3.58      -0.43      -0.13
      3.83       0.02      -0.64
      4.05      -1.18      -0.78
      3.41      -0.47      -0.74
      3.73      -0.38       0.26
      3.59      -1.18       0.42
      4.88      -0.97      -0.12
      4.37      -1.40      -0.32
      3.87      -0.14      -0.42
      5.95       0.07      -0.10
      5.58       0.19      -0.20
      4.18       0.15      -0.45
      4.92       0.80       0.30
      5.12      -1.38      -0.68
      3.76      -0.19      -0.23
      3.55       0.38      -0.44
      3.67      -0.25       0.10
      4.81       0.83      -0.45
      4.40       0.71      -0.23
      4.75       1.22      -0.27
      5.96       0.88      -0.19
      5.34       0.58       0.22
      4.91      -0.06       0.57
      4.98       1.12      -0.05
      4.13      -0.08      -0.49
      4.52      -0.65      -0.48
      4.52      -0.73       0.57
      4.06      -1.32       1.03
      5.57      -0.84       0.08
      4.66      -0.76      -0.15
      4.42      -0.96       0.18
      4.43      -2.10       0.06
      4.71      -0.68      -0.66
      5.25      -1.09       0.21
      4.29      -0.81      -0.44
      4.39      -0.65       0.29
      3.31      -1.50      -0.05
      3.94      -0.79      -0.28
      3.79      -0.24      -0.13
      2.79       0.15      -0.47
      4.45      -0.35      -0.41
      5.21      -0.07      -0.69
      5.05      -0.38      -0.40
      5.11      -0.52      -0.59
      4.77      -0.76      -0.69
      5.27       0.88      -0.36
      4.90       0.00      -0.54
      4.19       0.47      -0.13
      3.66       0.06      -0.27
      4.58      -0.19       0.28
      4.60      -0.17      -0.91
      3.13      -0.91      -0.29
      2.86      -0.52       0.18
      3.68      -0.84       0.34
      4.31      -1.24      -0.44
      4.40      -1.53      -0.42
      4.12      -0.42      -0.81
      4.11      -1.13      -0.86
      4.23      -0.98       0.25
      4.35       0.20      -0.58
      4.96       0.55      -0.35
      5.85      -0.10      -0.59
      4.93      -0.39       0.21
      5.58      -0.36       0.29
      6.16      -0.19      -0.44
      5.75      -0.20      -0.75
      5.55       0.16      -0.25
      5.60      -0.96      -1.09
      5.60       0.44      -0.88
      6.08       1.10      -0.77
      5.56       0.43      -0.82
      5.18       0.84      -0.80
      7.69      -0.10      -0.60
      6.85      -0.63       0.15
      5.57       0.23      -0.16
      4.94       0.31      -0.03
      5.78       0.32      -0.76
      6.45       0.05       0.04
      5.75      -0.45      -0.03
      5.23      -0.38       0.57
      5.55      -0.40       0.24
      6.08       0.63       0.18
      6.00       0.13       0.63
      6.28       0.38       0.00
      6.72       0.53       0.79
      7.07      -0.30      -0.35
      6.47       1.35      -0.02
      6.95       1.19       0.02
      6.23       1.51      -0.26
      6.63       0.15      -0.30
      6.53      -0.13      -0.18
      6.27       0.19      -0.70
      5.02       0.57       0.45
      6.43      -0.57       0.60
      5.82      -0.81       0.12
      5.15       0.48       0.00
      4.69      -0.82      -0.24
      4.57      -0.71       0.16
      4.20      -0.93       0.02
      5.87      -0.41      -0.57
      5.77      -0.45      -0.74
      5.38       0.23      -0.07
      5.01      -0.27      -0.09
      4.35       0.20      -1.04
      4.90      -0.15      -0.56
      4.45       0.33       0.43
      4.64      -0.70       0.47
      5.99      -0.40       0.06
      6.04       0.25       0.12
      4.70       0.27      -0.46
      6.48       0.29      -0.24
      5.01      -0.13      -0.13
      4.96       0.25      -0.08
      5.49       0.11       0.19
      4.71      -1.07       0.14
      4.71      -0.67      -0.27
      5.37      -0.17      -0.33
      4.75      -0.28      -0.64
      4.73       0.15      -0.78
      5.86       0.25       0.18
      4.89       0.71      -0.31
      5.79      -0.32       0.20
      5.73      -0.14      -0.47
      6.54       1.18      -0.28
      5.77       0.40      -0.63
      5.45       0.39      -0.46
      4.99      -1.05       0.01
      5.45      -0.95      -0.25
      5.30      -1.76       0.18
      5.95      -0.96       0.42
      6.12      -1.05       0.01
      5.11      -0.26       0.51
      6.11      -0.77       0.43
      5.98      -0.90       0.78
      5.40      -0.38       0.95
      4.69      -0.69       0.23
      4.77      -1.09      -0.34
      4.87      -0.90       0.08
      3.23      -0.94       0.58
      4.45      -0.53      -0.40
      3.40      -0.07      -0.25
      4.85      -0.53      -0.41
      5.86      -0.93      -0.38
      4.94      -0.51      -0.62
      4.91      -0.57      -0.69
      5.44       0.08      -0.75
      5.24      -0.26      -0.28
      5.50      -0.87       0.39
      4.19      -0.63      -0.18
      3.71       0.15      -0.33
      4.63       0.61      -0.43
      3.82       0.15       0.28
      3.94      -0.07      -0.53
      3.69      -0.14       0.06
      4.34      -0.55      -0.72
      5.08      -1.18      -0.02
      3.73      -1.28      -0.45
      4.36      -1.17      -0.34
      5.12      -1.77       0.08
      4.81      -1.23       0.21
      4.37      -0.04       0.07
      5.52       0.58      -0.51
      5.72       0.25      -0.78
      6.34       0.05      -0.08
      6.75      -0.19      -0.38
      5.46      -0.29      -0.22
      7.13      -0.44      -0.20
      6.62       0.59      -0.17
      6.66      -0.44      -0.71
      5.45       0.47      -0.53
      6.70       0.10      -0.38
      7.56       0.49      -1.24
      6.63      -0.91      -0.04
      6.93       0.58       0.64
      7.11       0.11       0.63
      7.20       0.02       0.01
      5.67       0.97      -0.53
      7.23       0.89      -0.03
      6.12       0.18       0.05
      6.97       0.36      -0.46
      7.10      -0.23      -0.17
      6.40      -0.76       0.20
      6.84      -0.26       0.39
      6.40       1.07       0.43
      6.65      -0.07       0.50
      6.18       0.28       0.21
      7.49       0.54      -0.90
      7.40       0.18      -0.23
      7.93       0.45      -0.08
      7.17       1.11      -0.41
      7.24       0.78      -0.19
      7.39      -0.01       0.17
      5.88       0.47       0.23
      5.70      -0.65      -0.36
      6.85       0.27       0.89
      5.34       0.27      -0.49
      5.29      -0.15       0.55
      5.24      -0.27       0.19
      6.65      -0.03      -0.19
      6.26      -0.75      -0.03
      6.71      -0.89       0.34
      5.76      -0.33      -0.41
      5.36       0.29      -1.02
      6.21       0.18       0.43
      5.65       0.80      -0.26
      5.49       0.89      -0.61
      5.87       0.64       0.62
      5.46      -0.43      -0.41
      5.88      -0.26       0.36
      4.83      -0.47       0.05
      4.20       0.45      -0.08
      6.12       0.79      -0.83
      5.95      -0.46      -0.73
      4.83       0.16      -0.02
      4.97       0.04       0.26
      4.72      -0.80       0.32
      5.70      -0.32      -0.16
      6.65      -1.06      -0.14
      6.80      -0.31      -0.50
      6.74      -0.52       0.15
      7.14      -0.47      -0.44
      6.46      -1.00      -0.07
      6.44      -0.60      -0.76
      6.13       1.27      -0.49
      6.72       1.22       0.23
      6.35       0.70       0.44
      6.40       0.80      -0.07
      5.08      -0.55      -0.17
      5.80      -0.12       0.43
      6.37      -1.00       0.51
      6.48      -0.69      -0.16
      5.53      -0.67      -0.24
      4.85      -2.06       0.49
      5.87      -0.69       0.86
      5.82      -0.13      -0.17
      6.99      -0.87       0.66
      6.37       0.08       0.26
      5.58      -0.96       0.22
      4.69      -0.45      -0.34
      4.56      -0.41      -0.08
      4.48       0.93      -0.81
      4.63       0.62      -0.32
      5.47      -0.79      -0.46
      5.86       0.11      -0.85
      6.18      -0.46      -0.76
      5.31      -0.40      -0.91
      6.61      -0.77      -0.33
      6.32      -0.81      -0.02
      6.33      -0.87       0.19
      5.86      -0.24      -0.43
      5.73      -0.26      -0.50
      5.46       0.58      -0.27
      5.09      -0.69       0.60
      5.15      -0.66      -0.30
      4.40      -0.51       0.23
      4.77       0.13      -0.56
      5.17       0.02      -0.20
      5.32      -1.02      -0.13
      5.51      -0.71      -0.29
      5.20      -0.91       0.31
      3.89      -0.29      -0.22
      3.66       0.18      -0.25
      4.93      -0.38      -0.07
      5.61      -0.52      -0.60
      5.11      -0.19      -0.38
      5.83      -0.14      -0.73
      6.34       0.18      -0.61
      6.32      -1.04       0.35
      6.12       0.15      -0.67
      6.72       0.39       0.28
      6.21      -0.23      -0.89
      5.79       0.30      -0.76
      5.99      -0.02      -0.85
      6.25      -0.48      -0.10
      6.72      -0.31      -0.16
      6.70       1.29       0.24
      6.98       0.54      -0.16
      6.80       0.11       0.45
      6.67       0.31      -0.27
      7.28      -0.32      -0.21
      7.21       0.16      -0.18
      6.65      -0.82      -0.65
      6.37      -0.60      -0.19
      7.34      -0.45       0.47
      7.56       0.47       0.98
      7.76       0.21       0.57
      7.42       0.72       0.62
      7.77       1.53      -0.39
      7.49       0.66       0.37
      6.86       0.96      -0.58
      7.71       1.12      -0.55
      7.97       0.87       0.14
      7.14       0.72       0.03
      6.84       0.38       0.40
      6.11       0.01       0.38
      7.30       0.59       0.10
      6.36      -0.68       0.45
      6.43       0.41      -0.51
      6.33      -1.00      -0.16
      6.75      -0.85      -0.97
      7.15      -0.29       0.48
      6.69      -0.46      -0.59
      7.19       0.29      -0.39
      6.07       0.30      -0.56
      7.05       0.76       0.03
      6.15      -0.16       0.08
      5.79       0.29      -0.02
      6.34       0.26       0.13
      5.59       0.11       0.37
      5.46       1.35       0.14
      5.11       0.83       0.55
      5.52       0.76       0.44
      5.46      -0.35      -0.25
      5.84      -0.34      -0.36
      6.41      -0.03       0.45
      6.02      -0.18      -0.08
      5.19       0.01      -0.50
      6.32      -0.16      -0.44
      5.84      -0.15      -0.47
      6.43       0.30      -0.45
      7.04       0.32      -0.54
      6.93       0.07      -0.45
      6.90       0.54       0.67
      6.27       0.24      -0.05
      6.84       0.72      -0.50
      6.18       0.43       0.18
      6.74       0.42       0.31
      6.53       0.26       0.20
      5.54       0.09       0.79
      6.23      -0.65       1.00
      6.48      -0.12       0.36
      6.39      -0.29       0.47
      6.22      -0.37       0.07
      6.02      -0.20       0.26
      6.28      -0.80      -0.10
      5.73      -0.17      -0.26
      6.08      -0.70      -0.63
      5.60      -0.06      -0.41
      5.93      -0.63       0.17
      4.81      -0.50      -0.04
      4.10      -0.27       0.34
      5.98      -0.55      -0.33
      6.03       0.08      -0.17
      5.89      -0.69      -0.55
      5.80      -0.13      -0.47
      5.62      -0.47      -0.43
      5.80      -0.65      -0.58
      6.87       0.32       0.07
      7.00      -0.46       0.08
      7.25      -0.20       0.41
      6.28      -0.62      -0.68
      6.76      -0.67       0.42
      6.09      -0.96      -0.46
      6.19      -0.95       0.16
      5.86      -0.05       0.56
      5.43      -0.65       0.40
      6.06      -0.75      -0.57
      5.24      -0.65      -0.21
      5.18      -1.22      -0.44
      6.02      -1.03      -0.10
      4.31      -0.50       0.22
      4.08      -0.28       0.16
      5.44      -0.95       0.39
      5.14       0.25       0.78
      6.48      -1.01       0.26
      5.66      -0.62       0.61
      6.29       0.44      -0.21
      5.99       0.21      -0.38
      6.71      -0.26      -0.27
      6.96       0.30      -0.77
      5.63       0.07      -1.01
      5.96       0.25      -1.02
      4.77       0.62      -0.87
      5.61       0.43      -0.74
      5.33       0.26      -0.62
      6.16      -0.00      -0.14
      6.66      -0.71       0.21
      7.97       0.49      -0.01
      6.25       0.12      -0.22
      6.36       0.40      -0.43
      6.79      -0.10      -0.15
      7.29       0.38      -0.38
      7.55       0.34      -0.41
      7.83      -0.99       0.27
      7.79       0.15      -0.14
      8.14      -0.26      -0.42
      7.55       0.91       0.09
      8.28       0.82      -0.11
      7.14       0.59      -0.42
      8.27       0.89       0.27
      7.79       1.34       0.52
      7.28       1.13      -0.69
      8.37       1.50      -0.18
      6.95       1.58      -0.24
      5.89       0.86       0.21
      7.03       0.02      -0.49
      6.78      -0.25       0.46
      7.17       0.20       0.16
      6.97      -0.06       0.45
      6.54      -1.37      -0.52
      6.32      -0.89      -0.53
      6.60      -0.55       0.14
      6.46       0.59       0.03
      6.68       0.06      -0.43
      6.32       0.58       0.21
      6.16      -0.48      -0.22
      6.16      -0.26       0.06
      6.03       0.89      -0.54
      6.50       0.13      -0.37
      6.97      -0.64       0.24
      5.64       0.71       0.56
      6.22       1.81       0.87
      6.32       0.29       0.27
      5.45       0.12       0.38
      6.05      -0.86      -0.30
      6.41      -0.50       0.18
      5.76      -0.86       0.39
      7.46      -1.14       0.20
      7.19      -0.45      -0.26
      8.02      -0.84       0.41
      7.78      -0.46      -0.76
      6.57      -0.97      -0.46
      7.70       0.67       0.01
      7.86       0.36       0.54
      7.13      -0.22      -0.23
      6.88       0.83      -0.03
      7.01       0.91       0.64
      5.89       0.51      -0.09
      5.65       0.34       0.59
      5.30       0.36       0.58
      5.51       0.38       0.69
      7.01       0.18       0.17
      7.07       0.49       0.58
      5.76       0.17       0.31
      6.28      -0.13       0.02
      6.37      -1.03       0.28
      6.28      -1.31      -0.02
      5.87      -0.48      -0.59
      5.47      -0.86      -0.17
      6.11      -1.20      -0.23
      4.42      -0.25       0.09
      4.77      -0.48      -0.19
      6.71       0.19       0.53
      5.76       1.02       0.38
      5.67      -0.75       0.56
      6.09      -0.01       0.05
      6.56      -0.00      -0.03
      5.95      -0.08      -0.02
      6.58      -0.01       0.05
      7.35       1.25       0.14
      6.70       0.97      -0.30
      6.65      -0.08      -0.25
      6.95      -0.62      -0.06
      6.59      -0.35      -0.12
      5.50       0.13       0.18
      6.60       0.08       0.54
      6.77      -0.56      -0.26
      7.29       0.07      -0.36
      5.88      -0.16       0.08
      5.65      -0.54      -0.18
      5.05      -0.91       0.45
      5.66      -0.94       0.90
      5.13      -0.40       0.25
      5.48      -1.18       0.11
      5.51      -1.63       0.05
      6.73      -0.10      -0.04
      6.91       0.06       0.15
      7.51      -0.51      -0.09
      6.40       0.18      -0.16
      6.11      -0.71       0.16
      6.97      -0.09       0.17
      6.56       0.27      -0.83
      6.30      -0.03      -0.70
      6.22       0.76      -0.56
      6.48       0.63       0.07
      6.98       0.07      -0.50
      6.78      -0.50       0.04
      7.44       0.12      -0.16
      7.27      -0.57      -1.00
      8.61       0.28      -0.42
      7.08      -0.18      -0.91
      6.81      -0.31       0.14
      7.63      -0.08      -0.63
      7.59      -0.25      -0.73
      8.31      -0.45      -0.36
      7.59       0.31      -0.21
      9.01      -0.09      -0.10
      7.50       0.83       0.16
      8.24       0.69       0.48
      7.02       0.23       0.27
      9.15       0.34       0.64
      9.04      -0.13      -0.14
      7.95       1.22      -0.18
      7.39       0.97      -0.19
      6.84       2.18       0.42
      7.25       0.33       0.35
      7.95       0.20       0.37
      7.49       0.49       0.57
      6.46      -0.40       0.41
      6.57      -0.12       0.73
      7.45      -0.39       0.32
      6.79      -0.04       0.41
      7.54       0.29      -0.14
      6.16       0.34      -0.01
      5.67      -0.24      -0.05
      6.37       0.02      -0.43
      6.15       0.32      -0.43
      6.67      -0.66      -0.38
      5.66      -1.10      -0.07
      6.84       0.15       0.65
      7.66      -0.38      -0.32
      8.44       0.65       0.23
      7.30       0.68       0.42
      7.17       1.11       0.35
      6.25      -0.45       0.12
      6.38      -0.33       0.29
      6.07      -1.63       0.48
      5.91      -0.60       0.69
      7.24      -0.47       0.27
      8.30      -0.21       0.51
      7.05      -0.95       0.14
      7.77       0.04      -0.10
      8.03      -0.40      -0.19
      7.99       0.25       0.23
      7.31       0.00       0.23
      7.19       0.17       0.26
      7.77       0.41       0.50
      7.10       0.64       0.48
      6.31       1.12      -0.36
      6.51       1.69       0.73
      5.76       1.32       0.00
      6.54      -0.05       0.41
      6.05      -0.34       0.28
      6.43       0.11       0.40
      5.70      -0.36      -0.09
      5.20      -0.61      -0.42
      6.40      -1.91      -0.50
      5.58      -1.32       0.22
      5.04       0.08      -0.21
      6.70      -0.14      -0.48
      5.21       0.10      -0.07
      5.53      -0.47      -0.58
      5.70      -1.03       0.56
      5.61      -1.17       0.32
      5.12      -0.11      -0.40
      6.08      -0.13      -0.47
      5.74       0.42      -0.37
      6.57       0.48      -0.66
      5.69       0.52       0.01
      7.09       0.19      -0.11
      5.62       1.14      -1.14
      7.17       0.36      -0.75
      7.87       0.00      -1.08
      6.58      -0.26      -0.48
      6.95      -0.84      -0.51
      6.52      -0.20      -0.25
      7.13       0.15       0.50
      7.58      -0.44       0.10
      7.14      -1.36       0.17
      6.12      -0.64       0.37
      6.28      -1.11       0.23
      5.82      -0.59       0.22
      6.10      -0.11       0.02
      6.90      -0.32       0.23
      5.27      -0.95       0.50
      5.34      -0.76       0.07
      6.39      -0.10      -0.07
      7.71      -0.50      -0.19
      8.57      -0.53       0.14
      6.86      -0.63      -0.29
      7.25       0.59       0.73
      6.39      -0.12      -0.17
      5.97       0.71       0.25
      6.25       0.20      -0.50
      7.31       0.66      -0.06
      7.37       0.53       0.32
      7.56       0.73      -0.36
      6.11       0.64       0.13
      6.67       0.79      -0.42
      6.81       0.25      -0.08
      7.47       0.05      -0.84
      6.44       0.24      -0.06
      7.22       0.33       0.11
      7.45       0.64      -0.54
      7.91       0.97      -0.85
      8.84      -0.04      -1.04
      8.65       0.34      -0.83
      7.90      -0.15      -0.11
      7.69       0.26      -0.13
      8.94       0.57       0.37
      8.31       0.18       0.74
      7.58       0.79      -0.94
      8.24       0.15      -0.17
      8.22       1.35      -0.02
      7.78       0.81       0.27
      6.45      -0.26       0.01
      7.21      -0.34       0.53
      6.96      -0.27       0.61
      7.09      -0.19       0.11
      7.07      -0.01       0.59
      7.04      -0.31       0.44
      6.55      -0.95       0.22
      6.79      -0.04       0.52
      7.07      -0.38       0.16
      6.96      -0.47      -0.11
      5.85      -0.42       0.31
      6.50      -0.07       0.27
      6.08       0.24       0.14
      6.88      -0.17      -0.42
      5.80      -0.75       1.06
      7.03      -0.44       0.19
      8.55       0.25       0.26
      8.62       0.14      -0.20
      7.91       0.18      -0.11
      8.67       0.41       0.50
      6.60      -0.29       0.10
      6.24      -1.08       0.76
      6.87      -1.05       0.41
      6.30      -1.70       0.18
      7.27      -0.22       0.69
      7.28      -0.50       0.54
      7.65      -0.32       0.01
      7.25      -0.38      -1.03
      8.15       0.86      -0.48
      7.65      -0.56       0.21
      7.93      -0.59       0.48
      7.75       0.04       0.19
      8.43      -0.70       0.33
      8.79       0.10       0.49
      6.52       0.39       0.01
      5.74       0.60      -0.47
      5.58       0.80       0.30
      7.07       0.08      -0.04
      6.61      -1.92      -0.08
      7.02      -0.23      -0.22
      5.93      -0.08       0.21
      6.24      -0.79       0.23
      5.90      -0.68       0.36
      6.18       0.25       0.13
      6.04      -0.29      -0.25
      6.49      -1.09       0.22
      6.11      -0.94       0.27
      6.94      -0.36       0.43
      6.64      -0.43      -0.68
      6.33      -1.48      -0.33
      6.74      -0.07       0.12
      6.49      -0.30      -0.26
      6.62      -0.14       0.25
      6.07      -0.12      -0.74
      6.08       0.40       0.27
      7.04       0.08      -0.61
      6.84       0.59      -1.09
      6.31       0.32      -0.24
      7.44       0.93      -0.28
      8.04       0.53       0.53
      7.72      -0.66      -0.12
      7.09      -0.26       0.20
      6.72      -0.49      -0.22
      7.34      -0.73      -0.22
      6.90      -1.67      -0.18
      6.54      -0.62       0.28
      7.28       0.31       0.11
      7.08      -0.72      -0.41
      7.02      -0.37      -0.63
      5.73      -0.60      -0.59
      5.52      -0.45       0.15
      6.17       0.64      -0.13
      5.39       0.76      -0.59
      7.45       0.49      -0.36
      7.67       0.83       0.74
      7.18       0.39      -0.14
      7.19      -0.26      -0.22
      6.38      -0.12      -0.20
      6.05       0.96      -0.06
      6.37      -0.33      -0.69
      7.54       0.12      -0.72
      6.78      -0.17      -0.44
      6.47       0.29      -0.23
      7.55       0.66      -0.35
      7.53      -0.86      -0.06
      7.76      -1.00      -0.01
      7.51       0.31      -0.44
      7.23       0.87      -0.38
      7.77       0.97      -0.17
      7.44      -0.01      -0.33
      7.87       0.91      -0.71
      8.45       0.38      -0.75
      8.29       0.45      -0.63
      6.90       0.45      -0.74
      7.50      -0.70      -0.11
      8.41       0.15      -0.08
      7.57      -0.13       0.57
      7.96       0.27      -0.54
      7.94      -0.07       0.30
      7.45       0.74       0.88
      7.28       0.69       0.12
      8.12       0.14      -0.32
      7.27       0.61       0.25
      7.77      -0.40       0.16
      6.94       0.24       0.26
      6.80      -0.56       0.41
      6.84      -0.42      -0.44
      6.97       0.52       0.32
      6.38      -1.05       0.60
      7.18      -0.47       0.19
      6.98      -1.59       0.13
      6.86      -0.92      -0.25
      7.17      -0.59      -0.00
      6.62       0.93      -0.31
      7.37       0.18       0.02
      7.08      -0.50       0.53
      7.38      -0.06       0.23
      8.99       0.21       0.36
      8.33       0.40       0.33
      8.81      -0.40       0.71
      9.93       0.27       0.57
      6.82      -0.55      -0.20
      6.92      -1.35      -0.06
      6.23      -1.47      -0.17
      7.56      -0.40       0.26
      7.86      -0.87       0.35
      7.25       0.02       0.74
      7.62      -0.59      -0.16
      7.61      -0.61      -0.17
      7.49      -0.06      -0.65
      7.39      -1.04      -0.15
      7.06      -1.31       0.41
      8.31      -1.14      -0.06
      8.05      -1.55      -0.18
      7.66      -0.36       0.06
      6.86       0.43      -0.72
      6.84       1.21      -0.24
      5.63       1.49      -0.20
      6.42      -0.26       0.04
      5.93       0.06       0.74
      6.34       0.17       0.98
      6.14       0.37       0.07
      5.66       0.02       1.07
      5.64      -0.48       0.30
      5.95      -0.66      -0.26
      6.65       0.40       0.68
      6.47      -0.50       0.27
      6.92       0.12       1.11
      6.96      -0.21      -0.10
      6.72      -0.15      -0.14
      7.06      -0.44      -0.24
      7.38       0.35      -0.31
      7.63       0.22       0.13
      7.25       1.05      -0.38
      6.84       0.58      -0.24
      7.00       0.30       0.04
      7.42       0.17       0.34
      6.88       0.90      -0.11
      6.91       0.29      -0.38
      6.88       0.40       0.12
      7.44      -0.08       0.39
      7.69      -0.57       0.08
      7.36      -0.46      -0.20
      6.91      -1.21      -0.48
      7.40      -0.59      -0.76
      7.62      -0.81      -0.17
      7.42      -0.61       0.34
      8.10      -0.67       0.03
      6.88      -0.44      -0.82
      8.09      -0.93      -0.31
      6.02       0.11      -0.96
      6.29       0.39      -0.22
      6.37       0.60      -0.26
      6.14       0.74       0.02
      7.58      -0.17      -0.59
      7.09       0.70       0.02
      6.78       0.28       0.04
      6.72      -0.47       0.03
      7.16      -0.18      -0.04
      5.84       0.14      -0.64
      6.52       0.56      -0.19
      7.61      -1.04      -0.81
      7.36      -0.32      -0.18
      7.89       0.77      -0.39
      7.52      -0.31      -0.01
      7.87       0.16      -0.39
      8.52      -1.07      -0.36
      7.27       0.39       0.02
      8.06       0.49      -0.27
      7.22      -0.43      -0.37
      8.47       0.13       0.04
      8.72       0.28      -0.22
      8.49       1.42      -0.94
      8.05       0.47      -0.36
      7.26      -0.41      -0.96
      7.88       0.35       0.30
      7.93       0.55      -0.15
      8.27       0.11      -0.33
      7.38       0.09       0.03
      8.62       0.21      -0.75
      8.50       0.49       0.17
      8.46       1.02      -0.69
      8.23       0.20      -0.65
      8.01       0.20      -0.23
      7.98       0.17       0.48
      8.40      -0.45      -0.57
      7.06      -0.40       0.19
      6.96      -0.78       0.80
      6.59      -0.18      -0.17
      6.96      -0.80       0.61
      7.38      -1.26       0.16
      7.66      -0.83      -0.27
      7.57      -0.60      -0.64