# vtk DataFile Version 3.0
Low resolution, disturbed wind of XY Slice at time = 6 seconds.
ASCII
DATASET STRUCTURED_POINTS
DIMENSIONS   413   101     1
ORIGIN     -77.70    -500.00      85.00
SPACING       9.71      10.00      10.00
POINT_DATA           41713
VECTORS DisXY float
      8.40      -1.07       0.37
      7.98      -1.20       0.40
      8.49      -1.15       0.14
      8.40      -1.45       0.22
      8.60      -0.58       0.23
      8.65      -0.53      -0.01
      8.19      -0.10       0.25
      8.13      -0.19       0.19
      8.41      -0.38       0.08
      8.00      -0.60       0.45
      7.50       0.12       0.49
      8.44       0.80       0.33
      8.76       0.69      -0.14
      7.91       0.48       0.05
      8.07       0.08      -0.06
      8.55      -0.18      -0.57
      7.86       0.54      -0.93
      7.36       0.37      -0.53
      7.10       0.31       0.04
      6.99       0.87      -1.34
      7.12       0.42      -0.50
      7.67       0.38      -0.10
      8.07       0.87       0.41
      7.76       0.67       0.22
      9.17       0.77      -0.13
      9.09       0.40      -0.32
      9.41       1.21      -0.65
      9.78       1.15      -0.70
      9.75       0.44      -0.35
      9.18       0.01      -0.31
      9.31      -0.03      -0.11
      8.78       0.70      -0.04
      9.21       0.12      -0.00
      9.64       1.21      -0.32
     10.40       1.14      -0.72
      9.66       1.80      -0.10
      8.93       0.95      -0.38
      8.86       0.35      -0.77
      8.44       0.76      -1.21
      8.41       0.80      -0.05
      8.56       1.11      -0.56
      8.41       0.92      -0.64
      7.64       0.53       0.06
      6.58       0.13      -0.53
      7.26       0.03      -0.68
      7.56       0.84      -0.91
      7.85       0.69      -0.01
      7.30       0.40      -0.07
      7.68       0.96      -0.46
      8.10      -0.01      -0.29
      8.07       0.76      -0.38
      7.89       0.09       0.10
      7.42       0.08       0.13
      7.50       0.04       0.55
      7.48       0.14       0.85
      7.67      -0.09       0.70
      8.23       0.03       0.60
      7.96      -0.19       0.42
      7.79      -0.35      -0.64
      8.06      -0.27       0.03
      7.45      -0.62      -0.59
      8.24      -0.73      -0.82
      7.83      -0.17      -0.37
      8.13      -0.73      -0.93
      8.50      -0.58      -1.01
      8.61      -0.53      -0.88
      8.62       0.19      -0.56
      8.23      -0.36       0.19
      7.85      -0.05       0.37
      8.31      -0.09      -0.50
      8.37      -0.35      -0.28
      7.75      -0.58       0.05
      8.84      -1.58       0.10
      8.85      -1.06       0.35
      8.85      -0.77      -0.03
      7.85       0.01      -0.12
      7.91       0.96       0.08
      8.50       1.49      -0.92
      8.79       1.04      -0.66
      8.69       1.18      -0.20
      8.97       0.67      -0.27
      8.99       0.91       0.23
      9.15       0.77      -0.39
      9.20      -0.12       0.45
      9.17      -0.71       0.06
      7.90      -0.63       0.17
      8.37      -0.61      -0.07
      8.08      -0.51      -0.25
      8.60       0.23      -0.11
      7.41      -0.58       0.57
      7.60      -1.06       0.08
      8.19      -0.35       0.35
      7.78      -0.54       0.37
      7.72       0.19      -0.11
      8.44       0.99       0.31
      8.35       1.16      -0.03
      8.54       0.18      -0.22
      7.55       0.10      -0.14
      7.79       0.70       0.41
      6.73       0.44       0.33
      7.39      -0.00       0.54
      7.83       0.64       0.71
      7.83       0.64       0.28
      7.38      -0.27      -0.67
      7.88       0.26       0.75
      8.24      -0.35       0.09
      7.44      -0.88       0.26
      7.70      -0.69       0.87
      8.11      -0.72       0.16
      8.90      -0.38       0.29
      9.51      -0.68      -0.14
      8.66      -0.71      -0.46
      8.48      -0.03       0.15
      7.71       0.21       0.13
      7.29      -0.02       0.55
      7.31      -0.83      -0.35
      6.95      -0.59       0.21
      6.56      -0.44       0.04
      7.32      -0.06       0.14
      6.82       0.09      -0.10
      7.42      -0.02      -0.27
      7.90       0.82       0.08
      7.38       0.97       0.48
      8.13       0.11       0.46
      8.13       0.16       0.52
      7.54       0.31       0.37
      8.05       0.07       1.44
      7.96       0.55       0.96
      8.81       0.08       0.60
      8.22       0.51      -0.02
      8.90       0.09      -0.18
      8.80      -0.17      -0.19
      8.53       0.10      -0.01
      7.68      -0.68       0.90
      8.09      -0.26       1.13
      8.36      -1.16       0.53
      8.61      -0.41      -0.27
      8.12      -0.62       0.53
      9.11      -0.78       0.17
      9.23      -0.09      -0.15
      8.51       0.10      -0.55
      7.70       0.00      -0.50
      7.14      -0.70      -0.33
      8.06      -0.28       0.18
      8.33      -0.28      -0.57
      7.76       0.07      -0.55
      8.22      -0.20      -0.43
      8.17      -0.40      -0.07
      7.94      -0.28       0.80
      7.31      -0.28       0.86
      6.77      -0.58      -0.30
      7.01      -0.14      -0.22
      7.35      -0.13       0.12
      6.99       0.03       0.03
      6.28      -0.84      -0.37
      6.58      -0.48      -0.52
      5.85       0.27       0.04
      5.30      -0.17       0.06
      5.15       0.53       0.15
      6.14       0.21      -0.09
      5.26      -0.07      -0.09
      5.40       0.08       0.53
      5.85      -0.23       0.32
      6.86      -0.09       0.24
      7.34      -0.83       0.28
      7.63      -1.24       0.03
      7.27      -1.24       0.03
      7.58      -0.83      -0.15
      7.71      -1.55       0.69
      7.90      -0.45      -0.41
      8.05       0.19      -0.86
      8.30       0.06       0.10
      8.14       0.26      -0.08
      8.16       0.21       0.04
      8.27      -0.28       0.04
      8.26      -0.63      -0.10
      7.65      -0.27       0.18
      7.89      -0.69       0.27
      9.17       0.20       0.30
      8.52       0.17      -0.09
      7.99       0.41       0.15
      7.22       0.08       0.31
      7.44      -0.45      -0.50
      8.36      -0.37       0.58
      8.52      -0.65       0.16
      7.98       0.29       0.15
      7.87      -0.29       0.53
      8.15      -0.14      -0.54
      8.10      -0.16       0.24
      8.29       0.01       0.25
      8.62      -0.93       0.16
      7.78      -1.50       0.45
      8.32      -1.45       0.12
      8.46      -1.36      -0.19
      8.94      -1.08       0.34
      8.27      -0.57       0.21
      8.36      -0.41       0.20
      8.22       0.55      -0.23
      7.66      -0.41       0.10
      8.48      -0.33       0.28
      7.54       0.20       0.39
      7.92       0.57       0.45
      7.83       0.57       0.30
      8.24       0.75       0.19
      7.60       0.11       0.19
      8.39       0.00      -0.03
      7.53       0.17      -0.46
      7.39       0.65      -0.75
      7.37       0.36      -0.15
      6.98       0.58      -0.39
      7.03       1.30      -1.18
      7.51       1.05       0.11
      8.17       1.14      -0.15
      8.05       0.94       0.17
      8.85       0.49       0.11
      9.05       0.16      -0.33
      9.29       0.12      -0.27
      9.39       1.09       0.21
     10.06       0.97      -0.54
      9.43       0.37      -0.51
      9.68       0.10      -0.57
      8.51       0.75       0.13
      8.55       0.59      -0.24
      9.50       0.61      -0.07
      9.79       1.04      -0.85
     10.11       1.20      -0.01
      9.29       1.79       0.13
      8.56       0.34      -0.24
      8.69       0.31      -1.57
      8.72       0.54      -0.78
      8.27       1.09      -0.03
      8.33       0.99      -0.57
      8.24       0.57      -0.28
      6.52       0.44      -0.63
      7.03       0.17      -0.22
      7.84       0.06      -0.29
      7.75       1.36      -0.22
      7.90       0.17       0.12
      8.30       0.62      -0.07
      7.65       0.55      -0.57
      7.52       0.12       0.05
      7.69      -0.20       0.27
      7.57       0.47      -0.01
      8.00       0.16       0.35
      7.98       0.46       0.46
      7.66      -0.02       0.97
      7.94       0.40       0.37
      8.25      -0.12       0.11
      8.24      -0.22      -0.73
      7.99      -0.11      -0.40
      8.09      -0.11      -0.80
      7.85      -0.18      -0.90
      7.81      -0.43      -0.44
      7.78      -0.90      -0.58
      8.40      -1.02      -1.08
      8.45      -0.40      -0.97
      8.85      -0.01      -1.50
      8.68       0.04      -0.31
      7.50       0.03      -0.35
      8.03      -0.18       0.10
      8.29       0.03      -0.68
      7.69      -0.78      -0.02
      8.86      -0.71       0.30
      8.54      -1.00       0.17
      8.82      -0.69      -0.03
      8.73       0.26      -0.40
      8.03       0.15      -0.06
      8.15       1.58      -0.76
      8.75       1.40      -0.75
      8.82       1.19      -0.26
      8.81       0.72      -0.06
      9.41       0.98      -0.35
      8.52       0.93      -0.33
      9.30       0.40      -0.24
      9.10      -0.18       0.41
      8.44      -0.79       0.66
      7.88      -0.65       0.71
      8.29      -0.16      -0.12
      8.40      -0.11       0.03
      8.20      -0.52       0.49
      7.40      -0.55       0.06
      8.66      -0.36       0.54
      8.12       0.05       0.92
      8.16      -0.23       0.13
      8.53       0.82      -0.35
      8.54       0.40      -0.32
      8.42       0.34       0.22
      7.67       0.32      -0.12
      7.96      -0.08      -0.02
      7.24       0.30       0.29
      6.98      -0.05       0.35
      7.45       0.22       0.17
      8.19       0.66       0.58
      7.35      -0.03      -0.12
      8.16       0.03       0.23
      8.14      -0.01       0.53
      8.15      -1.24       0.34
      6.85      -0.38       0.96
      7.26      -0.43      -0.11
      8.11       0.09       0.35
      9.68      -0.48      -0.02
      9.19      -0.68      -0.27
      8.69      -0.49      -0.24
      7.65       0.19      -0.02
      7.27      -0.22       0.28
      6.84      -0.19       0.07
      6.82      -1.21       1.09
      6.88      -0.35      -0.33
      6.72       0.02       0.26
      6.65       0.15      -0.23
      6.98      -0.26      -0.04
      7.48       0.51       0.30
      7.91       1.19       0.13
      8.42       0.29       0.99
      8.16       0.32       0.24
      8.24       0.16       0.50
      8.03       0.24       0.96
      8.63       0.31       1.44
      8.40       0.63       0.44
      8.44       0.59       0.38
      8.58      -0.20       0.22
      8.24      -0.18      -0.18
      9.35       0.12       0.11
      7.82      -0.60       0.67
      8.09      -0.20       0.81
      7.76      -0.78       0.58
      8.08      -0.60       0.45
      9.18      -0.49       0.43
      8.56      -0.47       0.66
      9.20      -0.23      -0.27
      8.61       0.54      -0.78
      7.97      -0.02      -0.67
      7.02      -0.03      -0.43
      7.60       0.05      -0.38
      8.41      -0.11      -0.21
      8.37       0.26      -0.50
      7.99       0.15      -0.89
      8.48      -0.01      -0.63
      7.68      -0.41       0.55
      7.59      -0.11       0.74
      7.13      -0.45       0.18
      6.91      -0.21       0.70
      7.23       0.18       0.08
      7.46      -0.03      -0.03
      6.83      -1.32      -0.45
      6.18      -0.65      -0.18
      6.67       0.17      -0.32
      5.35      -0.39       0.12
      5.55       0.25       0.45
      5.77       0.23       0.57
      5.64      -0.14      -0.17
      5.34       0.40       0.30
      5.50      -0.86       0.73
      6.02       0.00       0.13
      6.74      -0.78       0.16
      7.79      -1.29       0.55
      7.69      -0.93      -0.01
      7.89      -0.42      -0.04
      7.80      -1.38       0.63
      7.88      -0.45      -0.41
      8.48       0.06      -0.29
      7.80       0.12      -0.26
      8.02       0.11      -0.28
      9.17       0.42       0.31
      7.91      -0.40       0.32
      8.25      -0.55       0.18
      8.30      -0.43      -0.26
      7.90      -0.22      -0.03
      8.23      -0.17       0.36
      8.54       0.67       0.15
      8.32       0.23       0.18
      7.27       0.34       0.13
      7.56      -0.50       0.27
      8.09      -0.54       0.43
      8.36      -0.41      -0.07
      8.11      -0.01       0.18
      7.83       0.40      -0.01
      8.08      -0.39      -0.21
      8.45      -0.48      -0.46
      8.17       0.39       0.40
      8.81      -1.40      -0.13
      7.83      -1.47       0.32
      7.74      -1.14       0.31
      8.72      -1.06      -0.12
      8.34      -0.93       0.13
      8.91      -0.55       0.06
      8.51      -0.78      -0.27
      8.22       0.17       0.13
      8.12       0.19       0.12
      8.36      -0.34       0.17
      7.66      -0.62       0.41
      7.82       0.31       0.44
      8.13       0.77       0.28
      8.39       0.37       0.06
      8.08      -0.29       0.07
      7.96       0.36      -0.08
      7.80      -0.02      -0.18
      7.60       0.64      -0.81
      7.49       0.43      -0.30
      7.38       0.32      -0.13
      7.11       1.06      -1.23
      7.12       0.66      -0.01
      7.78       0.94       0.10
      8.04       1.02       0.56
      8.30       0.72       0.43
      9.05       0.86      -0.01
      9.42       0.44      -0.50
      9.12       1.16      -0.48
     10.20       0.83      -0.59
      8.89       0.48      -0.05
      9.37       0.26      -0.19
      9.26       0.45       0.22
      8.68       0.98      -0.57
      7.85       0.06       0.18
      7.73      -0.85      -0.18
      8.54      -0.30      -0.03
      8.34      -0.43       0.18
      7.48      -0.82       0.48
      6.81      -0.43       0.26
      6.55      -0.60      -0.10
      6.95      -0.35      -0.02
      8.45      -0.06      -0.36
      8.93      -0.93       0.38
      8.58      -0.99       0.19
      8.86       0.31       0.81
      8.87       0.19       0.57
      9.06      -0.08      -0.11
      8.58       0.78      -0.97
      8.35       0.66      -0.16
      6.98       0.31       0.13
      7.64       0.81       0.12
      7.60       0.72      -0.23
      7.95       0.94      -0.75
      7.46       0.91      -1.14
      7.79       1.05       0.27
      8.36       1.13       0.03
      8.84       1.56       0.22
      8.57       0.72      -0.12
      9.34       1.20      -0.33
      9.64       0.68      -0.59
      8.70       1.17      -0.93
      8.14       0.84      -0.95
      9.21       0.47      -0.26
      9.45       0.33       0.72
      9.48       0.70       0.48
      9.74       0.08       0.31
     10.35       1.00      -0.10
     10.27       1.59      -0.21
      9.72       1.49      -0.59
      9.90       1.76      -0.97
     10.14       0.94      -0.85
      9.70       1.14      -1.13
      9.58       1.31      -0.96
      8.56       1.13      -0.51
      8.89       0.74      -0.46
      9.02       0.52      -0.36
      8.94       0.61      -1.35
      8.75      -0.54      -0.14
      8.16       0.04      -0.71
      8.35       0.91      -0.88
      9.75       1.12      -0.36
      8.06       0.39      -0.28
      7.90      -0.32      -0.39
      8.40      -0.64      -0.04
      6.86      -1.03       0.03
      6.98      -0.15       0.70
      6.45      -0.53       0.27
      6.79      -0.55      -0.17
      7.58      -0.39       0.39
      7.06      -0.12       0.20
      7.78       0.51       0.06
      7.64      -0.60       0.85
      7.04      -0.36      -0.05
      7.70       0.67      -0.14
      7.75      -0.16      -0.19
      7.07      -0.21       0.04
      7.39      -0.22      -0.09
      7.01       0.56      -0.80
      7.96      -0.74      -0.71
      7.96      -0.76      -0.06
      7.79      -1.13      -0.94
      7.62      -0.99      -1.14
      7.86      -0.50      -0.82
      7.68      -0.21      -0.53
      8.26       0.46      -0.46
      8.48       0.76      -0.29
      8.90       0.45       0.17
      9.20       1.02      -0.34
      8.81       0.14      -0.11
      8.49       0.91      -0.50
      8.23       1.63      -0.94
      8.08       1.01      -0.48
      8.54       0.67      -0.30
      8.21      -0.55      -0.10
      7.69       0.28      -0.10
      7.94       0.61       0.59
      8.53      -0.08       0.06
      8.32      -0.00      -0.02
      8.24      -0.91       0.51
      8.00      -0.99       0.92
      7.50      -0.57       0.39
      7.97       0.01       0.11
      8.21       0.31       0.16
      8.14      -0.20      -0.27
      7.68      -0.30       0.33
      7.97       0.81      -0.15
      8.51       0.55       0.33
      8.41       0.35       0.18
      8.44      -0.10       0.23
      7.79       0.08      -0.19
      7.35       1.05       0.20
      7.23       0.77       0.23
      6.58       0.66      -0.40
      7.52       0.31      -0.07
      6.53       0.22      -0.25
      7.10       0.27       0.91
      7.61       0.77       0.48
      8.25       0.05       0.17
      7.52      -0.80      -0.04
      6.41      -0.90       0.48
      7.16      -0.99       0.94
      7.15      -0.23       0.57
      8.57      -0.58       0.89
      8.30       0.34       0.89
      7.93       0.08       0.12
      7.51      -0.12       0.19
      6.92      -0.02       0.48
      6.69      -0.34       0.61
      7.44      -0.53       0.06
      8.16      -0.22      -0.03
      8.46      -0.76       1.25
      7.44      -0.91       0.13
      8.72      -1.02       0.00
      8.04      -0.21       0.67
      8.49       0.11      -0.17
      7.61      -0.05       0.56
      7.93       0.08       0.11
      7.97      -0.15       0.71
      7.44      -0.00       0.53
      7.97       0.55       0.62
      8.04       0.04       0.43
      8.42      -0.48       0.29
      7.83      -0.35       0.42
      7.80      -0.87       0.10
      8.35      -0.65       0.85
      8.27      -0.45       0.39
      8.59       0.05       0.09
      8.87       0.05       0.29
      8.41      -0.38       0.83
      9.09      -0.59       0.01
      8.18       0.80      -0.34
      8.01      -0.91      -0.25
      8.23      -0.42       0.08
      7.89      -0.58       0.24
      8.19       0.07      -0.45
      7.73       0.32      -0.08
      8.27       0.29      -0.55
      7.58      -0.32       0.02
      7.83      -0.71      -0.39
      7.46      -0.82      -0.05
      7.65      -0.62      -0.01
      7.16      -1.21       0.56
      7.34      -1.07       0.35
      6.88      -1.37      -0.09
      6.94      -1.31      -0.62
      7.49      -1.27       0.20
      7.20      -1.43      -0.12
      6.90      -0.81      -0.36
      6.23      -0.50      -0.06
      5.36      -0.52      -0.21
      6.32      -0.09       0.57
      6.50       0.49       0.31
      6.84       0.02       0.95
      6.72      -0.27       0.48
      7.29      -0.56       0.87
      7.07       0.09       0.18
      7.48      -0.28       0.66
      8.42      -0.21       0.01
      8.50      -0.93       0.40
      8.27      -1.33       0.20
      8.01      -1.10      -0.16
      8.97      -0.89      -0.12
      9.44      -0.81      -0.10
      8.85      -0.03      -0.64
      9.14       0.25      -0.64
      8.88      -0.01      -0.17
      9.08       0.17      -0.13
      8.11      -0.36      -0.10
      7.96      -0.50       0.25
      7.46      -0.12       0.33
      7.37      -0.45       0.57
      8.29       0.03       0.45
      7.37       0.26      -0.09
      7.38       0.47       0.40
      7.97      -0.25       0.86
      8.04      -0.03       0.49
      7.64       0.11       0.02
      8.19      -0.24       0.22
      8.13       0.32       0.08
      7.51       0.53      -0.22
      8.01       0.32      -0.09
      7.81       0.14       0.24
      7.11       0.64      -0.09
      7.54       0.31      -0.15
      7.76      -0.62       0.08
      7.86      -0.90       0.37
      8.03       0.03      -0.07
      8.01      -0.93       0.34
      6.91      -0.43       0.70
      6.42      -0.34      -0.26
      7.25      -0.59      -0.12
      7.98      -0.60       0.00
      8.28      -0.52       0.00
      8.69      -1.61       0.14
      8.61      -0.49       0.57
      8.91       0.56       1.19
      9.11      -0.11      -0.47
      9.08       0.67      -0.30
      8.59       0.68       0.08
      7.56       0.64      -0.09
      7.47       0.58      -0.08
      8.18       0.63      -0.18
      7.83       0.75      -1.19
      7.40       1.15      -1.46
      7.19       0.80      -0.13
      8.57       0.97       0.27
      8.38       1.51       0.30
      8.09       0.64      -0.07
      9.38       1.46      -0.37
      9.06       1.00      -0.54
      8.87       1.47      -0.64
      8.61       0.44      -0.81
      8.63       0.74      -0.31
      9.60       0.90       0.10
      9.26       0.41       0.23
      9.65      -0.05       0.42
      9.60       0.43       0.09
     11.02       0.53      -0.08
     10.05       1.11      -0.52
      9.53       1.78      -0.62
     10.16       0.99      -0.47
      9.66       1.09      -1.31
      9.51       0.93      -0.53
      9.00       1.23      -0.94
      9.12       1.56      -0.46
      9.45       0.21      -0.23
      8.51      -0.10      -0.78
      8.23       0.00      -0.74
      8.11       0.32      -0.61
      7.98       0.29      -0.62
      9.17       0.66      -0.56
      8.60       0.12      -0.03
      8.19      -0.18      -0.31
      8.21       0.16      -0.27
      7.19      -0.42       0.60
      7.37       0.33       0.39
      6.70      -0.47       0.50
      6.49      -0.60      -0.38
      7.53      -0.53      -0.10
      7.78      -0.33       0.15
      7.38       0.83       0.17
      7.35      -0.03      -0.03
      7.02       0.27      -0.05
      7.62       0.53       0.45
      7.81      -0.31      -0.19
      7.96      -0.43      -0.16
      7.37       0.20      -0.57
      7.04       0.37      -0.43
      7.61      -0.57      -0.49
      7.36      -0.68      -0.03
      7.80      -1.36      -0.60
      7.28      -1.09      -0.95
      7.51      -0.67      -0.84
      8.06      -0.30      -0.61
      8.44       0.35      -0.53
      7.92       0.40      -0.52
      8.86       0.16      -0.03
      8.81       0.61       0.01
      9.27       0.71       0.12
      8.86       0.73       0.18
      7.84       1.33      -1.13
      8.31       0.64      -0.38
      8.12       0.79      -0.39
      8.04      -0.20       0.24
      7.98      -0.03      -0.56
      8.15       0.27       0.50
      8.76       0.66      -0.12
      8.43       0.22       0.39
      8.07      -0.73       0.37
      7.83      -1.04       0.54
      8.09      -0.42       0.81
      7.76      -0.42       0.52
      8.44       0.22       0.05
      8.54       0.20       0.30
      7.78      -0.35       0.18
      8.21       0.46      -0.06
      7.82       1.23      -0.39
      8.20       0.22      -0.21
      7.79      -0.07      -0.03
      7.76       0.27      -0.23
      7.78       0.60       0.18
      7.17       0.74       0.76
      6.49       0.37       0.01
      7.08      -0.29       0.12
      6.77       0.17       0.34
      7.10       0.68       0.62
      7.56       0.65       0.24
      7.76      -0.01       0.31
      7.39       0.06      -0.13
      7.05      -0.81       0.50
      7.41      -0.39       0.89
      6.84      -0.19       0.78
      8.12      -0.92       0.57
      8.78      -0.06       0.71
      8.53       0.32      -0.16
      7.73      -0.22       0.20
      7.66      -0.08       0.51
      6.49       0.05       0.44
      7.36      -0.41      -0.17
      7.61      -0.09      -0.08
      8.53      -0.81       0.62
      7.51      -1.10       0.84
      8.16      -1.21      -0.17
      8.12      -0.23       0.33
      8.17      -0.59      -0.30
      7.68      -0.19       0.35
      8.11       0.16       0.90
      7.62      -0.20       0.29
      7.76      -0.04       0.65
      7.75       0.01       1.37
      8.28       0.28       0.55
      8.72      -0.04       0.54
      8.69      -0.63       0.50
      8.08      -0.73      -0.67
      8.21      -0.52       0.95
      8.67      -0.76       0.69
      8.38       0.10       0.23
      8.77       0.16       0.18
      8.57      -0.02       0.59
      9.03      -0.08      -0.15
      8.67       0.58      -0.23
      8.53      -0.13      -0.50
      8.08      -0.38       0.06
      8.08      -0.64       0.77
      8.54      -0.15      -0.36
      7.58      -0.27       0.25
      8.09       0.18       0.54
      7.80      -0.12      -0.39
      7.59      -0.77      -0.37
      7.21      -0.94      -0.06
      7.72      -0.86      -0.39
      7.82      -1.10       0.11
      7.37      -1.24      -0.21
      7.43      -1.47       0.16
      6.84      -1.15      -0.06
      7.36      -1.03      -0.07
      6.73      -1.43      -0.05
      7.21      -0.79      -0.23
      6.36      -0.31      -0.05
      5.81      -0.07      -0.14
      5.68      -0.41       0.20
      6.76       0.77       0.32
      6.49      -0.04       0.71
      6.45       0.01       1.01
      7.59      -0.53       0.69
      7.15      -0.24       0.52
      7.26       0.24       0.07
      7.46      -0.22       0.20
      7.99      -0.71      -0.36
      7.89      -1.13       0.01
      7.78      -0.52      -0.31
      8.09      -1.27      -0.30
      8.86      -0.96       0.10
      8.98      -0.55      -0.76
      8.84      -0.15      -0.70
      9.40       0.06      -0.38
      8.77      -0.31      -0.36
      8.52       0.31      -0.15
      8.21      -0.59       0.16
      7.22      -0.16       0.13
      7.50      -0.55       0.24
      7.43      -0.28       0.21
      7.93       0.18       0.05
      6.92       0.54      -0.03
      8.02       0.45       0.61
      7.51       0.43       0.22
      7.71       0.29      -0.23
      8.73      -0.05       0.10
      8.10      -0.23       0.25
      7.56       0.64       0.05
      8.07       0.26      -0.39
      7.81       0.31      -0.01
      7.29       0.78      -0.35
      7.54       0.39      -0.37
      7.68       0.13       0.28
      7.51      -0.91      -0.14
      8.13      -0.27      -0.02
      8.09      -0.87       0.35
      7.54      -0.60      -0.10
      6.71      -0.65      -0.20
      6.80      -0.54      -0.16
      7.11       0.03      -0.27
      8.45      -0.02      -0.59
      9.21      -1.35       0.12
      8.51      -0.75       0.09
      8.26       0.31       0.52
      8.84       0.09      -0.00
      8.61       0.14      -0.89
      8.72       0.99      -0.72
      8.21       0.94      -0.29
      7.56       0.45       0.27
      7.34       0.63       0.02
      7.57       0.82      -0.87
      8.16       1.21      -0.65
      7.47       1.17      -0.85
      7.70       1.06       0.70
      8.53       1.15       0.29
      8.29       1.31       0.09
      8.84       1.13      -0.12
      9.16       1.25      -0.22
      8.78       1.00      -0.29
      8.54       0.63      -0.86
      8.29       0.95      -0.74
      9.45       0.69      -0.17
      8.94       0.33       0.60
      9.46       0.46       0.32
      7.74       0.67       0.27
      8.40       0.04       0.55
      9.11       0.22       0.29
      8.39       0.46       0.56
      8.83      -0.56       0.11
      8.88      -0.57      -0.15
      7.59      -0.21       0.34
      7.72      -0.13      -0.38
      8.34       0.01      -0.04
      8.45       0.65       0.32
      8.50       0.19      -0.34
      8.17       0.68      -0.27
      9.08       0.27      -0.33
      9.05       0.43      -0.18
      9.40      -0.18      -0.84
      8.98      -0.10      -0.74
      9.40       0.45       0.12
      8.70       0.55      -0.22
      8.91       0.51       0.39
      9.19       0.30      -0.40
      9.05       1.45      -0.38
      9.10       1.50      -0.18
      8.87       0.26       0.32
      8.52      -0.20       0.59
      9.09       0.63       0.20
      9.12       0.74      -0.12
      8.88       0.24       0.65
      9.09       0.46      -0.07
      8.99       0.32      -0.22
      9.25       0.40      -0.51
      8.52       0.63      -1.05
      7.88       0.52      -1.10
      8.08       0.74      -0.48
      9.28      -0.16      -1.23
      9.00       1.11       0.12
      9.12       0.77      -0.38
      9.02       0.53      -1.28
      8.22       0.74      -0.18
      8.55       1.45      -0.31
      8.12       0.80      -0.68
      8.37       0.80      -0.23
      8.22       0.74      -0.62
      8.96       0.50      -0.52
      9.84       0.28       0.08
      9.10       0.83      -0.48
      8.84       0.42      -0.28
      8.65       0.19      -0.51
      8.08       0.40      -1.02
      8.64      -0.48      -0.55
      7.73      -0.66      -0.03
      7.53      -0.75      -0.06
      7.06      -0.78      -0.27
      7.64      -0.15      -0.07
      7.63      -0.95       0.49
      7.63      -0.45      -0.19
      7.66      -1.16       0.42
      7.83      -1.03       0.16
      8.19      -1.12      -0.46
      8.48      -1.65       0.05
      7.93      -1.27       0.03
      8.07      -0.79      -0.68
      8.45      -0.54      -0.61
      8.77       0.03      -0.33
      8.51       0.32       0.18
      7.55      -0.11      -0.01
      7.88       0.62       0.55
      8.38       0.03       0.05
      8.03      -0.34      -0.83
      7.31      -0.52      -0.67
      7.11      -0.36      -0.82
      7.58      -0.79      -1.05
      7.48      -0.55      -0.17
      7.76      -0.12      -0.75
      7.76       0.31      -0.75