
Predictions were generated on 08-Apr-2025 at 16:22:59 using OpenFAST, compiled on Apr  7 2025 at 12:17:48 as a 64-bit application using single precision at commit v4.0.2-70-gddb547d9-dirty
 linked with  NWTC Subroutine Library; ElastoDyn; InflowWind; AeroDyn; SeaState; HydroDyn

Description from the FAST input file: IEA 15 MW offshore reference model on UMaine VolturnUS-S semi-submersible floating platform

Time	Wind1VelX	Wind1VelY	Wind1VelZ	PtfmSurge	PtfmSway	PtfmHeave	PtfmRoll	PtfmPitch	PtfmYaw	NcIMUTAxs	NcIMUTAys	NcIMUTAzs	RotSpeed	RotTorq	RotThrust	BldPitch1	GenSpeed	TwrBsFxt	TwrBsFyt	TwrBsFzt	TwrBsMxt	TwrBsMyt	TwrBsMzt	YawBrFxp	YawBrFyp	YawBrFzp	YawBrMxp	YawBrMyp	YawBrMzp	TwrBsFzt	RtSpeed	RtTSR	Wave1Elev	HydroFxi	HydroFyi	HydroFzi	HydroMxi	HydroMyi	HydroMzi
(s)	(m/s)	(m/s)	(m/s)	(m)	(m)	(m)	(deg)	(deg)	(deg)	(m/s^2)	(m/s^2)	(m/s^2)	(rpm)	(kN-m)	(kN)	(deg)	(rpm)	(kN)	(kN)	(kN)	(kN-m)	(kN-m)	(kN-m)	(kN)	(kN)	(kN)	(kN-m)	(kN-m)	(kN-m)	(kN)	(rpm)	(-)	(m)	(N)	(N)	(N)	(N-m)	(N-m)	(N-m)
    0.0000	 7.999E+00	 0.000E+00	 0.000E+00	 2.090E+01	 1.300E-01	-3.400E-01	 2.800E-01	 2.400E+00	 4.100E-01	 3.519E-01	-1.995E-03	 1.668E-02	 5.730E+00	 1.096E+04	 1.809E+03	 0.000E+00	 5.730E+00	 1.971E+03	-1.208E+02	-2.226E+04	 2.155E+04	 1.408E+05	 4.425E+02	 1.429E+03	-5.564E+01	-8.962E+03	 1.130E+04	-6.235E+04	 4.425E+02	-2.226E+04	 5.730E+00	 9.075E+00	 2.853E-01	-5.876E+06	 1.434E+03	 2.017E+08	-9.998E+06	 6.088E+07	-7.179E+04
    0.1000	 7.999E+00	 0.000E+00	 0.000E+00	 2.090E+01	 1.300E-01	-3.402E-01	 2.800E-01	 2.401E+00	 4.100E-01	 2.778E-01	 4.320E-05	-3.335E-02	 5.730E+00	 1.092E+04	 1.836E+03	 0.000E+00	 5.730E+00	 2.106E+03	-1.241E+02	-2.217E+04	 2.188E+04	 1.543E+05	 5.399E+02	 1.497E+03	-5.773E+01	-8.923E+03	 1.127E+04	-6.164E+04	 5.399E+02	-2.217E+04	 5.730E+00	 9.112E+00	 1.318E-01	-5.165E+06	 1.619E+02	 2.031E+08	-9.905E+06	 6.299E+07	 7.638E+05
    0.2000	 7.999E+00	 0.000E+00	 0.000E+00	 2.090E+01	 1.300E-01	-3.409E-01	 2.800E-01	 2.404E+00	 4.100E-01	 2.993E-01	-3.230E-05	-2.102E-02	 5.730E+00	 1.086E+04	 1.825E+03	 0.000E+00	 5.730E+00	 2.059E+03	-1.241E+02	-2.219E+04	 2.184E+04	 1.499E+05	 6.480E+02	 1.474E+03	-5.779E+01	-8.932E+03	 1.123E+04	-6.189E+04	 6.480E+02	-2.219E+04	 5.730E+00	 9.149E+00	-2.161E-02	-4.834E+06	 2.216E+02	 2.032E+08	-9.901E+06	 6.488E+07	 7.159E+05
    0.3000	 7.999E+00	 0.000E+00	 0.000E+00	 2.089E+01	 1.300E-01	-3.423E-01	 2.800E-01	 2.409E+00	 4.099E-01	 3.178E-01	 9.476E-05	-8.885E-03	 5.730E+00	 1.079E+04	 1.814E+03	 0.000E+00	 5.730E+00	 2.014E+03	-1.242E+02	-2.221E+04	 2.177E+04	 1.457E+05	 7.280E+02	 1.454E+03	-5.780E+01	-8.941E+03	 1.116E+04	-6.214E+04	 7.280E+02	-2.221E+04	 5.730E+00	 9.189E+00	-1.542E-01	-4.462E+06	 2.700E+02	 2.034E+08	-9.885E+06	 6.541E+07	 6.805E+05
    0.4000	 7.999E+00	 0.000E+00	 0.000E+00	 2.088E+01	 1.300E-01	-3.442E-01	 2.801E-01	 2.416E+00	 4.099E-01	 3.359E-01	 3.193E-04	 3.240E-03	 5.730E+00	 1.069E+04	 1.802E+03	 0.000E+00	 5.730E+00	 1.969E+03	-1.242E+02	-2.224E+04	 2.170E+04	 1.416E+05	 8.032E+02	 1.432E+03	-5.779E+01	-8.950E+03	 1.107E+04	-6.240E+04	 8.032E+02	-2.224E+04	 5.730E+00	 9.233E+00	-2.869E-01	-4.085E+06	 3.167E+02	 2.036E+08	-9.862E+06	 6.588E+07	 6.485E+05
    0.5000	 7.999E+00	 0.000E+00	 0.000E+00	 2.087E+01	 1.300E-01	-3.465E-01	 2.801E-01	 2.425E+00	 4.098E-01	 3.503E-01	 6.286E-04	 1.493E-02	 5.730E+00	 1.059E+04	 1.792E+03	 0.000E+00	 5.730E+00	 1.929E+03	-1.244E+02	-2.226E+04	 2.161E+04	 1.380E+05	 8.803E+02	 1.414E+03	-5.781E+01	-8.958E+03	 1.097E+04	-6.263E+04	 8.803E+02	-2.226E+04	 5.730E+00	 9.281E+00	-3.975E-01	-3.682E+06	 3.673E+02	 2.038E+08	-9.835E+06	 6.495E+07	 6.155E+05
    0.6000	 7.999E+00	 0.000E+00	 0.000E+00	 2.086E+01	 1.300E-01	-3.491E-01	 2.801E-01	 2.436E+00	 4.097E-01	 3.643E-01	 9.703E-04	 2.656E-02	 5.730E+00	 1.047E+04	 1.781E+03	 0.000E+00	 5.730E+00	 1.890E+03	-1.246E+02	-2.228E+04	 2.152E+04	 1.345E+05	 9.678E+02	 1.396E+03	-5.784E+01	-8.967E+03	 1.086E+04	-6.286E+04	 9.678E+02	-2.228E+04	 5.730E+00	 9.334E+00	-5.082E-01	-3.276E+06	 4.247E+02	 2.040E+08	-9.805E+06	 6.396E+07	 5.789E+05
    0.7000	 7.999E+00	 0.000E+00	 0.000E+00	 2.085E+01	 1.300E-01	-3.519E-01	 2.801E-01	 2.449E+00	 4.096E-01	 3.738E-01	 1.358E-03	 3.752E-02	 5.730E+00	 1.033E+04	 1.772E+03	 0.000E+00	 5.730E+00	 1.858E+03	-1.249E+02	-2.230E+04	 2.142E+04	 1.317E+05	 1.073E+03	 1.382E+03	-5.794E+01	-8.975E+03	 1.074E+04	-6.307E+04	 1.073E+03	-2.230E+04	 5.730E+00	 9.390E+00	-5.972E-01	-2.860E+06	 4.904E+02	 2.042E+08	-9.773E+06	 6.159E+07	 5.335E+05
    0.8000	 7.999E+00	 0.000E+00	 0.000E+00	 2.084E+01	 1.300E-01	-3.548E-01	 2.802E-01	 2.464E+00	 4.095E-01	 3.826E-01	 1.752E-03	 4.838E-02	 5.730E+00	 1.020E+04	 1.762E+03	 0.000E+00	 5.730E+00	 1.826E+03	-1.252E+02	-2.233E+04	 2.133E+04	 1.291E+05	 1.191E+03	 1.369E+03	-5.807E+01	-8.983E+03	 1.062E+04	-6.327E+04	 1.191E+03	-2.233E+04	 5.730E+00	 9.450E+00	-6.862E-01	-2.444E+06	 5.632E+02	 2.044E+08	-9.740E+06	 5.915E+07	 4.828E+05
    0.9000	 7.999E+00	 0.000E+00	 0.000E+00	 2.082E+01	 1.301E-01	-3.578E-01	 2.802E-01	 2.481E+00	 4.094E-01	 3.861E-01	 2.175E-03	 5.834E-02	 5.730E+00	 1.005E+04	 1.755E+03	 0.000E+00	 5.730E+00	 1.804E+03	-1.256E+02	-2.235E+04	 2.124E+04	 1.273E+05	 1.322E+03	 1.360E+03	-5.827E+01	-8.991E+03	 1.048E+04	-6.343E+04	 1.322E+03	-2.235E+04	 5.730E+00	 9.510E+00	-7.552E-01	-2.033E+06	 6.454E+02	 2.046E+08	-9.707E+06	 5.536E+07	 4.254E+05
    1.0000	 7.999E+00	 0.000E+00	 0.000E+00	 2.081E+01	 1.301E-01	-3.607E-01	 2.802E-01	 2.499E+00	 4.092E-01	 3.892E-01	 2.596E-03	 6.819E-02	 5.730E+00	 9.897E+03	 1.747E+03	 0.000E+00	 5.730E+00	 1.783E+03	-1.260E+02	-2.237E+04	 2.115E+04	 1.257E+05	 1.442E+03	 1.352E+03	-5.850E+01	-8.999E+03	 1.034E+04	-6.359E+04	 1.442E+03	-2.237E+04	 5.730E+00	 9.573E+00	-8.241E-01	-1.624E+06	 7.338E+02	 2.048E+08	-9.674E+06	 5.150E+07	 3.728E+05
    1.1000	 7.999E+00	 0.000E+00	 0.000E+00	 2.079E+01	 1.301E-01	-3.635E-01	 2.802E-01	 2.520E+00	 4.091E-01	 3.864E-01	 3.025E-03	 7.695E-02	 5.730E+00	 9.743E+03	 1.742E+03	 0.000E+00	 5.730E+00	 1.771E+03	-1.265E+02	-2.239E+04	 2.106E+04	 1.250E+05	 1.561E+03	 1.349E+03	-5.881E+01	-9.006E+03	 1.020E+04	-6.370E+04	 1.561E+03	-2.239E+04	 5.730E+00	 9.640E+00	-8.755E-01	-1.233E+06	 8.365E+02	 2.050E+08	-9.641E+06	 4.633E+07	 3.194E+05
    1.2000	 7.999E+00	 0.000E+00	 0.000E+00	 2.077E+01	 1.301E-01	-3.659E-01	 2.802E-01	 2.542E+00	 4.089E-01	 3.829E-01	 3.411E-03	 8.556E-02	 5.730E+00	 9.583E+03	 1.736E+03	 0.000E+00	 5.730E+00	 1.761E+03	-1.271E+02	-2.241E+04	 2.098E+04	 1.246E+05	 1.683E+03	 1.346E+03	-5.921E+01	-9.012E+03	 1.006E+04	-6.379E+04	 1.683E+03	-2.241E+04	 5.730E+00	 9.711E+00	-9.268E-01	-8.449E+05	 9.631E+02	 2.052E+08	-9.610E+06	 4.112E+07	 2.643E+05
    1.3000	 7.999E+00	 0.000E+00	 0.000E+00	 2.075E+01	 1.301E-01	-3.681E-01	 2.802E-01	 2.565E+00	 4.088E-01	 3.734E-01	 3.772E-03	 9.291E-02	 5.730E+00	 9.415E+03	 1.733E+03	 0.000E+00	 5.730E+00	 1.762E+03	-1.278E+02	-2.243E+04	 2.092E+04	 1.251E+05	 1.808E+03	 1.349E+03	-5.976E+01	-9.018E+03	 9.904E+03	-6.381E+04	 1.808E+03	-2.243E+04	 5.730E+00	 9.788E+00	-9.637E-01	-4.848E+05	 1.124E+03	 2.053E+08	-9.582E+06	 3.468E+07	 2.063E+05
    1.4000	 7.999E+00	 0.000E+00	 0.000E+00	 2.074E+01	 1.302E-01	-3.698E-01	 2.802E-01	 2.591E+00	 4.086E-01	 3.630E-01	 4.051E-03	 1.001E-01	 5.730E+00	 9.238E+03	 1.729E+03	 0.000E+00	 5.730E+00	 1.763E+03	-1.286E+02	-2.245E+04	 2.085E+04	 1.259E+05	 1.942E+03	 1.352E+03	-6.046E+01	-9.024E+03	 9.742E+03	-6.376E+04	 1.942E+03	-2.245E+04	 5.730E+00	 9.868E+00	-1.001E+00	-1.291E+05	 1.331E+03	 2.055E+08	-9.558E+06	 2.822E+07	 1.433E+05
    1.5000	 7.999E+00	 0.000E+00	 0.000E+00	 2.072E+01	 1.302E-01	-3.710E-01	 2.802E-01	 2.617E+00	 4.084E-01	 3.464E-01	 4.264E-03	 1.059E-01	 5.730E+00	 9.049E+03	 1.726E+03	 0.000E+00	 5.730E+00	 1.775E+03	-1.296E+02	-2.246E+04	 2.081E+04	 1.276E+05	 2.096E+03	 1.359E+03	-6.137E+01	-9.029E+03	 9.573E+03	-6.360E+04	 2.096E+03	-2.246E+04	 5.730E+00	 9.951E+00	-1.026E+00	 1.912E+05	 1.590E+03	 2.057E+08	-9.539E+06	 2.063E+07	 6.959E+04
    1.6000	 7.999E+00	 0.000E+00	 0.000E+00	 2.070E+01	 1.302E-01	-3.715E-01	 2.801E-01	 2.645E+00	 4.083E-01	 3.291E-01	 4.369E-03	 1.116E-01	 5.730E+00	 8.853E+03	 1.723E+03	 0.000E+00	 5.730E+00	 1.788E+03	-1.306E+02	-2.248E+04	 2.078E+04	 1.295E+05	 2.287E+03	 1.367E+03	-6.242E+01	-9.034E+03	 9.400E+03	-6.337E+04	 2.287E+03	-2.248E+04	 5.730E+00	 1.003E+01	-1.052E+00	 5.067E+05	 1.892E+03	 2.059E+08	-9.526E+06	 1.303E+07	-2.154E+04
    1.7000	 7.999E+00	 0.000E+00	 0.000E+00	 2.069E+01	 1.303E-01	-3.714E-01	 2.801E-01	 2.674E+00	 4.081E-01	 3.062E-01	 4.442E-03	 1.158E-01	 5.730E+00	 8.662E+03	 1.723E+03	 0.000E+00	 5.730E+00	 1.812E+03	-1.317E+02	-2.249E+04	 2.076E+04	 1.325E+05	 2.525E+03	 1.380E+03	-6.351E+01	-9.038E+03	 9.238E+03	-6.311E+04	 2.525E+03	-2.249E+04	 5.730E+00	 1.009E+01	-1.070E+00	 7.812E+05	 2.190E+03	 2.060E+08	-9.517E+06	 4.412E+06	-1.365E+05
    1.8000	 7.999E+00	 0.000E+00	 0.000E+00	 2.067E+01	 1.303E-01	-3.706E-01	 2.800E-01	 2.705E+00	 4.080E-01	 2.834E-01	 4.527E-03	 1.200E-01	 5.730E+00	 8.496E+03	 1.724E+03	 0.000E+00	 5.730E+00	 1.838E+03	-1.326E+02	-2.251E+04	 2.074E+04	 1.356E+05	 2.796E+03	 1.395E+03	-6.440E+01	-9.042E+03	 9.103E+03	-6.294E+04	 2.796E+03	-2.251E+04	 5.730E+00	 1.013E+01	-1.088E+00	 1.050E+06	 2.419E+03	 2.062E+08	-9.508E+06	-4.243E+06	-2.687E+05
    1.9000	 7.999E+00	 0.000E+00	 0.000E+00	 2.065E+01	 1.303E-01	-3.689E-01	 2.799E-01	 2.736E+00	 4.078E-01	 2.560E-01	 4.759E-03	 1.227E-01	 5.730E+00	 8.370E+03	 1.730E+03	 0.000E+00	 5.730E+00	 1.875E+03	-1.332E+02	-2.252E+04	 2.072E+04	 1.397E+05	 3.061E+03	 1.418E+03	-6.494E+01	-9.047E+03	 9.007E+03	-6.291E+04	 3.061E+03	-2.252E+04	 5.730E+00	 1.015E+01	-1.101E+00	 1.274E+06	 2.525E+03	 2.063E+08	-9.492E+06	-1.380E+07	-4.011E+05
    2.0000	 7.999E+00	 0.000E+00	 0.000E+00	 2.064E+01	 1.304E-01	-3.663E-01	 2.798E-01	 2.768E+00	 4.077E-01	 2.292E-01	 5.162E-03	 1.254E-01	 5.730E+00	 8.286E+03	 1.738E+03	 0.000E+00	 5.730E+00	 1.915E+03	-1.335E+02	-2.254E+04	 2.069E+04	 1.440E+05	 3.277E+03	 1.442E+03	-6.504E+01	-9.051E+03	 8.945E+03	-6.305E+04	 3.277E+03	-2.254E+04	 5.730E+00	 1.015E+01	-1.114E+00	 1.493E+06	 2.499E+03	 2.064E+08	-9.466E+06	-2.340E+07	-5.142E+05
    2.1000	 7.999E+00	 0.000E+00	 0.000E+00	 2.062E+01	 1.304E-01	-3.627E-01	 2.797E-01	 2.800E+00	 4.076E-01	 1.984E-01	 5.754E-03	 1.267E-01	 5.730E+00	 8.234E+03	 1.751E+03	 0.000E+00	 5.730E+00	 1.965E+03	-1.336E+02	-2.255E+04	 2.065E+04	 1.492E+05	 3.426E+03	 1.473E+03	-6.483E+01	-9.055E+03	 8.907E+03	-6.325E+04	 3.426E+03	-2.255E+04	 5.730E+00	 1.015E+01	-1.124E+00	 1.666E+06	 2.372E+03	 2.065E+08	-9.430E+06	-3.374E+07	-6.002E+05
    2.2000	 7.999E+00	 0.000E+00	 0.000E+00	 2.061E+01	 1.305E-01	-3.581E-01	 2.795E-01	 2.834E+00	 4.075E-01	 1.680E-01	 6.443E-03	 1.280E-01	 5.730E+00	 8.200E+03	 1.764E+03	 0.000E+00	 5.730E+00	 2.015E+03	-1.336E+02	-2.256E+04	 2.060E+04	 1.545E+05	 3.515E+03	 1.504E+03	-6.442E+01	-9.059E+03	 8.881E+03	-6.346E+04	 3.515E+03	-2.256E+04	 5.730E+00	 1.014E+01	-1.134E+00	 1.833E+06	 2.196E+03	 2.066E+08	-9.387E+06	-4.410E+07	-6.614E+05
    2.3000	 7.999E+00	 0.000E+00	 0.000E+00	 2.060E+01	 1.305E-01	-3.525E-01	 2.793E-01	 2.867E+00	 4.074E-01	 1.338E-01	 7.193E-03	 1.277E-01	 5.730E+00	 8.176E+03	 1.779E+03	 0.000E+00	 5.730E+00	 2.074E+03	-1.335E+02	-2.257E+04	 2.055E+04	 1.606E+05	 3.557E+03	 1.540E+03	-6.396E+01	-9.062E+03	 8.859E+03	-6.361E+04	 3.557E+03	-2.257E+04	 5.730E+00	 1.014E+01	-1.143E+00	 1.956E+06	 2.005E+03	 2.067E+08	-9.340E+06	-5.500E+07	-7.040E+05
    2.4000	 7.999E+00	 0.000E+00	 0.000E+00	 2.059E+01	 1.306E-01	-3.457E-01	 2.791E-01	 2.901E+00	 4.074E-01	 9.998E-02	 7.934E-03	 1.274E-01	 5.730E+00	 8.157E+03	 1.795E+03	 0.000E+00	 5.730E+00	 2.133E+03	-1.335E+02	-2.258E+04	 2.050E+04	 1.667E+05	 3.566E+03	 1.575E+03	-6.349E+01	-9.065E+03	 8.839E+03	-6.371E+04	 3.566E+03	-2.258E+04	 5.730E+00	 1.014E+01	-1.152E+00	 2.075E+06	 1.821E+03	 2.068E+08	-9.293E+06	-6.589E+07	-7.330E+05
    2.5000	 7.999E+00	 0.000E+00	 0.000E+00	 2.057E+01	 1.306E-01	-3.378E-01	 2.789E-01	 2.935E+00	 4.073E-01	 6.312E-02	 8.651E-03	 1.255E-01	 5.730E+00	 8.142E+03	 1.812E+03	 0.000E+00	 5.730E+00	 2.198E+03	-1.335E+02	-2.258E+04	 2.045E+04	 1.735E+05	 3.550E+03	 1.613E+03	-6.308E+01	-9.066E+03	 8.820E+03	-6.374E+04	 3.550E+03	-2.258E+04	 5.730E+00	 1.013E+01	-1.160E+00	 2.150E+06	 1.653E+03	 2.069E+08	-9.247E+06	-7.714E+07	-7.525E+05
    2.6000	 7.999E+00	 0.000E+00	 0.000E+00	 2.056E+01	 1.307E-01	-3.287E-01	 2.786E-01	 2.969E+00	 4.073E-01	 2.665E-02	 9.308E-03	 1.236E-01	 5.730E+00	 8.132E+03	 1.829E+03	 0.000E+00	 5.730E+00	 2.262E+03	-1.334E+02	-2.259E+04	 2.041E+04	 1.803E+05	 3.515E+03	 1.652E+03	-6.270E+01	-9.067E+03	 8.805E+03	-6.373E+04	 3.515E+03	-2.259E+04	 5.730E+00	 1.012E+01	-1.167E+00	 2.223E+06	 1.502E+03	 2.069E+08	-9.203E+06	-8.837E+07	-7.643E+05
    2.7000	 7.999E+00	 0.000E+00	 0.000E+00	 2.056E+01	 1.307E-01	-3.183E-01	 2.783E-01	 3.002E+00	 4.073E-01	-1.198E-02	 9.909E-03	 1.202E-01	 5.730E+00	 8.129E+03	 1.846E+03	 0.000E+00	 5.730E+00	 2.332E+03	-1.334E+02	-2.259E+04	 2.038E+04	 1.876E+05	 3.464E+03	 1.692E+03	-6.238E+01	-9.067E+03	 8.795E+03	-6.366E+04	 3.464E+03	-2.259E+04	 5.729E+00	 1.011E+01	-1.174E+00	 2.255E+06	 1.367E+03	 2.070E+08	-9.162E+06	-9.974E+07	-7.695E+05
    2.8000	 7.999E+00	 0.000E+00	 0.000E+00	 2.055E+01	 1.308E-01	-3.068E-01	 2.780E-01	 3.035E+00	 4.074E-01	-5.000E-02	 1.041E-02	 1.168E-01	 5.730E+00	 8.136E+03	 1.865E+03	 0.000E+00	 5.730E+00	 2.401E+03	-1.334E+02	-2.259E+04	 2.037E+04	 1.949E+05	 3.418E+03	 1.733E+03	-6.211E+01	-9.067E+03	 8.796E+03	-6.355E+04	 3.418E+03	-2.259E+04	 5.729E+00	 1.010E+01	-1.181E+00	 2.285E+06	 1.243E+03	 2.070E+08	-9.126E+06	-1.111E+08	-7.766E+05
    2.9000	 7.999E+00	 0.000E+00	 0.000E+00	 2.054E+01	 1.309E-01	-2.940E-01	 2.776E-01	 3.068E+00	 4.074E-01	-8.921E-02	 1.083E-02	 1.120E-01	 5.730E+00	 8.154E+03	 1.884E+03	 0.000E+00	 5.730E+00	 2.474E+03	-1.333E+02	-2.259E+04	 2.036E+04	 2.025E+05	 3.362E+03	 1.775E+03	-6.187E+01	-9.065E+03	 8.806E+03	-6.339E+04	 3.362E+03	-2.259E+04	 5.729E+00	 1.008E+01	-1.185E+00	 2.277E+06	 1.128E+03	 2.070E+08	-9.093E+06	-1.224E+08	-7.793E+05
    3.0000	 7.999E+00	 0.000E+00	 0.000E+00	 2.054E+01	 1.310E-01	-2.799E-01	 2.772E-01	 3.100E+00	 4.075E-01	-1.278E-01	 1.119E-02	 1.071E-01	 5.730E+00	 8.180E+03	 1.903E+03	 0.000E+00	 5.730E+00	 2.547E+03	-1.332E+02	-2.259E+04	 2.036E+04	 2.102E+05	 3.288E+03	 1.818E+03	-6.164E+01	-9.064E+03	 8.824E+03	-6.321E+04	 3.288E+03	-2.259E+04	 5.729E+00	 1.005E+01	-1.189E+00	 2.269E+06	 1.021E+03	 2.070E+08	-9.063E+06	-1.337E+08	-7.729E+05
    3.1000	 7.999E+00	 0.000E+00	 0.000E+00	 2.053E+01	 1.310E-01	-2.645E-01	 2.768E-01	 3.131E+00	 4.075E-01	-1.669E-01	 1.148E-02	 1.008E-01	 5.730E+00	 8.216E+03	 1.923E+03	 0.000E+00	 5.730E+00	 2.621E+03	-1.331E+02	-2.258E+04	 2.037E+04	 2.180E+05	 3.197E+03	 1.861E+03	-6.145E+01	-9.061E+03	 8.849E+03	-6.297E+04	 3.197E+03	-2.258E+04	 5.729E+00	 1.002E+01	-1.189E+00	 2.225E+06	 9.224E+02	 2.070E+08	-9.036E+06	-1.447E+08	-7.578E+05
    3.2000	 7.999E+00	 0.000E+00	 0.000E+00	 2.053E+01	 1.311E-01	-2.479E-01	 2.763E-01	 3.161E+00	 4.076E-01	-2.054E-01	 1.170E-02	 9.442E-02	 5.730E+00	 8.260E+03	 1.944E+03	 0.000E+00	 5.730E+00	 2.695E+03	-1.329E+02	-2.258E+04	 2.038E+04	 2.258E+05	 3.093E+03	 1.903E+03	-6.128E+01	-9.059E+03	 8.882E+03	-6.271E+04	 3.093E+03	-2.258E+04	 5.729E+00	 9.994E+00	-1.190E+00	 2.183E+06	 8.318E+02	 2.069E+08	-9.011E+06	-1.557E+08	-7.352E+05
    3.3000	 7.999E+00	 0.000E+00	 0.000E+00	 2.052E+01	 1.312E-01	-2.301E-01	 2.757E-01	 3.190E+00	 4.077E-01	-2.434E-01	 1.184E-02	 8.677E-02	 5.730E+00	 8.314E+03	 1.964E+03	 0.000E+00	 5.730E+00	 2.769E+03	-1.327E+02	-2.257E+04	 2.040E+04	 2.336E+05	 2.977E+03	 1.946E+03	-6.112E+01	-9.055E+03	 8.924E+03	-6.241E+04	 2.977E+03	-2.257E+04	 5.729E+00	 9.960E+00	-1.184E+00	 2.108E+06	 7.485E+02	 2.069E+08	-8.990E+06	-1.663E+08	-7.052E+05
    3.4000	 7.999E+00	 0.000E+00	 0.000E+00	 2.052E+01	 1.313E-01	-2.111E-01	 2.751E-01	 3.218E+00	 4.079E-01	-2.808E-01	 1.189E-02	 7.909E-02	 5.730E+00	 8.379E+03	 1.985E+03	 0.000E+00	 5.730E+00	 2.843E+03	-1.325E+02	-2.256E+04	 2.043E+04	 2.414E+05	 2.854E+03	 1.989E+03	-6.099E+01	-9.051E+03	 8.975E+03	-6.208E+04	 2.854E+03	-2.256E+04	 5.729E+00	 9.922E+00	-1.178E+00	 2.035E+06	 6.716E+02	 2.068E+08	-8.972E+06	-1.768E+08	-6.704E+05
    3.5000	 7.999E+00	 0.000E+00	 0.000E+00	 2.052E+01	 1.314E-01	-1.909E-01	 2.745E-01	 3.244E+00	 4.080E-01	-3.170E-01	 1.186E-02	 7.021E-02	 5.730E+00	 8.453E+03	 2.005E+03	 0.000E+00	 5.730E+00	 2.916E+03	-1.322E+02	-2.255E+04	 2.047E+04	 2.492E+05	 2.726E+03	 2.031E+03	-6.086E+01	-9.045E+03	 9.037E+03	-6.172E+04	 2.726E+03	-2.255E+04	 5.729E+00	 9.880E+00	-1.165E+00	 1.933E+06	 6.012E+02	 2.067E+08	-8.957E+06	-1.866E+08	-6.303E+05
    3.6000	 7.999E+00	 0.000E+00	 0.000E+00	 2.052E+01	 1.315E-01	-1.695E-01	 2.738E-01	 3.269E+00	 4.081E-01	-3.524E-01	 1.175E-02	 6.130E-02	 5.730E+00	 8.539E+03	 2.026E+03	 0.000E+00	 5.730E+00	 2.987E+03	-1.319E+02	-2.254E+04	 2.051E+04	 2.568E+05	 2.597E+03	 2.072E+03	-6.076E+01	-9.040E+03	 9.109E+03	-6.133E+04	 2.597E+03	-2.254E+04	 5.729E+00	 9.836E+00	-1.151E+00	 1.833E+06	 5.366E+02	 2.066E+08	-8.947E+06	-1.964E+08	-5.873E+05
    3.7000	 7.999E+00	 0.000E+00	 0.000E+00	 2.052E+01	 1.316E-01	-1.471E-01	 2.731E-01	 3.293E+00	 4.082E-01	-3.860E-01	 1.153E-02	 5.133E-02	 5.730E+00	 8.635E+03	 2.046E+03	 0.000E+00	 5.730E+00	 3.057E+03	-1.315E+02	-2.252E+04	 2.057E+04	 2.643E+05	 2.469E+03	 2.112E+03	-6.066E+01	-9.034E+03	 9.191E+03	-6.091E+04	 2.469E+03	-2.252E+04	 5.729E+00	 9.788E+00	-1.128E+00	 1.706E+06	 4.782E+02	 2.065E+08	-8.941E+06	-2.054E+08	-5.416E+05
    3.8000	 7.999E+00	 0.000E+00	 0.000E+00	 2.052E+01	 1.318E-01	-1.236E-01	 2.724E-01	 3.314E+00	 4.084E-01	-4.188E-01	 1.123E-02	 4.136E-02	 5.730E+00	 8.742E+03	 2.067E+03	 0.000E+00	 5.730E+00	 3.126E+03	-1.310E+02	-2.251E+04	 2.063E+04	 2.716E+05	 2.344E+03	 2.152E+03	-6.059E+01	-9.028E+03	 9.285E+03	-6.047E+04	 2.344E+03	-2.251E+04	 5.729E+00	 9.738E+00	-1.104E+00	 1.582E+06	 4.242E+02	 2.064E+08	-8.939E+06	-2.143E+08	-4.945E+05
    3.9000	 7.999E+00	 0.000E+00	 0.000E+00	 2.053E+01	 1.319E-01	-9.908E-02	 2.716E-01	 3.334E+00	 4.085E-01	-4.490E-01	 1.082E-02	 3.047E-02	 5.730E+00	 8.859E+03	 2.086E+03	 0.000E+00	 5.730E+00	 3.192E+03	-1.305E+02	-2.249E+04	 2.070E+04	 2.787E+05	 2.227E+03	 2.190E+03	-6.051E+01	-9.021E+03	 9.391E+03	-6.002E+04	 2.227E+03	-2.249E+04	 5.729E+00	 9.685E+00	-1.070E+00	 1.432E+06	 3.753E+02	 2.062E+08	-8.942E+06	-2.222E+08	-4.477E+05
    4.0000	 7.999E+00	 0.000E+00	 0.000E+00	 2.053E+01	 1.320E-01	-7.367E-02	 2.707E-01	 3.352E+00	 4.087E-01	-4.785E-01	 1.032E-02	 1.960E-02	 5.730E+00	 8.987E+03	 2.106E+03	 0.000E+00	 5.730E+00	 3.256E+03	-1.300E+02	-2.248E+04	 2.078E+04	 2.856E+05	 2.117E+03	 2.227E+03	-6.046E+01	-9.013E+03	 9.507E+03	-5.955E+04	 2.117E+03	-2.248E+04	 5.729E+00	 9.632E+00	-1.035E+00	 1.286E+06	 3.308E+02	 2.061E+08	-8.949E+06	-2.301E+08	-4.015E+05
    4.1000	 7.999E+00	 0.000E+00	 0.000E+00	 2.053E+01	 1.322E-01	-4.742E-02	 2.699E-01	 3.368E+00	 4.088E-01	-5.048E-01	 9.714E-03	 8.006E-03	 5.730E+00	 9.123E+03	 2.125E+03	 0.000E+00	 5.730E+00	 3.316E+03	-1.293E+02	-2.246E+04	 2.086E+04	 2.920E+05	 2.025E+03	 2.262E+03	-6.041E+01	-9.005E+03	 9.635E+03	-5.907E+04	 2.025E+03	-2.246E+04	 5.728E+00	 9.577E+00	-9.888E-01	 1.116E+06	 2.939E+02	 2.059E+08	-8.962E+06	-2.367E+08	-3.594E+05
    4.2000	 7.999E+00	 0.000E+00	 0.000E+00	 2.054E+01	 1.323E-01	-2.039E-02	 2.689E-01	 3.381E+00	 4.090E-01	-5.304E-01	 9.019E-03	-3.560E-03	 5.730E+00	 9.267E+03	 2.144E+03	 0.000E+00	 5.730E+00	 3.374E+03	-1.287E+02	-2.244E+04	 2.096E+04	 2.984E+05	 1.952E+03	 2.296E+03	-6.039E+01	-8.997E+03	 9.772E+03	-5.858E+04	 1.952E+03	-2.244E+04	 5.728E+00	 9.522E+00	-9.424E-01	 9.503E+05	 2.640E+02	 2.058E+08	-8.979E+06	-2.434E+08	-3.242E+05
    4.3000	 7.999E+00	 0.000E+00	 0.000E+00	 2.054E+01	 1.324E-01	 7.325E-03	 2.680E-01	 3.393E+00	 4.091E-01	-5.522E-01	 8.215E-03	-1.563E-02	 5.730E+00	 9.419E+03	 2.161E+03	 0.000E+00	 5.730E+00	 3.427E+03	-1.279E+02	-2.242E+04	 2.106E+04	 3.041E+05	 1.899E+03	 2.326E+03	-6.037E+01	-8.989E+03	 9.920E+03	-5.809E+04	 1.899E+03	-2.242E+04	 5.728E+00	 9.466E+00	-8.843E-01	 7.635E+05	 2.412E+02	 2.056E+08	-9.001E+06	-2.487E+08	-2.941E+05
    4.4000	 7.999E+00	 0.000E+00	 0.000E+00	 2.055E+01	 1.326E-01	 3.564E-02	 2.670E-01	 3.402E+00	 4.092E-01	-5.733E-01	 7.339E-03	-2.765E-02	 5.730E+00	 9.579E+03	 2.179E+03	 0.000E+00	 5.730E+00	 3.478E+03	-1.272E+02	-2.239E+04	 2.117E+04	 3.097E+05	 1.858E+03	 2.356E+03	-6.037E+01	-8.980E+03	 1.008E+04	-5.761E+04	 1.858E+03	-2.239E+04	 5.728E+00	 9.407E+00	-8.261E-01	 5.804E+05	 2.263E+02	 2.054E+08	-9.027E+06	-2.539E+08	-2.677E+05
    4.5000	 7.999E+00	 0.000E+00	 0.000E+00	 2.055E+01	 1.327E-01	 6.448E-02	 2.660E-01	 3.409E+00	 4.094E-01	-5.900E-01	 6.366E-03	-3.992E-02	 5.730E+00	 9.749E+03	 2.195E+03	 0.000E+00	 5.730E+00	 3.523E+03	-1.263E+02	-2.237E+04	 2.128E+04	 3.145E+05	 1.811E+03	 2.382E+03	-6.036E+01	-8.971E+03	 1.024E+04	-5.713E+04	 1.811E+03	-2.237E+04	 5.728E+00	 9.348E+00	-7.570E-01	 3.793E+05	 2.185E+02	 2.052E+08	-9.057E+06	-2.578E+08	-2.358E+05
    4.6000	 7.999E+00	 0.000E+00	 0.000E+00	 2.056E+01	 1.329E-01	 9.372E-02	 2.650E-01	 3.413E+00	 4.095E-01	-6.060E-01	 5.311E-03	-5.210E-02	 5.730E+00	 9.926E+03	 2.210E+03	 0.000E+00	 5.730E+00	 3.566E+03	-1.255E+02	-2.235E+04	 2.140E+04	 3.193E+05	 1.769E+03	 2.408E+03	-6.039E+01	-8.963E+03	 1.042E+04	-5.665E+04	 1.769E+03	-2.235E+04	 5.728E+00	 9.291E+00	-6.879E-01	 1.819E+05	 2.269E+02	 2.050E+08	-9.092E+06	-2.616E+08	-2.043E+05
    4.7000	 7.999E+00	 0.000E+00	 0.000E+00	 2.056E+01	 1.330E-01	 1.233E-01	 2.639E-01	 3.416E+00	 4.096E-01	-6.174E-01	 4.137E-03	-6.431E-02	 5.730E+00	 1.011E+04	 2.224E+03	 0.000E+00	 5.730E+00	 3.602E+03	-1.246E+02	-2.232E+04	 2.153E+04	 3.232E+05	 1.731E+03	 2.428E+03	-6.047E+01	-8.953E+03	 1.059E+04	-5.617E+04	 1.731E+03	-2.232E+04	 5.728E+00	 9.237E+00	-6.096E-01	-2.970E+04	 2.625E+02	 2.048E+08	-9.133E+06	-2.639E+08	-1.722E+05
    4.8000	 7.999E+00	 0.000E+00	 0.000E+00	 2.057E+01	 1.332E-01	 1.531E-01	 2.629E-01	 3.416E+00	 4.098E-01	-6.283E-01	 2.863E-03	-7.643E-02	 5.730E+00	 1.029E+04	 2.237E+03	 0.000E+00	 5.730E+00	 3.635E+03	-1.238E+02	-2.230E+04	 2.167E+04	 3.269E+05	 1.704E+03	 2.448E+03	-6.068E+01	-8.944E+03	 1.077E+04	-5.566E+04	 1.704E+03	-2.230E+04	 5.728E+00	 9.187E+00	-5.313E-01	-2.378E+05	 3.415E+02	 2.046E+08	-9.179E+06	-2.662E+08	-1.432E+05
    4.9000	 7.999E+00	 0.000E+00	 0.000E+00	 2.058E+01	 1.333E-01	 1.829E-01	 2.618E-01	 3.413E+00	 4.099E-01	-6.343E-01	 1.437E-03	-8.835E-02	 5.730E+00	 1.046E+04	 2.247E+03	 0.000E+00	 5.730E+00	 3.660E+03	-1.230E+02	-2.228E+04	 2.181E+04	 3.298E+05	 1.691E+03	 2.462E+03	-6.102E+01	-8.934E+03	 1.095E+04	-5.512E+04	 1.691E+03	-2.228E+04	 5.728E+00	 9.141E+00	-4.463E-01	-4.551E+05	 4.786E+02	 2.043E+08	-9.234E+06	-2.668E+08	-1.185E+05
    5.0000	 7.999E+00	 0.000E+00	 0.000E+00	 2.058E+01	 1.335E-01	 2.128E-01	 2.607E-01	 3.408E+00	 4.100E-01	-6.400E-01	-1.161E-04	-1.002E-01	 5.730E+00	 1.062E+04	 2.255E+03	 0.000E+00	 5.730E+00	 3.682E+03	-1.223E+02	-2.225E+04	 2.197E+04	 3.324E+05	 1.705E+03	 2.474E+03	-6.156E+01	-8.924E+03	 1.111E+04	-5.451E+04	 1.705E+03	-2.225E+04	 5.728E+00	 9.097E+00	-3.613E-01	-6.692E+05	 6.817E+02	 2.041E+08	-9.296E+06	-2.674E+08	-1.051E+05
    5.1000	 7.999E+00	 0.000E+00	 0.000E+00	 2.059E+01	 1.336E-01	 2.426E-01	 2.596E-01	 3.401E+00	 4.101E-01	-6.406E-01	-1.832E-03	-1.116E-01	 5.730E+00	 1.078E+04	 2.261E+03	 0.000E+00	 5.730E+00	 3.695E+03	-1.217E+02	-2.223E+04	 2.214E+04	 3.341E+05	 1.764E+03	 2.480E+03	-6.224E+01	-8.915E+03	 1.128E+04	-5.387E+04	 1.764E+03	-2.223E+04	 5.728E+00	 9.049E+00	-2.725E-01	-8.866E+05	 9.412E+02	 2.039E+08	-9.368E+06	-2.665E+08	-1.106E+05
    5.2000	 7.999E+00	 0.000E+00	 0.000E+00	 2.059E+01	 1.338E-01	 2.722E-01	 2.585E-01	 3.391E+00	 4.103E-01	-6.407E-01	-3.626E-03	-1.228E-01	 5.730E+00	 1.093E+04	 2.266E+03	 0.000E+00	 5.730E+00	 3.706E+03	-1.211E+02	-2.220E+04	 2.232E+04	 3.356E+05	 1.878E+03	 2.485E+03	-6.296E+01	-8.905E+03	 1.146E+04	-5.325E+04	 1.878E+03	-2.220E+04	 5.728E+00	 8.991E+00	-1.838E-01	-1.101E+06	 1.211E+03	 2.037E+08	-9.446E+06	-2.654E+08	-1.404E+05
    5.3000	 7.999E+00	 0.000E+00	 0.000E+00	 2.059E+01	 1.339E-01	 3.015E-01	 2.575E-01	 3.379E+00	 4.104E-01	-6.350E-01	-5.419E-03	-1.332E-01	 5.730E+00	 1.112E+04	 2.270E+03	 0.000E+00	 5.730E+00	 3.709E+03	-1.202E+02	-2.218E+04	 2.250E+04	 3.360E+05	 2.030E+03	 2.486E+03	-6.343E+01	-8.897E+03	 1.166E+04	-5.280E+04	 2.030E+03	-2.218E+04	 5.728E+00	 8.916E+00	-9.474E-02	-1.313E+06	 1.413E+03	 2.035E+08	-9.525E+06	-2.628E+08	-1.881E+05
    5.4000	 7.999E+00	 0.000E+00	 0.000E+00	 2.060E+01	 1.340E-01	 3.303E-01	 2.564E-01	 3.365E+00	 4.105E-01	-6.282E-01	-7.045E-03	-1.435E-01	 5.730E+00	 1.134E+04	 2.276E+03	 0.000E+00	 5.730E+00	 3.712E+03	-1.190E+02	-2.215E+04	 2.266E+04	 3.364E+05	 2.178E+03	 2.489E+03	-6.347E+01	-8.889E+03	 1.190E+04	-5.255E+04	 2.178E+03	-2.215E+04	 5.728E+00	 8.827E+00	-5.714E-03	-1.523E+06	 1.483E+03	 2.032E+08	-9.596E+06	-2.602E+08	-2.352E+05
    5.5000	 7.999E+00	 0.000E+00	 0.000E+00	 2.060E+01	 1.341E-01	 3.586E-01	 2.554E-01	 3.349E+00	 4.106E-01	-6.150E-01	-8.469E-03	-1.527E-01	 5.730E+00	 1.160E+04	 2.282E+03	 0.000E+00	 5.730E+00	 3.706E+03	-1.174E+02	-2.213E+04	 2.280E+04	 3.358E+05	 2.278E+03	 2.488E+03	-6.299E+01	-8.882E+03	 1.217E+04	-5.253E+04	 2.278E+03	-2.213E+04	 5.728E+00	 8.733E+00	 7.999E-02	-1.724E+06	 1.407E+03	 2.030E+08	-9.656E+06	-2.562E+08	-2.616E+05
    5.6000	 7.999E+00	 0.000E+00	 0.000E+00	 2.060E+01	 1.342E-01	 3.863E-01	 2.544E-01	 3.330E+00	 4.108E-01	-6.011E-01	-9.667E-03	-1.616E-01	 5.730E+00	 1.189E+04	 2.290E+03	 0.000E+00	 5.730E+00	 3.700E+03	-1.156E+02	-2.211E+04	 2.292E+04	 3.351E+05	 2.312E+03	 2.487E+03	-6.214E+01	-8.875E+03	 1.246E+04	-5.262E+04	 2.312E+03	-2.211E+04	 5.728E+00	 8.641E+00	 1.657E-01	-1.922E+06	 1.225E+03	 2.028E+08	-9.704E+06	-2.521E+08	-2.608E+05
    5.7000	 7.999E+00	 0.000E+00	 0.000E+00	 2.060E+01	 1.343E-01	 4.133E-01	 2.535E-01	 3.310E+00	 4.109E-01	-5.813E-01	-1.072E-02	-1.693E-01	 5.730E+00	 1.219E+04	 2.295E+03	 0.000E+00	 5.730E+00	 3.684E+03	-1.137E+02	-2.209E+04	 2.302E+04	 3.333E+05	 2.293E+03	 2.481E+03	-6.103E+01	-8.869E+03	 1.276E+04	-5.278E+04	 2.293E+03	-2.209E+04	 5.728E+00	 8.556E+00	 2.446E-01	-2.102E+06	 9.832E+02	 2.026E+08	-9.743E+06	-2.466E+08	-2.364E+05
    5.8000	 7.999E+00	 0.000E+00	 0.000E+00	 2.060E+01	 1.344E-01	 4.394E-01	 2.525E-01	 3.287E+00	 4.111E-01	-5.614E-01	-1.164E-02	-1.769E-01	 5.730E+00	 1.249E+04	 2.300E+03	 0.000E+00	 5.730E+00	 3.666E+03	-1.117E+02	-2.207E+04	 2.310E+04	 3.314E+05	 2.232E+03	 2.475E+03	-5.983E+01	-8.864E+03	 1.304E+04	-5.294E+04	 2.232E+03	-2.207E+04	 5.728E+00	 8.478E+00	 3.235E-01	-2.281E+06	 7.220E+02	 2.024E+08	-9.776E+06	-2.410E+08	-1.949E+05
    5.9000	 7.999E+00	 0.000E+00	 0.000E+00	 2.060E+01	 1.345E-01	 4.646E-01	 2.517E-01	 3.263E+00	 4.113E-01	-5.358E-01	-1.253E-02	-1.830E-01	 5.730E+00	 1.278E+04	 2.302E+03	 0.000E+00	 5.730E+00	 3.638E+03	-1.098E+02	-2.205E+04	 2.318E+04	 3.285E+05	 2.143E+03	 2.462E+03	-5.860E+01	-8.858E+03	 1.332E+04	-5.310E+04	 2.143E+03	-2.205E+04	 5.729E+00	 8.407E+00	 3.924E-01	-2.433E+06	 4.690E+02	 2.022E+08	-9.807E+06	-2.342E+08	-1.412E+05
    6.0000	 7.999E+00	 0.000E+00	 0.000E+00	 2.060E+01	 1.346E-01	 4.888E-01	 2.508E-01	 3.237E+00	 4.115E-01	-5.104E-01	-1.337E-02	-1.890E-01	 5.730E+00	 1.306E+04	 2.303E+03	 0.000E+00	 5.730E+00	 3.609E+03	-1.079E+02	-2.204E+04	 2.324E+04	 3.255E+05	 2.038E+03	 2.449E+03	-5.742E+01	-8.853E+03	 1.359E+04	-5.325E+04	 2.038E+03	-2.204E+04	 5.729E+00	 8.343E+00	 4.613E-01	-2.583E+06	 2.323E+02	 2.020E+08	-9.837E+06	-2.273E+08	-8.193E+04
