
Predictions were generated on 23-Dec-2024 at 07:54:11 using OpenFAST, compiled on Dec 23 2024 at 07:31:53 as a 64-bit application using double precision at commit -128-NOTFOUND
 linked with  NWTC Subroutine Library; ElastoDyn; InflowWind; AeroDyn; SeaState; HydroDyn

Description from the FAST input file: IEA 15 MW offshore reference model on UMaine VolturnUS-S semi-submersible floating platform

Time	Wind1VelX	Wind1VelY	Wind1VelZ	PtfmSurge	PtfmSway	PtfmHeave	PtfmRoll	PtfmPitch	PtfmYaw	NcIMUTAxs	NcIMUTAys	NcIMUTAzs	RotSpeed	RotTorq	RotThrust	BldPitch1	GenSpeed	TwrBsFxt	TwrBsFyt	TwrBsFzt	TwrBsMxt	TwrBsMyt	TwrBsMzt	YawBrFxp	YawBrFyp	YawBrFzp	YawBrMxp	YawBrMyp	YawBrMzp	TwrBsFzt	RtSpeed	RtTSR	Wave1Elev	HydroFxi	HydroFyi	HydroFzi	HydroMxi	HydroMyi	HydroMzi
(s)	(m/s)	(m/s)	(m/s)	(m)	(m)	(m)	(deg)	(deg)	(deg)	(m/s^2)	(m/s^2)	(m/s^2)	(rpm)	(kN-m)	(kN)	(deg)	(rpm)	(kN)	(kN)	(kN)	(kN-m)	(kN-m)	(kN-m)	(kN)	(kN)	(kN)	(kN-m)	(kN-m)	(kN-m)	(kN)	(rpm)	(-)	(m)	(N)	(N)	(N)	(N-m)	(N-m)	(N-m)
    0.0000	 7.999E+00	 0.000E+00	 0.000E+00	 2.090E+01	 1.300E-01	-3.400E-01	 2.800E-01	 2.400E+00	 4.100E-01	 3.519E-01	-1.996E-03	 1.668E-02	 5.730E+00	 1.096E+04	 1.809E+03	 0.000E+00	 5.730E+00	 1.971E+03	-1.208E+02	-2.226E+04	 2.155E+04	 1.408E+05	 4.421E+02	 1.429E+03	-5.564E+01	-8.962E+03	 1.130E+04	-6.234E+04	 4.421E+02	-2.226E+04	 5.730E+00	 9.075E+00	 2.853E-01	-5.876E+06	 1.435E+03	 2.017E+08	-9.998E+06	 6.088E+07	-7.161E+04
    0.1000	 7.999E+00	 0.000E+00	 0.000E+00	 2.090E+01	 1.300E-01	-3.402E-01	 2.800E-01	 2.401E+00	 4.100E-01	-8.058E-01	 3.524E-03	-2.529E-01	 5.730E+00	 1.090E+04	 2.264E+03	 0.000E+00	 5.730E+00	 4.670E+03	-1.379E+02	-2.193E+04	 2.276E+04	 3.617E+05	 6.865E+02	 2.491E+03	-6.208E+01	-8.830E+03	 1.128E+04	-5.611E+04	 6.865E+02	-2.193E+04	 5.730E+00	 9.053E+00	 1.318E-01	 6.400E+06	-3.161E+04	 2.045E+08	-1.068E+07	-6.437E+07	 9.283E+06
    0.2000	 7.999E+00	 0.000E+00	 0.000E+00	 2.089E+01	 1.300E-01	-3.414E-01	 2.800E-01	 2.404E+00	 4.098E-01	-3.779E-01	 6.641E-04	-1.483E-01	 5.730E+00	 1.099E+04	 2.101E+03	 0.000E+00	 5.730E+00	 3.688E+03	-1.294E+02	-2.206E+04	 2.226E+04	 2.809E+05	 7.681E+02	 2.103E+03	-5.910E+01	-8.884E+03	 1.138E+04	-5.852E+04	 7.681E+02	-2.206E+04	 5.730E+00	 9.011E+00	-2.160E-02	 2.695E+06	-2.758E+03	 2.039E+08	-1.020E+07	-1.947E+07	 4.674E+06
    0.3000	 7.999E+00	 0.000E+00	 0.000E+00	 2.086E+01	 1.300E-01	-3.435E-01	 2.801E-01	 2.410E+00	 4.095E-01	-2.212E-01	-2.614E-04	-1.042E-01	 5.730E+00	 1.109E+04	 2.045E+03	 0.000E+00	 5.730E+00	 3.335E+03	-1.273E+02	-2.213E+04	 2.219E+04	 2.518E+05	 8.637E+02	 1.964E+03	-5.813E+01	-8.910E+03	 1.148E+04	-5.950E+04	 8.637E+02	-2.213E+04	 5.730E+00	 8.983E+00	-1.542E-01	 1.825E+06	-2.047E+03	 2.038E+08	-1.019E+07	-5.653E+06	 3.865E+06
    0.4000	 7.999E+00	 0.000E+00	 0.000E+00	 2.083E+01	 1.301E-01	-3.462E-01	 2.802E-01	 2.418E+00	 4.090E-01	-1.461E-01	-6.802E-04	-7.883E-02	 5.730E+00	 1.117E+04	 2.020E+03	 0.000E+00	 5.730E+00	 3.171E+03	-1.264E+02	-2.217E+04	 2.220E+04	 2.381E+05	 9.590E+02	 1.900E+03	-5.759E+01	-8.926E+03	 1.157E+04	-6.005E+04	 9.590E+02	-2.217E+04	 5.730E+00	 8.968E+00	-2.869E-01	 1.804E+06	-5.058E+03	 2.039E+08	-1.024E+07	-6.184E+05	 3.815E+06
    0.5000	 7.999E+00	 0.000E+00	 0.000E+00	 2.079E+01	 1.301E-01	-3.494E-01	 2.803E-01	 2.428E+00	 4.085E-01	-6.541E-02	-9.563E-04	-5.212E-02	 5.730E+00	 1.124E+04	 1.992E+03	 0.000E+00	 5.730E+00	 2.990E+03	-1.257E+02	-2.221E+04	 2.219E+04	 2.231E+05	 1.054E+03	 1.829E+03	-5.712E+01	-8.943E+03	 1.164E+04	-6.064E+04	 1.054E+03	-2.221E+04	 5.730E+00	 8.963E+00	-3.975E-01	 1.752E+06	-8.910E+03	 2.040E+08	-1.029E+07	 3.639E+06	 3.816E+06
    0.6000	 7.999E+00	 0.000E+00	 0.000E+00	 2.075E+01	 1.301E-01	-3.529E-01	 2.804E-01	 2.441E+00	 4.078E-01	 1.762E-02	-1.533E-03	-2.525E-02	 5.730E+00	 1.127E+04	 1.961E+03	 0.000E+00	 5.730E+00	 2.801E+03	-1.238E+02	-2.225E+04	 2.209E+04	 2.076E+05	 1.145E+03	 1.756E+03	-5.625E+01	-8.960E+03	 1.169E+04	-6.123E+04	 1.145E+03	-2.225E+04	 5.730E+00	 8.971E+00	-5.082E-01	 1.652E+06	-2.828E+03	 2.040E+08	-1.020E+07	 8.689E+06	 2.970E+06
    0.7000	 7.999E+00	 0.000E+00	 0.000E+00	 2.070E+01	 1.302E-01	-3.567E-01	 2.805E-01	 2.456E+00	 4.071E-01	 9.739E-02	-1.910E-03	 1.229E-03	 5.730E+00	 1.128E+04	 1.931E+03	 0.000E+00	 5.730E+00	 2.615E+03	-1.223E+02	-2.229E+04	 2.199E+04	 1.924E+05	 1.254E+03	 1.684E+03	-5.558E+01	-8.976E+03	 1.171E+04	-6.181E+04	 1.254E+03	-2.229E+04	 5.730E+00	 8.989E+00	-5.972E-01	 1.566E+06	 9.883E+02	 2.041E+08	-1.013E+07	 1.224E+07	 2.312E+06
    0.8000	 7.999E+00	 0.000E+00	 0.000E+00	 2.064E+01	 1.302E-01	-3.605E-01	 2.807E-01	 2.473E+00	 4.064E-01	 1.741E-01	-1.947E-03	 2.717E-02	 5.730E+00	 1.126E+04	 1.900E+03	 0.000E+00	 5.730E+00	 2.437E+03	-1.219E+02	-2.233E+04	 2.194E+04	 1.777E+05	 1.380E+03	 1.614E+03	-5.531E+01	-8.992E+03	 1.170E+04	-6.238E+04	 1.380E+03	-2.233E+04	 5.730E+00	 9.017E+00	-6.862E-01	 1.528E+06	-1.484E+03	 2.042E+08	-1.014E+07	 1.501E+07	 2.202E+06
    0.9000	 7.999E+00	 0.000E+00	 0.000E+00	 2.058E+01	 1.302E-01	-3.642E-01	 2.809E-01	 2.492E+00	 4.056E-01	 2.352E-01	-1.925E-03	 4.986E-02	 5.730E+00	 1.121E+04	 1.875E+03	 0.000E+00	 5.730E+00	 2.289E+03	-1.215E+02	-2.237E+04	 2.187E+04	 1.657E+05	 1.514E+03	 1.557E+03	-5.510E+01	-9.006E+03	 1.166E+04	-6.287E+04	 1.514E+03	-2.237E+04	 5.731E+00	 9.053E+00	-7.552E-01	 1.560E+06	-1.875E+03	 2.042E+08	-1.013E+07	 1.566E+07	 1.957E+06
    1.0000	 7.999E+00	 0.000E+00	 0.000E+00	 2.052E+01	 1.303E-01	-3.677E-01	 2.811E-01	 2.514E+00	 4.047E-01	 2.986E-01	 5.571E-04	 6.800E-02	 5.730E+00	 1.114E+04	 1.847E+03	 0.000E+00	 5.730E+00	 2.143E+03	-1.252E+02	-2.239E+04	 2.220E+04	 1.536E+05	 1.655E+03	 1.498E+03	-5.715E+01	-9.016E+03	 1.161E+04	-6.335E+04	 1.655E+03	-2.239E+04	 5.731E+00	 9.097E+00	-8.241E-01	 1.636E+06	-6.088E+03	 2.045E+08	-1.002E+07	 1.509E+07	 1.814E+06
    1.1000	 7.999E+00	 0.000E+00	 0.000E+00	 2.045E+01	 1.303E-01	-3.709E-01	 2.813E-01	 2.538E+00	 4.038E-01	 3.568E-01	 1.764E-04	 8.079E-02	 5.730E+00	 1.104E+04	 1.821E+03	 0.000E+00	 5.730E+00	 2.012E+03	-1.239E+02	-2.241E+04	 2.202E+04	 1.424E+05	 1.774E+03	 1.443E+03	-5.668E+01	-9.022E+03	 1.152E+04	-6.376E+04	 1.774E+03	-2.241E+04	 5.731E+00	 9.152E+00	-8.755E-01	 1.751E+06	-1.555E+03	 2.048E+08	-9.940E+06	 1.196E+07	 1.700E+06
    1.2000	 7.999E+00	 0.000E+00	 0.000E+00	 2.039E+01	 1.304E-01	-3.738E-01	 2.815E-01	 2.564E+00	 4.029E-01	 3.887E-01	 3.336E-04	 9.221E-02	 5.730E+00	 1.091E+04	 1.803E+03	 0.000E+00	 5.730E+00	 1.932E+03	-1.238E+02	-2.243E+04	 2.192E+04	 1.359E+05	 1.901E+03	 1.411E+03	-5.681E+01	-9.028E+03	 1.140E+04	-6.404E+04	 1.901E+03	-2.243E+04	 5.731E+00	 9.217E+00	-9.268E-01	 2.000E+06	 9.371E+02	 2.050E+08	-9.876E+06	 7.802E+06	 1.557E+06
    1.3000	 7.999E+00	 0.000E+00	 0.000E+00	 2.032E+01	 1.305E-01	-3.762E-01	 2.817E-01	 2.592E+00	 4.020E-01	 3.981E-01	 6.607E-04	 1.005E-01	 5.730E+00	 1.076E+04	 1.793E+03	 0.000E+00	 5.730E+00	 1.897E+03	-1.244E+02	-2.244E+04	 2.186E+04	 1.333E+05	 2.034E+03	 1.398E+03	-5.728E+01	-9.033E+03	 1.127E+04	-6.417E+04	 2.034E+03	-2.244E+04	 5.731E+00	 9.289E+00	-9.637E-01	 2.325E+06	 2.085E+03	 2.052E+08	-9.834E+06	 1.421E+06	 1.494E+06
    1.4000	 7.999E+00	 0.000E+00	 0.000E+00	 2.025E+01	 1.305E-01	-3.781E-01	 2.820E-01	 2.622E+00	 4.010E-01	 3.946E-01	 9.939E-04	 1.070E-01	 5.730E+00	 1.058E+04	 1.787E+03	 0.000E+00	 5.730E+00	 1.888E+03	-1.253E+02	-2.246E+04	 2.181E+04	 1.330E+05	 2.180E+03	 1.396E+03	-5.802E+01	-9.038E+03	 1.111E+04	-6.418E+04	 2.180E+03	-2.246E+04	 5.731E+00	 9.367E+00	-1.001E+00	 2.725E+06	 2.192E+03	 2.054E+08	-9.815E+06	-5.850E+06	 1.520E+06
    1.5000	 7.999E+00	 0.000E+00	 0.000E+00	 2.017E+01	 1.306E-01	-3.795E-01	 2.822E-01	 2.654E+00	 4.000E-01	 3.756E-01	 1.272E-03	 1.109E-01	 5.730E+00	 1.038E+04	 1.786E+03	 0.000E+00	 5.730E+00	 1.910E+03	-1.264E+02	-2.247E+04	 2.177E+04	 1.354E+05	 2.349E+03	 1.407E+03	-5.900E+01	-9.041E+03	 1.093E+04	-6.403E+04	 2.349E+03	-2.247E+04	 5.731E+00	 9.448E+00	-1.026E+00	 3.147E+06	 2.458E+03	 2.056E+08	-9.803E+06	-1.489E+07	 1.532E+06
    1.6000	 7.999E+00	 0.000E+00	 0.000E+00	 2.010E+01	 1.307E-01	-3.802E-01	 2.824E-01	 2.689E+00	 3.991E-01	 3.489E-01	 1.420E-03	 1.136E-01	 5.730E+00	 1.017E+04	 1.787E+03	 0.000E+00	 5.730E+00	 1.948E+03	-1.276E+02	-2.248E+04	 2.174E+04	 1.393E+05	 2.556E+03	 1.424E+03	-6.013E+01	-9.044E+03	 1.074E+04	-6.377E+04	 2.556E+03	-2.248E+04	 5.731E+00	 9.523E+00	-1.052E+00	 3.606E+06	 3.372E+03	 2.058E+08	-9.792E+06	-2.443E+07	 1.478E+06
    1.7000	 7.999E+00	 0.000E+00	 0.000E+00	 2.003E+01	 1.307E-01	-3.802E-01	 2.826E-01	 2.724E+00	 3.980E-01	 3.120E-01	 1.516E-03	 1.144E-01	 5.730E+00	 9.962E+03	 1.792E+03	 0.000E+00	 5.730E+00	 2.007E+03	-1.289E+02	-2.249E+04	 2.171E+04	 1.451E+05	 2.814E+03	 1.451E+03	-6.129E+01	-9.047E+03	 1.057E+04	-6.344E+04	 2.814E+03	-2.249E+04	 5.731E+00	 9.582E+00	-1.070E+00	 4.047E+06	 4.370E+03	 2.060E+08	-9.787E+06	-3.526E+07	 1.389E+06
    1.8000	 7.999E+00	 0.000E+00	 0.000E+00	 1.995E+01	 1.308E-01	-3.794E-01	 2.828E-01	 2.762E+00	 3.970E-01	 2.726E-01	 1.632E-03	 1.150E-01	 5.730E+00	 9.782E+03	 1.800E+03	 0.000E+00	 5.730E+00	 2.073E+03	-1.299E+02	-2.250E+04	 2.170E+04	 1.515E+05	 3.109E+03	 1.482E+03	-6.222E+01	-9.050E+03	 1.042E+04	-6.321E+04	 3.109E+03	-2.250E+04	 5.731E+00	 9.618E+00	-1.088E+00	 4.486E+06	 5.106E+03	 2.061E+08	-9.786E+06	-4.619E+07	 1.285E+06
    1.9000	 7.999E+00	 0.000E+00	 0.000E+00	 1.988E+01	 1.309E-01	-3.777E-01	 2.830E-01	 2.801E+00	 3.960E-01	 2.285E-01	 1.942E-03	 1.145E-01	 5.730E+00	 9.651E+03	 1.813E+03	 0.000E+00	 5.730E+00	 2.150E+03	-1.307E+02	-2.251E+04	 2.168E+04	 1.590E+05	 3.396E+03	 1.520E+03	-6.276E+01	-9.053E+03	 1.032E+04	-6.314E+04	 3.396E+03	-2.251E+04	 5.731E+00	 9.629E+00	-1.101E+00	 4.866E+06	 5.530E+03	 2.063E+08	-9.780E+06	-5.789E+07	 1.171E+06
    2.0000	 7.999E+00	 0.000E+00	 0.000E+00	 1.980E+01	 1.309E-01	-3.752E-01	 2.832E-01	 2.841E+00	 3.949E-01	 1.871E-01	 2.498E-03	 1.144E-01	 5.730E+00	 9.571E+03	 1.829E+03	 0.000E+00	 5.730E+00	 2.226E+03	-1.313E+02	-2.253E+04	 2.167E+04	 1.662E+05	 3.632E+03	 1.560E+03	-6.284E+01	-9.056E+03	 1.027E+04	-6.325E+04	 3.632E+03	-2.253E+04	 5.731E+00	 9.625E+00	-1.114E+00	 5.208E+06	 5.481E+03	 2.064E+08	-9.764E+06	-6.934E+07	 1.080E+06
    2.1000	 7.999E+00	 0.000E+00	 0.000E+00	 1.972E+01	 1.310E-01	-3.717E-01	 2.834E-01	 2.883E+00	 3.939E-01	 1.454E-01	 3.274E-03	 1.135E-01	 5.730E+00	 9.532E+03	 1.847E+03	 0.000E+00	 5.730E+00	 2.304E+03	-1.316E+02	-2.254E+04	 2.165E+04	 1.738E+05	 3.798E+03	 1.603E+03	-6.257E+01	-9.059E+03	 1.024E+04	-6.344E+04	 3.798E+03	-2.254E+04	 5.731E+00	 9.614E+00	-1.124E+00	 5.459E+06	 5.243E+03	 2.065E+08	-9.737E+06	-8.108E+07	 1.003E+06
    2.2000	 7.999E+00	 0.000E+00	 0.000E+00	 1.964E+01	 1.310E-01	-3.672E-01	 2.836E-01	 2.926E+00	 3.928E-01	 1.089E-01	 4.140E-03	 1.134E-01	 5.730E+00	 9.517E+03	 1.864E+03	 0.000E+00	 5.730E+00	 2.371E+03	-1.317E+02	-2.255E+04	 2.162E+04	 1.806E+05	 3.900E+03	 1.642E+03	-6.207E+01	-9.063E+03	 1.024E+04	-6.367E+04	 3.900E+03	-2.255E+04	 5.731E+00	 9.601E+00	-1.134E+00	 5.651E+06	 5.291E+03	 2.067E+08	-9.696E+06	-9.231E+07	 9.029E+05
    2.3000	 7.999E+00	 0.000E+00	 0.000E+00	 1.956E+01	 1.311E-01	-3.616E-01	 2.838E-01	 2.969E+00	 3.917E-01	 7.379E-02	 5.046E-03	 1.127E-01	 5.730E+00	 9.515E+03	 1.882E+03	 0.000E+00	 5.730E+00	 2.435E+03	-1.317E+02	-2.255E+04	 2.158E+04	 1.872E+05	 3.953E+03	 1.682E+03	-6.148E+01	-9.066E+03	 1.024E+04	-6.386E+04	 3.953E+03	-2.255E+04	 5.731E+00	 9.590E+00	-1.143E+00	 5.741E+06	 5.429E+03	 2.067E+08	-9.649E+06	-1.035E+08	 7.934E+05
    2.4000	 7.999E+00	 0.000E+00	 0.000E+00	 1.948E+01	 1.312E-01	-3.548E-01	 2.840E-01	 3.014E+00	 3.906E-01	 4.377E-02	 5.918E-03	 1.129E-01	 5.730E+00	 9.519E+03	 1.898E+03	 0.000E+00	 5.730E+00	 2.488E+03	-1.316E+02	-2.256E+04	 2.154E+04	 1.930E+05	 3.974E+03	 1.716E+03	-6.087E+01	-9.068E+03	 1.024E+04	-6.402E+04	 3.974E+03	-2.256E+04	 5.731E+00	 9.579E+00	-1.152E+00	 5.770E+06	 5.407E+03	 2.068E+08	-9.604E+06	-1.141E+08	 6.909E+05
    2.5000	 7.999E+00	 0.000E+00	 0.000E+00	 1.940E+01	 1.312E-01	-3.469E-01	 2.841E-01	 3.059E+00	 3.896E-01	 1.460E-02	 6.736E-03	 1.125E-01	 5.730E+00	 9.527E+03	 1.913E+03	 0.000E+00	 5.730E+00	 2.538E+03	-1.315E+02	-2.257E+04	 2.151E+04	 1.987E+05	 3.967E+03	 1.751E+03	-6.030E+01	-9.070E+03	 1.024E+04	-6.412E+04	 3.967E+03	-2.257E+04	 5.731E+00	 9.568E+00	-1.160E+00	 5.708E+06	 5.381E+03	 2.069E+08	-9.561E+06	-1.245E+08	 5.818E+05
    2.6000	 7.999E+00	 0.000E+00	 0.000E+00	 1.932E+01	 1.313E-01	-3.378E-01	 2.842E-01	 3.104E+00	 3.885E-01	-1.143E-02	 7.465E-03	 1.127E-01	 5.730E+00	 9.539E+03	 1.928E+03	 0.000E+00	 5.730E+00	 2.581E+03	-1.314E+02	-2.258E+04	 2.148E+04	 2.039E+05	 3.941E+03	 1.782E+03	-5.976E+01	-9.072E+03	 1.025E+04	-6.420E+04	 3.941E+03	-2.258E+04	 5.731E+00	 9.557E+00	-1.167E+00	 5.605E+06	 5.365E+03	 2.069E+08	-9.522E+06	-1.345E+08	 4.631E+05
    2.7000	 7.999E+00	 0.000E+00	 0.000E+00	 1.923E+01	 1.314E-01	-3.275E-01	 2.843E-01	 3.150E+00	 3.874E-01	-3.802E-02	 8.115E-03	 1.120E-01	 5.730E+00	 9.555E+03	 1.943E+03	 0.000E+00	 5.730E+00	 2.625E+03	-1.313E+02	-2.258E+04	 2.145E+04	 2.093E+05	 3.902E+03	 1.815E+03	-5.928E+01	-9.073E+03	 1.026E+04	-6.421E+04	 3.902E+03	-2.258E+04	 5.730E+00	 9.543E+00	-1.174E+00	 5.434E+06	 5.353E+03	 2.069E+08	-9.487E+06	-1.444E+08	 3.354E+05
    2.8000	 7.999E+00	 0.000E+00	 0.000E+00	 1.915E+01	 1.315E-01	-3.159E-01	 2.844E-01	 3.196E+00	 3.863E-01	-6.348E-02	 8.657E-03	 1.115E-01	 5.730E+00	 9.579E+03	 1.958E+03	 0.000E+00	 5.730E+00	 2.668E+03	-1.311E+02	-2.259E+04	 2.144E+04	 2.146E+05	 3.867E+03	 1.847E+03	-5.885E+01	-9.074E+03	 1.028E+04	-6.420E+04	 3.867E+03	-2.259E+04	 5.730E+00	 9.526E+00	-1.181E+00	 5.248E+06	 5.424E+03	 2.069E+08	-9.455E+06	-1.541E+08	 1.897E+05
    2.9000	 7.999E+00	 0.000E+00	 0.000E+00	 1.906E+01	 1.315E-01	-3.030E-01	 2.844E-01	 3.241E+00	 3.853E-01	-9.061E-02	 9.137E-03	 1.096E-01	 5.730E+00	 9.610E+03	 1.974E+03	 0.000E+00	 5.730E+00	 2.714E+03	-1.310E+02	-2.259E+04	 2.144E+04	 2.202E+05	 3.820E+03	 1.880E+03	-5.849E+01	-9.074E+03	 1.030E+04	-6.413E+04	 3.820E+03	-2.259E+04	 5.730E+00	 9.506E+00	-1.185E+00	 5.022E+06	 5.445E+03	 2.069E+08	-9.428E+06	-1.638E+08	 5.095E+04
    3.0000	 7.999E+00	 0.000E+00	 0.000E+00	 1.898E+01	 1.316E-01	-2.888E-01	 2.844E-01	 3.287E+00	 3.842E-01	-1.185E-01	 9.572E-03	 1.074E-01	 5.730E+00	 9.648E+03	 1.990E+03	 0.000E+00	 5.730E+00	 2.763E+03	-1.309E+02	-2.259E+04	 2.144E+04	 2.261E+05	 3.755E+03	 1.915E+03	-5.818E+01	-9.074E+03	 1.033E+04	-6.402E+04	 3.755E+03	-2.259E+04	 5.730E+00	 9.486E+00	-1.189E+00	 4.804E+06	 5.284E+03	 2.069E+08	-9.406E+06	-1.735E+08	-5.893E+04
    3.1000	 7.999E+00	 0.000E+00	 0.000E+00	 1.889E+01	 1.317E-01	-2.732E-01	 2.844E-01	 3.332E+00	 3.831E-01	-1.489E-01	 9.958E-03	 1.034E-01	 5.730E+00	 9.690E+03	 2.008E+03	 0.000E+00	 5.730E+00	 2.820E+03	-1.309E+02	-2.259E+04	 2.146E+04	 2.326E+05	 3.673E+03	 1.952E+03	-5.794E+01	-9.072E+03	 1.037E+04	-6.386E+04	 3.673E+03	-2.259E+04	 5.730E+00	 9.464E+00	-1.189E+00	 4.568E+06	 5.054E+03	 2.068E+08	-9.386E+06	-1.832E+08	-1.437E+05
    3.2000	 7.999E+00	 0.000E+00	 0.000E+00	 1.881E+01	 1.318E-01	-2.564E-01	 2.843E-01	 3.376E+00	 3.821E-01	-1.814E-01	 1.028E-02	 9.863E-02	 5.730E+00	 9.738E+03	 2.027E+03	 0.000E+00	 5.730E+00	 2.881E+03	-1.308E+02	-2.259E+04	 2.148E+04	 2.396E+05	 3.578E+03	 1.992E+03	-5.774E+01	-9.070E+03	 1.040E+04	-6.365E+04	 3.578E+03	-2.259E+04	 5.730E+00	 9.440E+00	-1.190E+00	 4.357E+06	 4.890E+03	 2.068E+08	-9.369E+06	-1.932E+08	-2.119E+05
    3.3000	 7.999E+00	 0.000E+00	 0.000E+00	 1.873E+01	 1.319E-01	-2.382E-01	 2.842E-01	 3.420E+00	 3.810E-01	-2.165E-01	 1.053E-02	 9.185E-02	 5.730E+00	 9.794E+03	 2.047E+03	 0.000E+00	 5.730E+00	 2.951E+03	-1.308E+02	-2.258E+04	 2.152E+04	 2.472E+05	 3.470E+03	 2.034E+03	-5.758E+01	-9.067E+03	 1.045E+04	-6.339E+04	 3.470E+03	-2.258E+04	 5.730E+00	 9.413E+00	-1.184E+00	 4.142E+06	 4.785E+03	 2.067E+08	-9.355E+06	-2.030E+08	-2.609E+05
    3.4000	 7.999E+00	 0.000E+00	 0.000E+00	 1.864E+01	 1.320E-01	-2.188E-01	 2.841E-01	 3.463E+00	 3.800E-01	-2.541E-01	 1.070E-02	 8.430E-02	 5.730E+00	 9.859E+03	 2.068E+03	 0.000E+00	 5.730E+00	 3.026E+03	-1.307E+02	-2.257E+04	 2.156E+04	 2.553E+05	 3.356E+03	 2.079E+03	-5.745E+01	-9.062E+03	 1.050E+04	-6.308E+04	 3.356E+03	-2.257E+04	 5.730E+00	 9.383E+00	-1.178E+00	 3.958E+06	 4.704E+03	 2.066E+08	-9.345E+06	-2.130E+08	-2.908E+05
    3.5000	 7.999E+00	 0.000E+00	 0.000E+00	 1.856E+01	 1.321E-01	-1.981E-01	 2.839E-01	 3.504E+00	 3.789E-01	-2.937E-01	 1.077E-02	 7.485E-02	 5.730E+00	 9.933E+03	 2.090E+03	 0.000E+00	 5.730E+00	 3.109E+03	-1.306E+02	-2.256E+04	 2.161E+04	 2.640E+05	 3.237E+03	 2.126E+03	-5.735E+01	-9.057E+03	 1.056E+04	-6.271E+04	 3.237E+03	-2.256E+04	 5.730E+00	 9.349E+00	-1.165E+00	 3.772E+06	 4.650E+03	 2.066E+08	-9.340E+06	-2.227E+08	-3.026E+05
    3.6000	 7.999E+00	 0.000E+00	 0.000E+00	 1.848E+01	 1.323E-01	-1.762E-01	 2.837E-01	 3.545E+00	 3.779E-01	-3.353E-01	 1.076E-02	 6.476E-02	 5.730E+00	 1.002E+04	 2.114E+03	 0.000E+00	 5.730E+00	 3.197E+03	-1.304E+02	-2.255E+04	 2.167E+04	 2.731E+05	 3.117E+03	 2.175E+03	-5.728E+01	-9.051E+03	 1.063E+04	-6.230E+04	 3.117E+03	-2.255E+04	 5.730E+00	 9.312E+00	-1.151E+00	 3.614E+06	 4.612E+03	 2.065E+08	-9.339E+06	-2.326E+08	-3.005E+05
    3.7000	 7.999E+00	 0.000E+00	 0.000E+00	 1.839E+01	 1.324E-01	-1.531E-01	 2.834E-01	 3.584E+00	 3.769E-01	-3.772E-01	 1.064E-02	 5.310E-02	 5.730E+00	 1.011E+04	 2.139E+03	 0.000E+00	 5.730E+00	 3.288E+03	-1.303E+02	-2.253E+04	 2.174E+04	 2.825E+05	 2.998E+03	 2.225E+03	-5.723E+01	-9.044E+03	 1.072E+04	-6.185E+04	 2.998E+03	-2.253E+04	 5.730E+00	 9.271E+00	-1.128E+00	 3.450E+06	 4.558E+03	 2.064E+08	-9.344E+06	-2.419E+08	-2.850E+05
    3.8000	 7.999E+00	 0.000E+00	 0.000E+00	 1.831E+01	 1.325E-01	-1.290E-01	 2.831E-01	 3.622E+00	 3.758E-01	-4.200E-01	 1.044E-02	 4.110E-02	 5.730E+00	 1.022E+04	 2.164E+03	 0.000E+00	 5.730E+00	 3.381E+03	-1.300E+02	-2.251E+04	 2.182E+04	 2.921E+05	 2.881E+03	 2.277E+03	-5.719E+01	-9.036E+03	 1.082E+04	-6.137E+04	 2.881E+03	-2.251E+04	 5.730E+00	 9.227E+00	-1.104E+00	 3.306E+06	 4.477E+03	 2.063E+08	-9.354E+06	-2.512E+08	-2.585E+05
    3.9000	 7.999E+00	 0.000E+00	 0.000E+00	 1.823E+01	 1.326E-01	-1.037E-01	 2.828E-01	 3.658E+00	 3.748E-01	-4.609E-01	 1.011E-02	 2.799E-02	 5.730E+00	 1.035E+04	 2.189E+03	 0.000E+00	 5.730E+00	 3.473E+03	-1.298E+02	-2.249E+04	 2.191E+04	 3.015E+05	 2.773E+03	 2.327E+03	-5.717E+01	-9.028E+03	 1.093E+04	-6.086E+04	 2.773E+03	-2.249E+04	 5.730E+00	 9.180E+00	-1.070E+00	 3.146E+06	 4.404E+03	 2.061E+08	-9.370E+06	-2.596E+08	-2.291E+05
    4.0000	 7.999E+00	 0.000E+00	 0.000E+00	 1.815E+01	 1.328E-01	-7.754E-02	 2.824E-01	 3.693E+00	 3.737E-01	-5.011E-01	 9.672E-03	 1.488E-02	 5.730E+00	 1.048E+04	 2.215E+03	 0.000E+00	 5.730E+00	 3.564E+03	-1.294E+02	-2.247E+04	 2.201E+04	 3.109E+05	 2.674E+03	 2.377E+03	-5.718E+01	-9.019E+03	 1.106E+04	-6.033E+04	 2.674E+03	-2.247E+04	 5.730E+00	 9.130E+00	-1.035E+00	 2.993E+06	 4.361E+03	 2.060E+08	-9.392E+06	-2.679E+08	-2.014E+05
    4.1000	 7.999E+00	 0.000E+00	 0.000E+00	 1.806E+01	 1.329E-01	-5.046E-02	 2.820E-01	 3.725E+00	 3.727E-01	-5.374E-01	 9.105E-03	 1.209E-03	 5.730E+00	 1.063E+04	 2.239E+03	 0.000E+00	 5.730E+00	 3.649E+03	-1.290E+02	-2.245E+04	 2.213E+04	 3.197E+05	 2.591E+03	 2.423E+03	-5.719E+01	-9.010E+03	 1.120E+04	-5.980E+04	 2.591E+03	-2.245E+04	 5.730E+00	 9.079E+00	-9.888E-01	 2.815E+06	 4.330E+03	 2.059E+08	-9.419E+06	-2.750E+08	-1.787E+05
    4.2000	 7.999E+00	 0.000E+00	 0.000E+00	 1.798E+01	 1.331E-01	-2.256E-02	 2.816E-01	 3.756E+00	 3.716E-01	-5.713E-01	 8.434E-03	-1.211E-02	 5.730E+00	 1.079E+04	 2.262E+03	 0.000E+00	 5.730E+00	 3.729E+03	-1.285E+02	-2.243E+04	 2.225E+04	 3.280E+05	 2.527E+03	 2.468E+03	-5.721E+01	-9.001E+03	 1.135E+04	-5.927E+04	 2.527E+03	-2.243E+04	 5.730E+00	 9.026E+00	-9.424E-01	 2.635E+06	 4.288E+03	 2.057E+08	-9.453E+06	-2.819E+08	-1.631E+05
    4.3000	 7.999E+00	 0.000E+00	 0.000E+00	 1.790E+01	 1.332E-01	 6.056E-03	 2.811E-01	 3.785E+00	 3.706E-01	-5.995E-01	 7.629E-03	-2.549E-02	 5.730E+00	 1.096E+04	 2.284E+03	 0.000E+00	 5.730E+00	 3.800E+03	-1.279E+02	-2.241E+04	 2.238E+04	 3.355E+05	 2.484E+03	 2.508E+03	-5.725E+01	-8.992E+03	 1.152E+04	-5.874E+04	 2.484E+03	-2.241E+04	 5.730E+00	 8.971E+00	-8.843E-01	 2.423E+06	 4.240E+03	 2.055E+08	-9.492E+06	-2.875E+08	-1.563E+05
    4.4000	 7.999E+00	 0.000E+00	 0.000E+00	 1.781E+01	 1.334E-01	 3.530E-02	 2.806E-01	 3.812E+00	 3.695E-01	-6.246E-01	 6.729E-03	-3.825E-02	 5.730E+00	 1.114E+04	 2.305E+03	 0.000E+00	 5.730E+00	 3.864E+03	-1.273E+02	-2.238E+04	 2.253E+04	 3.423E+05	 2.451E+03	 2.544E+03	-5.730E+01	-8.983E+03	 1.170E+04	-5.823E+04	 2.451E+03	-2.238E+04	 5.729E+00	 8.913E+00	-8.261E-01	 2.202E+06	 4.193E+03	 2.054E+08	-9.536E+06	-2.928E+08	-1.572E+05
    4.5000	 7.999E+00	 0.000E+00	 0.000E+00	 1.773E+01	 1.335E-01	 6.507E-02	 2.800E-01	 3.836E+00	 3.684E-01	-6.428E-01	 5.712E-03	-5.068E-02	 5.730E+00	 1.134E+04	 2.323E+03	 0.000E+00	 5.730E+00	 3.917E+03	-1.266E+02	-2.236E+04	 2.267E+04	 3.480E+05	 2.410E+03	 2.575E+03	-5.734E+01	-8.974E+03	 1.189E+04	-5.774E+04	 2.410E+03	-2.236E+04	 5.729E+00	 8.856E+00	-7.570E-01	 1.949E+06	 4.145E+03	 2.052E+08	-9.586E+06	-2.965E+08	-1.560E+05
    4.6000	 7.999E+00	 0.000E+00	 0.000E+00	 1.764E+01	 1.337E-01	 9.527E-02	 2.795E-01	 3.859E+00	 3.673E-01	-6.577E-01	 4.591E-03	-6.242E-02	 5.730E+00	 1.154E+04	 2.340E+03	 0.000E+00	 5.730E+00	 3.962E+03	-1.259E+02	-2.234E+04	 2.283E+04	 3.531E+05	 2.373E+03	 2.603E+03	-5.743E+01	-8.965E+03	 1.209E+04	-5.726E+04	 2.373E+03	-2.234E+04	 5.729E+00	 8.801E+00	-6.879E-01	 1.686E+06	 4.106E+03	 2.050E+08	-9.640E+06	-3.000E+08	-1.594E+05
    4.7000	 7.999E+00	 0.000E+00	 0.000E+00	 1.756E+01	 1.338E-01	 1.258E-01	 2.789E-01	 3.879E+00	 3.662E-01	-6.658E-01	 3.330E-03	-7.367E-02	 5.730E+00	 1.175E+04	 2.355E+03	 0.000E+00	 5.730E+00	 3.995E+03	-1.251E+02	-2.231E+04	 2.300E+04	 3.570E+05	 2.343E+03	 2.624E+03	-5.759E+01	-8.956E+03	 1.229E+04	-5.678E+04	 2.343E+03	-2.231E+04	 5.729E+00	 8.748E+00	-6.096E-01	 1.398E+06	 4.095E+03	 2.047E+08	-9.702E+06	-3.019E+08	-1.668E+05
    4.8000	 7.999E+00	 0.000E+00	 0.000E+00	 1.747E+01	 1.340E-01	 1.566E-01	 2.784E-01	 3.896E+00	 3.651E-01	-6.716E-01	 1.947E-03	-8.437E-02	 5.730E+00	 1.195E+04	 2.367E+03	 0.000E+00	 5.730E+00	 4.022E+03	-1.244E+02	-2.229E+04	 2.317E+04	 3.603E+05	 2.317E+03	 2.642E+03	-5.791E+01	-8.947E+03	 1.250E+04	-5.628E+04	 2.317E+03	-2.229E+04	 5.729E+00	 8.701E+00	-5.313E-01	 1.106E+06	 4.134E+03	 2.045E+08	-9.770E+06	-3.037E+08	-1.780E+05
    4.9000	 7.999E+00	 0.000E+00	 0.000E+00	 1.738E+01	 1.341E-01	 1.875E-01	 2.778E-01	 3.912E+00	 3.639E-01	-6.712E-01	 3.875E-04	-9.458E-02	 5.730E+00	 1.214E+04	 2.376E+03	 0.000E+00	 5.730E+00	 4.038E+03	-1.238E+02	-2.227E+04	 2.336E+04	 3.625E+05	 2.310E+03	 2.653E+03	-5.844E+01	-8.938E+03	 1.269E+04	-5.575E+04	 2.310E+03	-2.227E+04	 5.729E+00	 8.658E+00	-4.463E-01	 7.995E+05	 4.244E+03	 2.043E+08	-9.847E+06	-3.039E+08	-1.951E+05
    5.0000	 7.999E+00	 0.000E+00	 0.000E+00	 1.730E+01	 1.343E-01	 2.184E-01	 2.772E-01	 3.925E+00	 3.628E-01	-6.699E-01	-1.320E-03	-1.045E-01	 5.730E+00	 1.231E+04	 2.383E+03	 0.000E+00	 5.730E+00	 4.049E+03	-1.233E+02	-2.225E+04	 2.356E+04	 3.644E+05	 2.330E+03	 2.662E+03	-5.921E+01	-8.929E+03	 1.287E+04	-5.515E+04	 2.330E+03	-2.225E+04	 5.729E+00	 8.617E+00	-3.613E-01	 4.961E+05	 4.434E+03	 2.040E+08	-9.934E+06	-3.040E+08	-2.229E+05
    5.1000	 7.999E+00	 0.000E+00	 0.000E+00	 1.721E+01	 1.344E-01	 2.492E-01	 2.766E-01	 3.936E+00	 3.617E-01	-6.633E-01	-3.192E-03	-1.140E-01	 5.730E+00	 1.248E+04	 2.387E+03	 0.000E+00	 5.730E+00	 4.051E+03	-1.229E+02	-2.222E+04	 2.377E+04	 3.652E+05	 2.398E+03	 2.664E+03	-6.016E+01	-8.920E+03	 1.305E+04	-5.451E+04	 2.398E+03	-2.222E+04	 5.729E+00	 8.574E+00	-2.725E-01	 1.929E+05	 4.693E+03	 2.038E+08	-1.003E+07	-3.025E+08	-2.675E+05
    5.2000	 7.999E+00	 0.000E+00	 0.000E+00	 1.712E+01	 1.346E-01	 2.799E-01	 2.761E-01	 3.944E+00	 3.605E-01	-6.567E-01	-5.133E-03	-1.235E-01	 5.730E+00	 1.264E+04	 2.391E+03	 0.000E+00	 5.730E+00	 4.052E+03	-1.225E+02	-2.220E+04	 2.400E+04	 3.660E+05	 2.521E+03	 2.666E+03	-6.115E+01	-8.911E+03	 1.323E+04	-5.388E+04	 2.521E+03	-2.220E+04	 5.729E+00	 8.521E+00	-1.838E-01	-1.007E+05	 4.967E+03	 2.036E+08	-1.013E+07	-3.011E+08	-3.336E+05
    5.3000	 7.999E+00	 0.000E+00	 0.000E+00	 1.703E+01	 1.347E-01	 3.102E-01	 2.755E-01	 3.951E+00	 3.594E-01	-6.451E-01	-7.038E-03	-1.324E-01	 5.730E+00	 1.284E+04	 2.393E+03	 0.000E+00	 5.730E+00	 4.047E+03	-1.219E+02	-2.218E+04	 2.421E+04	 3.659E+05	 2.686E+03	 2.664E+03	-6.184E+01	-8.904E+03	 1.345E+04	-5.343E+04	 2.686E+03	-2.218E+04	 5.729E+00	 8.452E+00	-9.474E-02	-3.816E+05	 5.166E+03	 2.033E+08	-1.023E+07	-2.982E+08	-4.140E+05
    5.4000	 7.999E+00	 0.000E+00	 0.000E+00	 1.693E+01	 1.349E-01	 3.402E-01	 2.750E-01	 3.955E+00	 3.583E-01	-6.336E-01	-8.723E-03	-1.414E-01	 5.730E+00	 1.307E+04	 2.399E+03	 0.000E+00	 5.730E+00	 4.044E+03	-1.209E+02	-2.216E+04	 2.441E+04	 3.659E+05	 2.842E+03	 2.665E+03	-6.201E+01	-8.896E+03	 1.370E+04	-5.320E+04	 2.842E+03	-2.216E+04	 5.729E+00	 8.371E+00	-5.716E-03	-6.491E+05	 5.211E+03	 2.031E+08	-1.033E+07	-2.953E+08	-4.876E+05
    5.5000	 7.999E+00	 0.000E+00	 0.000E+00	 1.684E+01	 1.350E-01	 3.697E-01	 2.745E-01	 3.957E+00	 3.571E-01	-6.171E-01	-1.014E-02	-1.497E-01	 5.730E+00	 1.336E+04	 2.406E+03	 0.000E+00	 5.730E+00	 4.036E+03	-1.194E+02	-2.213E+04	 2.459E+04	 3.652E+05	 2.941E+03	 2.664E+03	-6.155E+01	-8.890E+03	 1.400E+04	-5.319E+04	 2.941E+03	-2.213E+04	 5.730E+00	 8.284E+00	 7.999E-02	-8.937E+05	 5.089E+03	 2.029E+08	-1.040E+07	-2.912E+08	-5.309E+05
    5.6000	 7.999E+00	 0.000E+00	 0.000E+00	 1.675E+01	 1.351E-01	 3.986E-01	 2.740E-01	 3.957E+00	 3.560E-01	-6.014E-01	-1.125E-02	-1.582E-01	 5.730E+00	 1.368E+04	 2.414E+03	 0.000E+00	 5.730E+00	 4.031E+03	-1.177E+02	-2.211E+04	 2.473E+04	 3.647E+05	 2.972E+03	 2.665E+03	-6.063E+01	-8.884E+03	 1.432E+04	-5.330E+04	 2.972E+03	-2.211E+04	 5.730E+00	 8.200E+00	 1.657E-01	-1.124E+06	 4.842E+03	 2.027E+08	-1.046E+07	-2.871E+08	-5.409E+05
    5.7000	 7.999E+00	 0.000E+00	 0.000E+00	 1.666E+01	 1.352E-01	 4.268E-01	 2.736E-01	 3.954E+00	 3.549E-01	-5.812E-01	-1.219E-02	-1.658E-01	 5.730E+00	 1.401E+04	 2.421E+03	 0.000E+00	 5.730E+00	 4.020E+03	-1.158E+02	-2.209E+04	 2.486E+04	 3.634E+05	 2.945E+03	 2.662E+03	-5.941E+01	-8.878E+03	 1.465E+04	-5.347E+04	 2.945E+03	-2.209E+04	 5.730E+00	 8.122E+00	 2.446E-01	-1.323E+06	 4.536E+03	 2.025E+08	-1.051E+07	-2.816E+08	-5.206E+05
    5.8000	 7.999E+00	 0.000E+00	 0.000E+00	 1.656E+01	 1.353E-01	 4.541E-01	 2.732E-01	 3.950E+00	 3.538E-01	-5.622E-01	-1.297E-02	-1.735E-01	 5.730E+00	 1.434E+04	 2.428E+03	 0.000E+00	 5.730E+00	 4.010E+03	-1.140E+02	-2.207E+04	 2.497E+04	 3.623E+05	 2.870E+03	 2.660E+03	-5.810E+01	-8.872E+03	 1.496E+04	-5.362E+04	 2.870E+03	-2.207E+04	 5.730E+00	 8.051E+00	 3.235E-01	-1.511E+06	 4.219E+03	 2.023E+08	-1.056E+07	-2.763E+08	-4.767E+05
    5.9000	 7.999E+00	 0.000E+00	 0.000E+00	 1.646E+01	 1.354E-01	 4.806E-01	 2.729E-01	 3.944E+00	 3.527E-01	-5.387E-01	-1.370E-02	-1.802E-01	 5.730E+00	 1.465E+04	 2.432E+03	 0.000E+00	 5.730E+00	 3.991E+03	-1.122E+02	-2.205E+04	 2.506E+04	 3.603E+05	 2.775E+03	 2.652E+03	-5.677E+01	-8.866E+03	 1.526E+04	-5.377E+04	 2.775E+03	-2.205E+04	 5.730E+00	 7.986E+00	 3.924E-01	-1.663E+06	 3.917E+03	 2.021E+08	-1.060E+07	-2.697E+08	-4.200E+05
    6.0000	 7.999E+00	 0.000E+00	 0.000E+00	 1.637E+01	 1.355E-01	 5.060E-01	 2.726E-01	 3.936E+00	 3.516E-01	-5.161E-01	-1.437E-02	-1.869E-01	 5.730E+00	 1.495E+04	 2.435E+03	 0.000E+00	 5.730E+00	 3.972E+03	-1.104E+02	-2.203E+04	 2.515E+04	 3.582E+05	 2.661E+03	 2.644E+03	-5.551E+01	-8.860E+03	 1.555E+04	-5.388E+04	 2.661E+03	-2.203E+04	 5.730E+00	 7.927E+00	 4.613E-01	-1.807E+06	 3.645E+03	 2.019E+08	-1.064E+07	-2.630E+08	-3.537E+05
