
Predictions were generated on 22-Dec-2025 at 21:57:44 using OpenFAST, compiled on Dec 22 2025 at 21:41:16 as a 64-bit application using double precision at commit -128-NOTFOUND
 linked with  NWTC Subroutine Library; ElastoDyn; InflowWind; AeroDyn; SeaState; HydroDyn

Description from the FAST input file: IEA 15 MW offshore reference model on UMaine VolturnUS-S semi-submersible floating platform

Time	ConvIter	ConvError	NumUJac	Wind1VelX	Wind1VelY	Wind1VelZ	PtfmSurge	PtfmSway	PtfmHeave	PtfmRoll	PtfmPitch	PtfmYaw	NcIMUTAxs	NcIMUTAys	NcIMUTAzs	RotSpeed	RotTorq	RotThrust	BldPitch1	GenSpeed	TwrBsFxt	TwrBsFyt	TwrBsFzt	TwrBsMxt	TwrBsMyt	TwrBsMzt	YawBrFxp	YawBrFyp	YawBrFzp	YawBrMxp	YawBrMyp	YawBrMzp	TwrBsFzt	RtSpeed	RtTSR	Wave1Elev	HydroFxi	HydroFyi	HydroFzi	HydroMxi	HydroMyi	HydroMzi
(s)	(-)	(-)	(-)	(m/s)	(m/s)	(m/s)	(m)	(m)	(m)	(deg)	(deg)	(deg)	(m/s^2)	(m/s^2)	(m/s^2)	(rpm)	(kN-m)	(kN)	(deg)	(rpm)	(kN)	(kN)	(kN)	(kN-m)	(kN-m)	(kN-m)	(kN)	(kN)	(kN)	(kN-m)	(kN-m)	(kN-m)	(kN)	(rpm)	(-)	(m)	(N)	(N)	(N)	(N-m)	(N-m)	(N-m)
    0.0000	 1.000E+00	 7.331E-12	 1.000E+00	 7.999E+00	 0.000E+00	 0.000E+00	 2.030E+01	-1.800E-01	-7.000E-01	-2.600E-01	-2.400E+00	 1.800E+02	-6.789E-01	-1.239E-03	 2.296E-01	 5.730E+00	 1.096E+04	 2.217E+03	 0.000E+00	 5.730E+00	-3.297E+03	 1.138E+02	-2.302E+04	-2.100E+04	-2.992E+05	 4.337E+02	-2.336E+03	 5.300E+01	-9.227E+03	-1.128E+04	 5.850E+04	 4.337E+02	-2.302E+04	 5.730E+00	 9.078E+00	-2.875E+00	-1.098E+06	 3.520E+03	 2.088E+08	-1.007E+07	-3.047E+08	-4.225E+05
    0.1000	 3.000E+00	 1.208E-08	 0.000E+00	 7.999E+00	 0.000E+00	 0.000E+00	 2.030E+01	-1.800E-01	-6.987E-01	-2.600E-01	-2.399E+00	 1.800E+02	-7.819E-01	 3.223E-03	 1.120E-01	 5.730E+00	 1.100E+04	 2.260E+03	 0.000E+00	 5.730E+00	-3.474E+03	 1.211E+02	-2.278E+04	-2.184E+04	-3.194E+05	 3.675E+02	-2.443E+03	 5.755E+01	-9.129E+03	-1.134E+04	 5.690E+04	 3.675E+02	-2.278E+04	 5.730E+00	 9.022E+00	-2.659E+00	 5.807E+04	-6.095E+02	 2.107E+08	-9.812E+06	-3.169E+08	-6.463E+05
    0.2000	 3.000E+00	 1.466E-08	 0.000E+00	 7.999E+00	 0.000E+00	 0.000E+00	 2.030E+01	-1.800E-01	-6.953E-01	-2.600E-01	-2.395E+00	 1.800E+02	-7.754E-01	 2.283E-03	 9.677E-02	 5.730E+00	 1.114E+04	 2.265E+03	 0.000E+00	 5.730E+00	-3.445E+03	 1.207E+02	-2.275E+04	-2.196E+04	-3.192E+05	 2.980E+02	-2.446E+03	 5.776E+01	-9.115E+03	-1.147E+04	 5.646E+04	 2.980E+02	-2.275E+04	 5.730E+00	 8.936E+00	-2.442E+00	 8.050E+05	-5.338E+02	 2.103E+08	-9.869E+06	-3.300E+08	-6.289E+05
    0.3000	 3.000E+00	 2.170E-08	 0.000E+00	 7.999E+00	 0.000E+00	 0.000E+00	 2.030E+01	-1.800E-01	-6.898E-01	-2.600E-01	-2.388E+00	 1.800E+02	-7.566E-01	 1.067E-03	 8.101E-02	 5.730E+00	 1.135E+04	 2.268E+03	 0.000E+00	 5.730E+00	-3.397E+03	 1.200E+02	-2.271E+04	-2.212E+04	-3.172E+05	 2.020E+02	-2.440E+03	 5.792E+01	-9.100E+03	-1.167E+04	 5.601E+04	 2.020E+02	-2.271E+04	 5.730E+00	 8.854E+00	-2.195E+00	 1.587E+06	-4.771E+02	 2.099E+08	-9.943E+06	-3.408E+08	-5.981E+05
    0.4000	 3.000E+00	 3.421E-08	 0.000E+00	 7.999E+00	 0.000E+00	 0.000E+00	 2.030E+01	-1.800E-01	-6.825E-01	-2.600E-01	-2.378E+00	 1.800E+02	-7.369E-01	-3.033E-04	 6.502E-02	 5.730E+00	 1.158E+04	 2.271E+03	 0.000E+00	 5.730E+00	-3.347E+03	 1.192E+02	-2.267E+04	-2.231E+04	-3.151E+05	 1.034E+02	-2.433E+03	 5.808E+01	-9.084E+03	-1.190E+04	 5.554E+04	 1.034E+02	-2.267E+04	 5.730E+00	 8.776E+00	-1.947E+00	 2.367E+06	-4.246E+02	 2.096E+08	-1.003E+07	-3.514E+08	-5.673E+05
    0.5000	 3.000E+00	 5.179E-08	 0.000E+00	 7.999E+00	 0.000E+00	 0.000E+00	 2.030E+01	-1.800E-01	-6.735E-01	-2.600E-01	-2.365E+00	 1.800E+02	-7.065E-01	-1.779E-03	 4.868E-02	 5.730E+00	 1.183E+04	 2.270E+03	 0.000E+00	 5.730E+00	-3.281E+03	 1.184E+02	-2.263E+04	-2.251E+04	-3.112E+05	 1.161E+01	-2.417E+03	 5.825E+01	-9.067E+03	-1.214E+04	 5.510E+04	 1.161E+01	-2.263E+04	 5.730E+00	 8.704E+00	-1.673E+00	 3.159E+06	-3.670E+02	 2.091E+08	-1.012E+07	-3.594E+08	-5.381E+05
    0.6000	 3.000E+00	 7.466E-08	 0.000E+00	 7.999E+00	 0.000E+00	 0.000E+00	 2.031E+01	-1.800E-01	-6.630E-01	-2.600E-01	-2.349E+00	 1.800E+02	-6.758E-01	-3.322E-03	 3.208E-02	 5.730E+00	 1.208E+04	 2.268E+03	 0.000E+00	 5.730E+00	-3.212E+03	 1.176E+02	-2.258E+04	-2.272E+04	-3.072E+05	-6.341E+01	-2.400E+03	 5.847E+01	-9.050E+03	-1.239E+04	 5.466E+04	-6.341E+01	-2.258E+04	 5.730E+00	 8.638E+00	-1.400E+00	 3.947E+06	-2.983E+02	 2.087E+08	-1.021E+07	-3.672E+08	-5.175E+05
    0.7000	 3.000E+00	 1.021E-07	 0.000E+00	 7.999E+00	 0.000E+00	 0.000E+00	 2.031E+01	-1.800E-01	-6.514E-01	-2.600E-01	-2.330E+00	 1.800E+02	-6.356E-01	-4.915E-03	 1.535E-02	 5.730E+00	 1.234E+04	 2.262E+03	 0.000E+00	 5.730E+00	-3.129E+03	 1.168E+02	-2.254E+04	-2.293E+04	-3.015E+05	-1.125E+02	-2.374E+03	 5.874E+01	-9.033E+03	-1.264E+04	 5.425E+04	-1.125E+02	-2.254E+04	 5.730E+00	 8.579E+00	-1.106E+00	 4.723E+06	-2.130E+02	 2.083E+08	-1.031E+07	-3.721E+08	-5.066E+05
    0.8000	 3.000E+00	 1.347E-07	 0.000E+00	 7.999E+00	 0.000E+00	 0.000E+00	 2.032E+01	-1.800E-01	-6.386E-01	-2.600E-01	-2.307E+00	 1.800E+02	-5.955E-01	-6.527E-03	-1.622E-03	 5.730E+00	 1.258E+04	 2.255E+03	 0.000E+00	 5.730E+00	-3.044E+03	 1.161E+02	-2.249E+04	-2.315E+04	-2.957E+05	-1.407E+02	-2.347E+03	 5.907E+01	-9.015E+03	-1.288E+04	 5.385E+04	-1.407E+02	-2.249E+04	 5.730E+00	 8.525E+00	-8.117E-01	 5.493E+06	-1.091E+02	 2.078E+08	-1.041E+07	-3.769E+08	-5.059E+05
    0.9000	 3.000E+00	 1.711E-07	 0.000E+00	 7.999E+00	 0.000E+00	 0.000E+00	 2.033E+01	-1.800E-01	-6.251E-01	-2.601E-01	-2.281E+00	 1.800E+02	-5.470E-01	-8.143E-03	-1.845E-02	 5.730E+00	 1.282E+04	 2.244E+03	 0.000E+00	 5.730E+00	-2.947E+03	 1.154E+02	-2.245E+04	-2.336E+04	-2.883E+05	-1.491E+02	-2.311E+03	 5.945E+01	-8.996E+03	-1.312E+04	 5.350E+04	-1.491E+02	-2.245E+04	 5.730E+00	 8.476E+00	-5.054E-01	 6.227E+06	 1.703E+01	 2.074E+08	-1.051E+07	-3.785E+08	-5.116E+05
    1.0000	 3.000E+00	 2.124E-07	 0.000E+00	 7.999E+00	 0.000E+00	 0.000E+00	 2.034E+01	-1.800E-01	-6.110E-01	-2.602E-01	-2.252E+00	 1.800E+02	-4.987E-01	-9.740E-03	-3.546E-02	 5.730E+00	 1.305E+04	 2.233E+03	 0.000E+00	 5.730E+00	-2.848E+03	 1.148E+02	-2.240E+04	-2.358E+04	-2.808E+05	-1.621E+02	-2.274E+03	 5.988E+01	-8.978E+03	-1.335E+04	 5.315E+04	-1.621E+02	-2.240E+04	 5.730E+00	 8.433E+00	-1.990E-01	 6.953E+06	 1.641E+02	 2.069E+08	-1.062E+07	-3.800E+08	-5.156E+05
    1.1000	 3.000E+00	 2.563E-07	 0.000E+00	 7.999E+00	 0.000E+00	 0.000E+00	 2.036E+01	-1.801E-01	-5.965E-01	-2.603E-01	-2.219E+00	 1.800E+02	-4.434E-01	-1.133E-02	-5.204E-02	 5.730E+00	 1.326E+04	 2.217E+03	 0.000E+00	 5.730E+00	-2.739E+03	 1.142E+02	-2.235E+04	-2.379E+04	-2.720E+05	-1.654E+02	-2.229E+03	 6.039E+01	-8.959E+03	-1.357E+04	 5.285E+04	-1.654E+02	-2.235E+04	 5.730E+00	 8.399E+00	 1.112E-01	 7.620E+06	 3.445E+02	 2.064E+08	-1.072E+07	-3.783E+08	-5.208E+05
    1.2000	 3.000E+00	 3.045E-07	 0.000E+00	 7.999E+00	 0.000E+00	 0.000E+00	 2.038E+01	-1.801E-01	-5.819E-01	-2.605E-01	-2.184E+00	 1.800E+02	-3.886E-01	-1.292E-02	-6.877E-02	 5.730E+00	 1.345E+04	 2.201E+03	 0.000E+00	 5.730E+00	-2.628E+03	 1.138E+02	-2.230E+04	-2.400E+04	-2.631E+05	-1.556E+02	-2.183E+03	 6.104E+01	-8.940E+03	-1.376E+04	 5.255E+04	-1.556E+02	-2.230E+04	 5.730E+00	 8.373E+00	 4.213E-01	 8.279E+06	 5.722E+02	 2.059E+08	-1.082E+07	-3.764E+08	-5.320E+05
    1.3000	 3.000E+00	 3.537E-07	 0.000E+00	 7.999E+00	 0.000E+00	 0.000E+00	 2.040E+01	-1.801E-01	-5.674E-01	-2.607E-01	-2.145E+00	 1.800E+02	-3.282E-01	-1.450E-02	-8.478E-02	 5.730E+00	 1.361E+04	 2.180E+03	 0.000E+00	 5.730E+00	-2.510E+03	 1.136E+02	-2.225E+04	-2.421E+04	-2.530E+05	-1.309E+02	-2.130E+03	 6.187E+01	-8.921E+03	-1.393E+04	 5.226E+04	-1.309E+02	-2.225E+04	 5.730E+00	 8.357E+00	 7.261E-01	 8.859E+06	 8.640E+02	 2.055E+08	-1.092E+07	-3.714E+08	-5.465E+05
    1.4000	 3.000E+00	 4.064E-07	 0.000E+00	 7.999E+00	 0.000E+00	 0.000E+00	 2.043E+01	-1.802E-01	-5.533E-01	-2.610E-01	-2.104E+00	 1.800E+02	-2.686E-01	-1.609E-02	-1.009E-01	 5.730E+00	 1.374E+04	 2.157E+03	 0.000E+00	 5.730E+00	-2.390E+03	 1.137E+02	-2.220E+04	-2.442E+04	-2.427E+05	-8.893E+01	-2.076E+03	 6.292E+01	-8.901E+03	-1.407E+04	 5.193E+04	-8.893E+01	-2.220E+04	 5.730E+00	 8.350E+00	 1.031E+00	 9.430E+06	 1.230E+03	 2.050E+08	-1.103E+07	-3.661E+08	-5.687E+05
    1.5000	 3.000E+00	 4.583E-07	 0.000E+00	 7.999E+00	 0.000E+00	 0.000E+00	 2.046E+01	-1.802E-01	-5.397E-01	-2.613E-01	-2.060E+00	 1.800E+02	-2.048E-01	-1.769E-02	-1.160E-01	 5.730E+00	 1.383E+04	 2.130E+03	 0.000E+00	 5.730E+00	-2.264E+03	 1.139E+02	-2.215E+04	-2.462E+04	-2.315E+05	-1.245E+01	-2.014E+03	 6.421E+01	-8.882E+03	-1.418E+04	 5.159E+04	-1.245E+01	-2.215E+04	 5.730E+00	 8.351E+00	 1.321E+00	 9.905E+06	 1.679E+03	 2.045E+08	-1.114E+07	-3.577E+08	-6.030E+05
    1.6000	 3.000E+00	 5.129E-07	 0.000E+00	 7.999E+00	 0.000E+00	 0.000E+00	 2.050E+01	-1.803E-01	-5.268E-01	-2.617E-01	-2.013E+00	 1.800E+02	-1.420E-01	-1.928E-02	-1.312E-01	 5.730E+00	 1.389E+04	 2.102E+03	 0.000E+00	 5.730E+00	-2.137E+03	 1.144E+02	-2.210E+04	-2.483E+04	-2.202E+05	 1.131E+02	-1.951E+03	 6.572E+01	-8.863E+03	-1.425E+04	 5.120E+04	 1.131E+02	-2.210E+04	 5.731E+00	 8.355E+00	 1.611E+00	 1.037E+07	 2.200E+03	 2.041E+08	-1.124E+07	-3.491E+08	-6.596E+05
    1.7000	 3.000E+00	 5.646E-07	 0.000E+00	 7.999E+00	 0.000E+00	 0.000E+00	 2.054E+01	-1.804E-01	-5.150E-01	-2.621E-01	-1.963E+00	 1.800E+02	-7.599E-02	-2.080E-02	-1.450E-01	 5.730E+00	 1.392E+04	 2.071E+03	 0.000E+00	 5.730E+00	-2.007E+03	 1.150E+02	-2.206E+04	-2.502E+04	-2.081E+05	 2.981E+02	-1.884E+03	 6.728E+01	-8.846E+03	-1.431E+04	 5.088E+04	 2.981E+02	-2.206E+04	 5.731E+00	 8.356E+00	 1.878E+00	 1.073E+07	 2.744E+03	 2.036E+08	-1.135E+07	-3.375E+08	-7.403E+05
    1.8000	 3.000E+00	 6.174E-07	 0.000E+00	 7.999E+00	 0.000E+00	 0.000E+00	 2.059E+01	-1.805E-01	-5.044E-01	-2.626E-01	-1.912E+00	 1.800E+02	-1.024E-02	-2.215E-02	-1.587E-01	 5.730E+00	 1.395E+04	 2.040E+03	 0.000E+00	 5.730E+00	-1.877E+03	 1.156E+02	-2.201E+04	-2.520E+04	-1.960E+05	 5.224E+02	-1.817E+03	 6.865E+01	-8.828E+03	-1.437E+04	 5.070E+04	 5.224E+02	-2.201E+04	 5.731E+00	 8.347E+00	 2.144E+00	 1.108E+07	 3.235E+03	 2.032E+08	-1.145E+07	-3.258E+08	-8.395E+05
    1.9000	 3.000E+00	 6.653E-07	 0.000E+00	 7.999E+00	 0.000E+00	 0.000E+00	 2.064E+01	-1.806E-01	-4.953E-01	-2.632E-01	-1.858E+00	 1.800E+02	 5.802E-02	-2.319E-02	-1.707E-01	 5.730E+00	 1.399E+04	 2.009E+03	 0.000E+00	 5.730E+00	-1.748E+03	 1.160E+02	-2.197E+04	-2.536E+04	-1.834E+05	 7.523E+02	-1.748E+03	 6.960E+01	-8.813E+03	-1.444E+04	 5.079E+04	 7.523E+02	-2.197E+04	 5.731E+00	 8.330E+00	 2.380E+00	 1.131E+07	 3.605E+03	 2.028E+08	-1.153E+07	-3.113E+08	-9.395E+05
    2.0000	 3.000E+00	 7.130E-07	 0.000E+00	 7.999E+00	 0.000E+00	 0.000E+00	 2.070E+01	-1.807E-01	-4.877E-01	-2.639E-01	-1.802E+00	 1.800E+02	 1.263E-01	-2.384E-02	-1.824E-01	 5.730E+00	 1.404E+04	 1.980E+03	 0.000E+00	 5.730E+00	-1.620E+03	 1.161E+02	-2.192E+04	-2.547E+04	-1.707E+05	 9.417E+02	-1.681E+03	 7.008E+01	-8.799E+03	-1.451E+04	 5.109E+04	 9.417E+02	-2.192E+04	 5.731E+00	 8.312E+00	 2.615E+00	 1.154E+07	 3.840E+03	 2.024E+08	-1.160E+07	-2.967E+08	-1.022E+06
    2.1000	 3.000E+00	 7.542E-07	 0.000E+00	 7.999E+00	 0.000E+00	 0.000E+00	 2.076E+01	-1.809E-01	-4.820E-01	-2.647E-01	-1.744E+00	 1.800E+02	 1.958E-01	-2.411E-02	-1.922E-01	 5.730E+00	 1.409E+04	 1.951E+03	 0.000E+00	 5.730E+00	-1.495E+03	 1.162E+02	-2.189E+04	-2.554E+04	-1.578E+05	 1.073E+03	-1.613E+03	 7.019E+01	-8.786E+03	-1.458E+04	 5.156E+04	 1.073E+03	-2.189E+04	 5.731E+00	 8.299E+00	 2.812E+00	 1.164E+07	 3.977E+03	 2.020E+08	-1.164E+07	-2.796E+08	-1.077E+06
    2.2000	 3.000E+00	 7.947E-07	 0.000E+00	 7.999E+00	 0.000E+00	 0.000E+00	 2.083E+01	-1.810E-01	-4.783E-01	-2.655E-01	-1.685E+00	 1.800E+02	 2.649E-01	-2.407E-02	-2.018E-01	 5.730E+00	 1.413E+04	 1.922E+03	 0.000E+00	 5.730E+00	-1.369E+03	 1.162E+02	-2.185E+04	-2.559E+04	-1.448E+05	 1.154E+03	-1.544E+03	 7.010E+01	-8.773E+03	-1.462E+04	 5.209E+04	 1.154E+03	-2.185E+04	 5.731E+00	 8.296E+00	 3.009E+00	 1.174E+07	 4.063E+03	 2.017E+08	-1.167E+07	-2.624E+08	-1.109E+06
    2.3000	 3.000E+00	 8.285E-07	 0.000E+00	 7.999E+00	 0.000E+00	 0.000E+00	 2.091E+01	-1.812E-01	-4.767E-01	-2.664E-01	-1.625E+00	 1.800E+02	 3.336E-01	-2.378E-02	-2.091E-01	 5.730E+00	 1.413E+04	 1.891E+03	 0.000E+00	 5.730E+00	-1.247E+03	 1.164E+02	-2.182E+04	-2.560E+04	-1.317E+05	 1.197E+03	-1.474E+03	 6.995E+01	-8.763E+03	-1.464E+04	 5.264E+04	 1.197E+03	-2.182E+04	 5.731E+00	 8.303E+00	 3.163E+00	 1.171E+07	 4.141E+03	 2.014E+08	-1.169E+07	-2.431E+08	-1.122E+06
    2.4000	 3.000E+00	 8.611E-07	 0.000E+00	 7.999E+00	 0.000E+00	 0.000E+00	 2.099E+01	-1.814E-01	-4.775E-01	-2.674E-01	-1.563E+00	 1.800E+02	 4.017E-01	-2.331E-02	-2.162E-01	 5.730E+00	 1.411E+04	 1.859E+03	 0.000E+00	 5.730E+00	-1.123E+03	 1.168E+02	-2.179E+04	-2.559E+04	-1.185E+05	 1.215E+03	-1.403E+03	 6.983E+01	-8.752E+03	-1.461E+04	 5.319E+04	 1.215E+03	-2.179E+04	 5.732E+00	 8.321E+00	 3.317E+00	 1.169E+07	 4.237E+03	 2.011E+08	-1.170E+07	-2.237E+08	-1.124E+06
    2.5000	 3.000E+00	 8.877E-07	 0.000E+00	 7.999E+00	 0.000E+00	 0.000E+00	 2.107E+01	-1.816E-01	-4.808E-01	-2.685E-01	-1.501E+00	 1.800E+02	 4.679E-01	-2.266E-02	-2.209E-01	 5.730E+00	 1.405E+04	 1.827E+03	 0.000E+00	 5.730E+00	-1.005E+03	 1.173E+02	-2.176E+04	-2.556E+04	-1.055E+05	 1.222E+03	-1.332E+03	 6.979E+01	-8.743E+03	-1.455E+04	 5.375E+04	 1.222E+03	-2.176E+04	 5.732E+00	 8.348E+00	 3.425E+00	 1.154E+07	 4.356E+03	 2.008E+08	-1.170E+07	-2.025E+08	-1.118E+06
    2.6000	 3.000E+00	 9.136E-07	 0.000E+00	 7.999E+00	 0.000E+00	 0.000E+00	 2.117E+01	-1.819E-01	-4.867E-01	-2.696E-01	-1.439E+00	 1.800E+02	 5.334E-01	-2.187E-02	-2.252E-01	 5.730E+00	 1.396E+04	 1.792E+03	 0.000E+00	 5.730E+00	-8.859E+02	 1.181E+02	-2.173E+04	-2.552E+04	-9.233E+04	 1.221E+03	-1.260E+03	 6.984E+01	-8.734E+03	-1.446E+04	 5.430E+04	 1.221E+03	-2.173E+04	 5.732E+00	 8.385E+00	 3.533E+00	 1.140E+07	 4.487E+03	 2.005E+08	-1.169E+07	-1.812E+08	-1.109E+06
    2.7000	 3.000E+00	 9.349E-07	 0.000E+00	 7.999E+00	 0.000E+00	 0.000E+00	 2.126E+01	-1.821E-01	-4.953E-01	-2.708E-01	-1.376E+00	 1.800E+02	 5.958E-01	-2.090E-02	-2.268E-01	 5.730E+00	 1.382E+04	 1.758E+03	 0.000E+00	 5.730E+00	-7.736E+02	 1.190E+02	-2.171E+04	-2.545E+04	-7.951E+04	 1.219E+03	-1.188E+03	 6.995E+01	-8.728E+03	-1.432E+04	 5.487E+04	 1.219E+03	-2.171E+04	 5.732E+00	 8.429E+00	 3.594E+00	 1.115E+07	 4.614E+03	 2.003E+08	-1.167E+07	-1.586E+08	-1.097E+06
    2.8000	 3.000E+00	 9.555E-07	 0.000E+00	 7.999E+00	 0.000E+00	 0.000E+00	 2.136E+01	-1.824E-01	-5.067E-01	-2.721E-01	-1.313E+00	 1.800E+02	 6.578E-01	-1.990E-02	-2.279E-01	 5.730E+00	 1.366E+04	 1.722E+03	 0.000E+00	 5.730E+00	-6.607E+02	 1.201E+02	-2.169E+04	-2.538E+04	-6.662E+04	 1.235E+03	-1.116E+03	 7.018E+01	-8.723E+03	-1.417E+04	 5.544E+04	 1.235E+03	-2.169E+04	 5.732E+00	 8.479E+00	 3.654E+00	 1.090E+07	 4.746E+03	 2.002E+08	-1.166E+07	-1.360E+08	-1.093E+06
    2.9000	 3.000E+00	 9.743E-07	 0.000E+00	 7.999E+00	 0.000E+00	 0.000E+00	 2.147E+01	-1.827E-01	-5.211E-01	-2.735E-01	-1.251E+00	 1.800E+02	 7.156E-01	-1.882E-02	-2.262E-01	 5.730E+00	 1.348E+04	 1.687E+03	 0.000E+00	 5.730E+00	-5.563E+02	 1.214E+02	-2.168E+04	-2.530E+04	-5.429E+04	 1.253E+03	-1.046E+03	 7.052E+01	-8.720E+03	-1.399E+04	 5.603E+04	 1.253E+03	-2.168E+04	 5.732E+00	 8.537E+00	 3.669E+00	 1.055E+07	 4.875E+03	 2.000E+08	-1.164E+07	-1.126E+08	-1.087E+06
    3.0000	 3.000E+00	 9.939E-07	 0.000E+00	 7.999E+00	 0.000E+00	 0.000E+00	 2.158E+01	-1.829E-01	-5.385E-01	-2.749E-01	-1.190E+00	 1.800E+02	 7.729E-01	-1.763E-02	-2.240E-01	 5.730E+00	 1.328E+04	 1.651E+03	 0.000E+00	 5.730E+00	-4.515E+02	 1.228E+02	-2.167E+04	-2.521E+04	-4.187E+04	 1.262E+03	-9.760E+02	 7.091E+01	-8.717E+03	-1.378E+04	 5.662E+04	 1.262E+03	-2.167E+04	 5.732E+00	 8.604E+00	 3.683E+00	 1.021E+07	 4.986E+03	 1.999E+08	-1.161E+07	-8.916E+07	-1.076E+06
    3.1000	 3.000E+00	 1.015E-06	 0.000E+00	 7.999E+00	 0.000E+00	 0.000E+00	 2.170E+01	-1.833E-01	-5.589E-01	-2.764E-01	-1.129E+00	 1.800E+02	 8.247E-01	-1.631E-02	-2.190E-01	 5.730E+00	 1.304E+04	 1.616E+03	 0.000E+00	 5.730E+00	-3.568E+02	 1.244E+02	-2.166E+04	-2.511E+04	-3.022E+04	 1.265E+03	-9.089E+02	 7.137E+01	-8.717E+03	-1.355E+04	 5.723E+04	 1.265E+03	-2.166E+04	 5.732E+00	 8.680E+00	 3.654E+00	 9.775E+06	 5.081E+03	 1.999E+08	-1.158E+07	-6.540E+07	-1.060E+06
    3.2000	 3.000E+00	 1.038E-06	 0.000E+00	 7.999E+00	 0.000E+00	 0.000E+00	 2.182E+01	-1.836E-01	-5.824E-01	-2.779E-01	-1.069E+00	 1.800E+02	 8.761E-01	-1.488E-02	-2.134E-01	 5.730E+00	 1.278E+04	 1.580E+03	 0.000E+00	 5.730E+00	-2.618E+02	 1.261E+02	-2.166E+04	-2.499E+04	-1.850E+04	 1.264E+03	-8.412E+02	 7.189E+01	-8.718E+03	-1.329E+04	 5.784E+04	 1.264E+03	-2.166E+04	 5.732E+00	 8.765E+00	 3.625E+00	 9.351E+06	 5.153E+03	 1.998E+08	-1.155E+07	-4.169E+07	-1.042E+06
    3.3000	 3.000E+00	 1.066E-06	 0.000E+00	 7.999E+00	 0.000E+00	 0.000E+00	 2.195E+01	-1.839E-01	-6.090E-01	-2.794E-01	-1.012E+00	 1.800E+02	 9.210E-01	-1.333E-02	-2.051E-01	 5.730E+00	 1.249E+04	 1.545E+03	 0.000E+00	 5.730E+00	-1.785E+02	 1.280E+02	-2.167E+04	-2.486E+04	-7.747E+03	 1.261E+03	-7.782E+02	 7.244E+01	-8.722E+03	-1.300E+04	 5.845E+04	 1.261E+03	-2.167E+04	 5.732E+00	 8.858E+00	 3.556E+00	 8.847E+06	 5.195E+03	 1.999E+08	-1.151E+07	-1.816E+07	-1.021E+06
    3.4000	 3.000E+00	 1.095E-06	 0.000E+00	 7.999E+00	 0.000E+00	 0.000E+00	 2.208E+01	-1.842E-01	-6.387E-01	-2.810E-01	-9.554E-01	 1.800E+02	 9.653E-01	-1.169E-02	-1.963E-01	 5.730E+00	 1.219E+04	 1.510E+03	 0.000E+00	 5.730E+00	-9.505E+01	 1.299E+02	-2.167E+04	-2.472E+04	 3.040E+03	 1.263E+03	-7.147E+02	 7.303E+01	-8.725E+03	-1.270E+04	 5.907E+04	 1.263E+03	-2.167E+04	 5.732E+00	 8.960E+00	 3.488E+00	 8.354E+06	 5.208E+03	 1.999E+08	-1.146E+07	 5.289E+06	-1.000E+06
    3.5000	 3.000E+00	 1.131E-06	 0.000E+00	 7.999E+00	 0.000E+00	 0.000E+00	 2.222E+01	-1.846E-01	-6.714E-01	-2.827E-01	-9.013E-01	 1.800E+02	 1.002E+00	-9.945E-03	-1.849E-01	 5.730E+00	 1.186E+04	 1.477E+03	 0.000E+00	 5.730E+00	-2.482E+01	 1.320E+02	-2.169E+04	-2.457E+04	 1.266E+04	 1.273E+03	-6.571E+02	 7.365E+01	-8.732E+03	-1.237E+04	 5.968E+04	 1.273E+03	-2.169E+04	 5.733E+00	 9.070E+00	 3.385E+00	 7.793E+06	 5.190E+03	 2.000E+08	-1.141E+07	 2.805E+07	-9.824E+05
    3.6000	 3.000E+00	 1.169E-06	 0.000E+00	 7.999E+00	 0.000E+00	 0.000E+00	 2.236E+01	-1.849E-01	-7.071E-01	-2.844E-01	-8.495E-01	 1.800E+02	 1.039E+00	-8.128E-03	-1.730E-01	 5.730E+00	 1.152E+04	 1.443E+03	 0.000E+00	 5.730E+00	 4.527E+01	 1.341E+02	-2.170E+04	-2.441E+04	 2.228E+04	 1.292E+03	-5.993E+02	 7.427E+01	-8.739E+03	-1.203E+04	 6.030E+04	 1.292E+03	-2.170E+04	 5.733E+00	 9.188E+00	 3.282E+00	 7.245E+06	 5.136E+03	 2.001E+08	-1.135E+07	 5.069E+07	-9.677E+05
    3.7000	 3.000E+00	 1.212E-06	 0.000E+00	 7.999E+00	 0.000E+00	 0.000E+00	 2.250E+01	-1.853E-01	-7.458E-01	-2.860E-01	-8.002E-01	 1.800E+02	 1.067E+00	-6.228E-03	-1.587E-01	 5.730E+00	 1.117E+04	 1.412E+03	 0.000E+00	 5.730E+00	 1.007E+02	 1.363E+02	-2.172E+04	-2.424E+04	 3.055E+04	 1.325E+03	-5.485E+02	 7.491E+01	-8.749E+03	-1.168E+04	 6.090E+04	 1.325E+03	-2.172E+04	 5.733E+00	 9.315E+00	 3.151E+00	 6.639E+06	 5.050E+03	 2.003E+08	-1.129E+07	 7.215E+07	-9.583E+05
    3.8000	 3.000E+00	 1.257E-06	 0.000E+00	 7.999E+00	 0.000E+00	 0.000E+00	 2.264E+01	-1.856E-01	-7.874E-01	-2.877E-01	-7.537E-01	 1.800E+02	 1.094E+00	-4.274E-03	-1.441E-01	 5.730E+00	 1.080E+04	 1.381E+03	 0.000E+00	 5.730E+00	 1.559E+02	 1.386E+02	-2.174E+04	-2.406E+04	 3.880E+04	 1.372E+03	-4.977E+02	 7.555E+01	-8.759E+03	-1.132E+04	 6.152E+04	 1.372E+03	-2.174E+04	 5.733E+00	 9.450E+00	 3.020E+00	 6.048E+06	 4.931E+03	 2.005E+08	-1.122E+07	 9.347E+07	-9.539E+05
    3.9000	 3.000E+00	 1.304E-06	 0.000E+00	 7.999E+00	 0.000E+00	 0.000E+00	 2.279E+01	-1.860E-01	-8.318E-01	-2.894E-01	-7.102E-01	 1.800E+02	 1.113E+00	-2.260E-03	-1.274E-01	 5.730E+00	 1.042E+04	 1.352E+03	 0.000E+00	 5.730E+00	 1.950E+02	 1.409E+02	-2.177E+04	-2.388E+04	 4.552E+04	 1.435E+03	-4.549E+02	 7.620E+01	-8.772E+03	-1.095E+04	 6.211E+04	 1.435E+03	-2.177E+04	 5.733E+00	 9.595E+00	 2.868E+00	 5.407E+06	 4.782E+03	 2.007E+08	-1.115E+07	 1.132E+08	-9.574E+05
    4.0000	 3.000E+00	 1.352E-06	 0.000E+00	 7.999E+00	 0.000E+00	 0.000E+00	 2.294E+01	-1.864E-01	-8.788E-01	-2.912E-01	-6.699E-01	 1.800E+02	 1.130E+00	-2.138E-04	-1.104E-01	 5.730E+00	 1.004E+04	 1.324E+03	 0.000E+00	 5.730E+00	 2.337E+02	 1.432E+02	-2.180E+04	-2.369E+04	 5.221E+04	 1.516E+03	-4.122E+02	 7.684E+01	-8.785E+03	-1.057E+04	 6.272E+04	 1.516E+03	-2.180E+04	 5.733E+00	 9.748E+00	 2.715E+00	 4.782E+06	 4.607E+03	 2.010E+08	-1.108E+07	 1.327E+08	-9.673E+05
    4.1000	 3.000E+00	 1.400E-06	 0.000E+00	 7.999E+00	 0.000E+00	 0.000E+00	 2.310E+01	-1.868E-01	-9.283E-01	-2.929E-01	-6.330E-01	 1.800E+02	 1.138E+00	 1.859E-03	-9.181E-02	 5.730E+00	 9.646E+03	 1.299E+03	 0.000E+00	 5.730E+00	 2.552E+02	 1.456E+02	-2.184E+04	-2.350E+04	 5.721E+04	 1.618E+03	-3.785E+02	 7.750E+01	-8.800E+03	-1.019E+04	 6.331E+04	 1.618E+03	-2.184E+04	 5.733E+00	 9.910E+00	 2.548E+00	 4.117E+06	 4.413E+03	 2.013E+08	-1.101E+07	 1.501E+08	-9.878E+05
    4.2000	 3.000E+00	 1.444E-06	 0.000E+00	 7.999E+00	 0.000E+00	 0.000E+00	 2.325E+01	-1.872E-01	-9.803E-01	-2.945E-01	-5.996E-01	 1.800E+02	 1.145E+00	 3.927E-03	-7.307E-02	 5.730E+00	 9.250E+03	 1.274E+03	 0.000E+00	 5.730E+00	 2.760E+02	 1.480E+02	-2.188E+04	-2.332E+04	 6.216E+04	 1.746E+03	-3.450E+02	 7.815E+01	-8.815E+03	-9.810E+03	 6.391E+04	 1.746E+03	-2.188E+04	 5.733E+00	 1.008E+01	 2.380E+00	 3.467E+06	 4.205E+03	 2.016E+08	-1.093E+07	 1.674E+08	-1.019E+06
    4.3000	 3.000E+00	 1.486E-06	 0.000E+00	 7.999E+00	 0.000E+00	 0.000E+00	 2.341E+01	-1.875E-01	-1.034E+00	-2.962E-01	-5.700E-01	 1.800E+02	 1.142E+00	 6.006E-03	-5.309E-02	 5.730E+00	 8.851E+03	 1.253E+03	 0.000E+00	 5.730E+00	 2.787E+02	 1.504E+02	-2.192E+04	-2.313E+04	 6.531E+04	 1.891E+03	-3.212E+02	 7.883E+01	-8.832E+03	-9.427E+03	 6.449E+04	 1.891E+03	-2.192E+04	 5.733E+00	 1.026E+01	 2.202E+00	 2.786E+06	 3.989E+03	 2.020E+08	-1.086E+07	 1.823E+08	-1.060E+06
    4.4000	 3.000E+00	 1.521E-06	 0.000E+00	 7.999E+00	 0.000E+00	 0.000E+00	 2.357E+01	-1.879E-01	-1.091E+00	-2.979E-01	-5.443E-01	 1.800E+02	 1.138E+00	 8.061E-03	-3.313E-02	 5.730E+00	 8.452E+03	 1.232E+03	 0.000E+00	 5.730E+00	 2.807E+02	 1.528E+02	-2.196E+04	-2.294E+04	 6.837E+04	 2.047E+03	-2.978E+02	 7.950E+01	-8.849E+03	-9.044E+03	 6.507E+04	 2.047E+03	-2.196E+04	 5.733E+00	 1.044E+01	 2.025E+00	 2.119E+06	 3.771E+03	 2.024E+08	-1.078E+07	 1.969E+08	-1.105E+06
    4.5000	 3.000E+00	 1.564E-06	 0.000E+00	 7.999E+00	 0.000E+00	 0.000E+00	 2.373E+01	-1.883E-01	-1.149E+00	-2.995E-01	-5.225E-01	 1.800E+02	 1.123E+00	 1.011E-02	-1.234E-02	 5.730E+00	 8.057E+03	 1.215E+03	 0.000E+00	 5.730E+00	 2.638E+02	 1.552E+02	-2.201E+04	-2.276E+04	 6.951E+04	 2.200E+03	-2.850E+02	 8.017E+01	-8.867E+03	-8.666E+03	 6.563E+04	 2.200E+03	-2.201E+04	 5.732E+00	 1.063E+01	 1.843E+00	 1.429E+06	 3.550E+03	 2.028E+08	-1.070E+07	 2.089E+08	-1.151E+06
    4.6000	 3.000E+00	 1.590E-06	 0.000E+00	 7.999E+00	 0.000E+00	 0.000E+00	 2.389E+01	-1.887E-01	-1.208E+00	-3.010E-01	-5.048E-01	 1.800E+02	 1.108E+00	 1.212E-02	 8.292E-03	 5.730E+00	 7.669E+03	 1.199E+03	 0.000E+00	 5.730E+00	 2.458E+02	 1.575E+02	-2.206E+04	-2.258E+04	 7.054E+04	 2.355E+03	-2.728E+02	 8.083E+01	-8.886E+03	-8.295E+03	 6.619E+04	 2.355E+03	-2.206E+04	 5.732E+00	 1.083E+01	 1.662E+00	 7.527E+05	 3.334E+03	 2.033E+08	-1.062E+07	 2.206E+08	-1.198E+06
    4.7000	 3.000E+00	 1.611E-06	 0.000E+00	 7.999E+00	 0.000E+00	 0.000E+00	 2.405E+01	-1.891E-01	-1.269E+00	-3.025E-01	-4.912E-01	 1.800E+02	 1.081E+00	 1.406E-02	 2.928E-02	 5.730E+00	 7.286E+03	 1.187E+03	 0.000E+00	 5.730E+00	 2.089E+02	 1.599E+02	-2.211E+04	-2.241E+04	 6.959E+04	 2.514E+03	-2.713E+02	 8.155E+01	-8.905E+03	-7.929E+03	 6.669E+04	 2.514E+03	-2.211E+04	 5.732E+00	 1.104E+01	 1.480E+00	 6.128E+04	 3.143E+03	 2.038E+08	-1.055E+07	 2.294E+08	-1.251E+06
    4.8000	 3.000E+00	 1.628E-06	 0.000E+00	 7.999E+00	 0.000E+00	 0.000E+00	 2.421E+01	-1.894E-01	-1.332E+00	-3.040E-01	-4.818E-01	 1.800E+02	 1.055E+00	 1.592E-02	 4.997E-02	 5.730E+00	 6.909E+03	 1.175E+03	 0.000E+00	 5.730E+00	 1.709E+02	 1.622E+02	-2.216E+04	-2.224E+04	 6.851E+04	 2.679E+03	-2.704E+02	 8.229E+01	-8.924E+03	-7.570E+03	 6.719E+04	 2.679E+03	-2.216E+04	 5.732E+00	 1.126E+01	 1.298E+00	-6.178E+05	 2.982E+03	 2.042E+08	-1.048E+07	 2.379E+08	-1.305E+06
    4.9000	 3.000E+00	 1.638E-06	 0.000E+00	 7.999E+00	 0.000E+00	 0.000E+00	 2.436E+01	-1.898E-01	-1.395E+00	-3.054E-01	-4.766E-01	 1.800E+02	 1.016E+00	 1.769E-02	 7.056E-02	 5.730E+00	 6.537E+03	 1.168E+03	 0.000E+00	 5.730E+00	 1.144E+02	 1.645E+02	-2.221E+04	-2.209E+04	 6.544E+04	 2.852E+03	-2.800E+02	 8.311E+01	-8.944E+03	-7.217E+03	 6.759E+04	 2.852E+03	-2.221E+04	 5.732E+00	 1.148E+01	 1.119E+00	-1.303E+06	 2.864E+03	 2.047E+08	-1.040E+07	 2.433E+08	-1.368E+06
    5.0000	 3.000E+00	 1.644E-06	 0.000E+00	 7.999E+00	 0.000E+00	 0.000E+00	 2.452E+01	-1.902E-01	-1.459E+00	-3.067E-01	-4.757E-01	 1.800E+02	 9.781E-01	 1.935E-02	 9.073E-02	 5.730E+00	 6.171E+03	 1.160E+03	 0.000E+00	 5.730E+00	 5.685E+01	 1.669E+02	-2.226E+04	-2.195E+04	 6.223E+04	 3.041E+03	-2.900E+02	 8.399E+01	-8.964E+03	-6.872E+03	 6.794E+04	 3.041E+03	-2.226E+04	 5.732E+00	 1.170E+01	 9.398E-01	-1.977E+06	 2.794E+03	 2.052E+08	-1.034E+07	 2.485E+08	-1.438E+06
    5.1000	 3.000E+00	 1.647E-06	 0.000E+00	 7.999E+00	 0.000E+00	 0.000E+00	 2.468E+01	-1.906E-01	-1.523E+00	-3.080E-01	-4.790E-01	 1.800E+02	 9.283E-01	 2.094E-02	 1.103E-01	 5.730E+00	 5.814E+03	 1.157E+03	 0.000E+00	 5.730E+00	-1.847E+01	 1.691E+02	-2.232E+04	-2.182E+04	 5.709E+04	 3.248E+03	-3.103E+02	 8.488E+01	-8.984E+03	-6.538E+03	 6.821E+04	 3.248E+03	-2.232E+04	 5.732E+00	 1.192E+01	 7.661E-01	-2.647E+06	 2.757E+03	 2.058E+08	-1.027E+07	 2.505E+08	-1.521E+06
    5.2000	 3.000E+00	 1.662E-06	 0.000E+00	 7.999E+00	 0.000E+00	 0.000E+00	 2.484E+01	-1.909E-01	-1.588E+00	-3.091E-01	-4.865E-01	 1.800E+02	 8.785E-01	 2.243E-02	 1.295E-01	 5.730E+00	 5.475E+03	 1.155E+03	 0.000E+00	 5.730E+00	-9.576E+01	 1.713E+02	-2.237E+04	-2.169E+04	 5.175E+04	 3.490E+03	-3.319E+02	 8.570E+01	-9.003E+03	-6.226E+03	 6.849E+04	 3.490E+03	-2.237E+04	 5.732E+00	 1.213E+01	 5.924E-01	-3.308E+06	 2.736E+03	 2.063E+08	-1.021E+07	 2.523E+08	-1.621E+06
    5.3000	 3.000E+00	 1.646E-06	 0.000E+00	 7.999E+00	 0.000E+00	 0.000E+00	 2.499E+01	-1.913E-01	-1.653E+00	-3.102E-01	-4.980E-01	 1.800E+02	 8.190E-01	 2.386E-02	 1.477E-01	 5.730E+00	 5.169E+03	 1.159E+03	 0.000E+00	 5.730E+00	-1.908E+02	 1.732E+02	-2.243E+04	-2.158E+04	 4.448E+04	 3.763E+03	-3.652E+02	 8.637E+01	-9.023E+03	-5.949E+03	 6.879E+04	 3.763E+03	-2.243E+04	 5.732E+00	 1.230E+01	 4.253E-01	-3.954E+06	 2.700E+03	 2.068E+08	-1.015E+07	 2.507E+08	-1.740E+06
    5.4000	 3.000E+00	 1.633E-06	 0.000E+00	 7.999E+00	 0.000E+00	 0.000E+00	 2.514E+01	-1.916E-01	-1.717E+00	-3.112E-01	-5.136E-01	 1.800E+02	 7.600E-01	 2.531E-02	 1.656E-01	 5.730E+00	 4.902E+03	 1.166E+03	 0.000E+00	 5.730E+00	-2.890E+02	 1.748E+02	-2.248E+04	-2.147E+04	 3.694E+04	 4.017E+03	-4.014E+02	 8.675E+01	-9.043E+03	-5.709E+03	 6.922E+04	 4.017E+03	-2.248E+04	 5.731E+00	 1.244E+01	 2.583E-01	-4.594E+06	 2.613E+03	 2.074E+08	-1.009E+07	 2.489E+08	-1.852E+06
    5.5000	 3.000E+00	 1.627E-06	 0.000E+00	 7.999E+00	 0.000E+00	 0.000E+00	 2.529E+01	-1.919E-01	-1.781E+00	-3.121E-01	-5.332E-01	 1.800E+02	 6.925E-01	 2.679E-02	 1.822E-01	 5.730E+00	 4.675E+03	 1.179E+03	 0.000E+00	 5.730E+00	-4.033E+02	 1.762E+02	-2.253E+04	-2.135E+04	 2.762E+04	 4.231E+03	-4.490E+02	 8.685E+01	-9.064E+03	-5.503E+03	 6.970E+04	 4.231E+03	-2.253E+04	 5.731E+00	 1.256E+01	 9.872E-02	-5.206E+06	 2.478E+03	 2.079E+08	-1.002E+07	 2.438E+08	-1.952E+06
    5.6000	 3.000E+00	 1.620E-06	 0.000E+00	 7.999E+00	 0.000E+00	 0.000E+00	 2.544E+01	-1.923E-01	-1.844E+00	-3.130E-01	-5.565E-01	 1.800E+02	 6.253E-01	 2.831E-02	 1.984E-01	 5.730E+00	 4.479E+03	 1.195E+03	 0.000E+00	 5.730E+00	-5.204E+02	 1.774E+02	-2.259E+04	-2.123E+04	 1.803E+04	 4.386E+03	-4.987E+02	 8.671E+01	-9.084E+03	-5.322E+03	 7.023E+04	 4.386E+03	-2.259E+04	 5.731E+00	 1.267E+01	-6.082E-02	-5.814E+06	 2.313E+03	 2.084E+08	-9.946E+06	 2.385E+08	-2.027E+06
    5.7000	 3.000E+00	 1.616E-06	 0.000E+00	 7.999E+00	 0.000E+00	 0.000E+00	 2.558E+01	-1.926E-01	-1.906E+00	-3.137E-01	-5.835E-01	 1.800E+02	 5.506E-01	 2.983E-02	 2.130E-01	 5.730E+00	 4.308E+03	 1.215E+03	 0.000E+00	 5.730E+00	-6.501E+02	 1.783E+02	-2.264E+04	-2.111E+04	 6.925E+03	 4.479E+03	-5.574E+02	 8.643E+01	-9.103E+03	-5.158E+03	 7.070E+04	 4.479E+03	-2.264E+04	 5.731E+00	 1.277E+01	-2.123E-01	-6.380E+06	 2.148E+03	 2.089E+08	-9.870E+06	 2.300E+08	-2.078E+06
    5.8000	 3.000E+00	 1.618E-06	 0.000E+00	 7.999E+00	 0.000E+00	 0.000E+00	 2.572E+01	-1.929E-01	-1.966E+00	-3.143E-01	-6.141E-01	 1.800E+02	 4.761E-01	 3.129E-02	 2.272E-01	 5.730E+00	 4.157E+03	 1.236E+03	 0.000E+00	 5.730E+00	-7.820E+02	 1.792E+02	-2.269E+04	-2.099E+04	-4.461E+03	 4.533E+03	-6.176E+02	 8.608E+01	-9.121E+03	-5.010E+03	 7.113E+04	 4.533E+03	-2.269E+04	 5.731E+00	 1.286E+01	-3.638E-01	-6.944E+06	 2.003E+03	 2.095E+08	-9.794E+06	 2.214E+08	-2.113E+06
    5.9000	 3.000E+00	 1.623E-06	 0.000E+00	 7.999E+00	 0.000E+00	 0.000E+00	 2.586E+01	-1.932E-01	-2.025E+00	-3.148E-01	-6.479E-01	 1.800E+02	 3.956E-01	 3.268E-02	 2.396E-01	 5.730E+00	 4.024E+03	 1.261E+03	 0.000E+00	 5.730E+00	-9.232E+02	 1.799E+02	-2.274E+04	-2.088E+04	-1.708E+04	 4.553E+03	-6.849E+02	 8.570E+01	-9.139E+03	-4.876E+03	 7.147E+04	 4.553E+03	-2.274E+04	 5.731E+00	 1.294E+01	-5.067E-01	-7.450E+06	 1.886E+03	 2.100E+08	-9.719E+06	 2.099E+08	-2.138E+06
    6.0000	 3.000E+00	 1.626E-06	 0.000E+00	 7.999E+00	 0.000E+00	 0.000E+00	 2.599E+01	-1.935E-01	-2.083E+00	-3.151E-01	-6.849E-01	 1.800E+02	 3.152E-01	 3.397E-02	 2.516E-01	 5.730E+00	 3.907E+03	 1.287E+03	 0.000E+00	 5.730E+00	-1.066E+03	 1.805E+02	-2.279E+04	-2.077E+04	-2.998E+04	 4.541E+03	-7.536E+02	 8.530E+01	-9.156E+03	-4.756E+03	 7.175E+04	 4.541E+03	-2.279E+04	 5.730E+00	 1.300E+01	-6.497E-01	-7.957E+06	 1.800E+03	 2.105E+08	-9.646E+06	 1.983E+08	-2.150E+06
