
Predictions were generated on 22-Dec-2025 at 21:57:45 using OpenFAST, compiled on Dec 22 2025 at 21:41:16 as a 64-bit application using double precision at commit -128-NOTFOUND
 linked with  NWTC Subroutine Library; ElastoDyn; InflowWind; AeroDyn; SeaState; HydroDyn

Description from the FAST input file: IEA 15 MW offshore reference model on UMaine VolturnUS-S semi-submersible floating platform

Time	ConvIter	ConvError	NumUJac	Wind1VelX	Wind1VelY	Wind1VelZ	PtfmSurge	PtfmSway	PtfmHeave	PtfmRoll	PtfmPitch	PtfmYaw	NcIMUTAxs	NcIMUTAys	NcIMUTAzs	RotSpeed	RotTorq	RotThrust	BldPitch1	GenSpeed	TwrBsFxt	TwrBsFyt	TwrBsFzt	TwrBsMxt	TwrBsMyt	TwrBsMzt	YawBrFxp	YawBrFyp	YawBrFzp	YawBrMxp	YawBrMyp	YawBrMzp	TwrBsFzt	RtSpeed	RtTSR	Wave1Elev	HydroFxi	HydroFyi	HydroFzi	HydroMxi	HydroMyi	HydroMzi
(s)	(-)	(-)	(-)	(m/s)	(m/s)	(m/s)	(m)	(m)	(m)	(deg)	(deg)	(deg)	(m/s^2)	(m/s^2)	(m/s^2)	(rpm)	(kN-m)	(kN)	(deg)	(rpm)	(kN)	(kN)	(kN)	(kN-m)	(kN-m)	(kN-m)	(kN)	(kN)	(kN)	(kN-m)	(kN-m)	(kN-m)	(kN)	(rpm)	(-)	(m)	(N)	(N)	(N)	(N-m)	(N-m)	(N-m)
    0.0000	 1.000E+00	 7.765E-12	 1.000E+00	 7.999E+00	 0.000E+00	 0.000E+00	 2.090E+01	 1.300E-01	-3.400E-01	 2.800E-01	 2.400E+00	 4.100E-01	 3.519E-01	-1.996E-03	 1.668E-02	 5.730E+00	 1.096E+04	 1.809E+03	 0.000E+00	 5.730E+00	 1.971E+03	-1.208E+02	-2.226E+04	 2.155E+04	 1.408E+05	 4.421E+02	 1.429E+03	-5.564E+01	-8.962E+03	 1.130E+04	-6.234E+04	 4.421E+02	-2.226E+04	 5.730E+00	 9.075E+00	 2.853E-01	-5.876E+06	 1.435E+03	 2.017E+08	-9.998E+06	 6.088E+07	-7.161E+04
    0.1000	 3.000E+00	 2.360E-08	 0.000E+00	 7.999E+00	 0.000E+00	 0.000E+00	 2.090E+01	 1.300E-01	-3.402E-01	 2.800E-01	 2.401E+00	 4.100E-01	 2.786E-01	-1.479E-04	-3.324E-02	 5.730E+00	 1.095E+04	 1.837E+03	 0.000E+00	 5.730E+00	 2.107E+03	-1.241E+02	-2.217E+04	 2.191E+04	 1.545E+05	 5.326E+02	 1.498E+03	-5.777E+01	-8.923E+03	 1.131E+04	-6.159E+04	 5.326E+02	-2.217E+04	 5.730E+00	 9.103E+00	 1.318E-01	-5.166E+06	 1.649E+02	 2.031E+08	-9.918E+06	 6.295E+07	 7.676E+05
    0.2000	 3.000E+00	 2.332E-08	 0.000E+00	 7.999E+00	 0.000E+00	 0.000E+00	 2.090E+01	 1.300E-01	-3.409E-01	 2.800E-01	 2.404E+00	 4.100E-01	 3.001E-01	-2.320E-04	-2.092E-02	 5.730E+00	 1.090E+04	 1.826E+03	 0.000E+00	 5.730E+00	 2.059E+03	-1.240E+02	-2.219E+04	 2.187E+04	 1.500E+05	 6.422E+02	 1.475E+03	-5.783E+01	-8.932E+03	 1.127E+04	-6.183E+04	 6.422E+02	-2.219E+04	 5.730E+00	 9.138E+00	-2.160E-02	-4.838E+06	 2.252E+02	 2.032E+08	-9.914E+06	 6.486E+07	 7.187E+05
    0.3000	 3.000E+00	 2.422E-08	 0.000E+00	 7.999E+00	 0.000E+00	 0.000E+00	 2.089E+01	 1.300E-01	-3.422E-01	 2.800E-01	 2.408E+00	 4.099E-01	 3.185E-01	-1.101E-04	-8.796E-03	 5.730E+00	 1.082E+04	 1.815E+03	 0.000E+00	 5.730E+00	 2.014E+03	-1.241E+02	-2.221E+04	 2.181E+04	 1.459E+05	 7.233E+02	 1.454E+03	-5.785E+01	-8.941E+03	 1.120E+04	-6.208E+04	 7.233E+02	-2.221E+04	 5.730E+00	 9.177E+00	-1.542E-01	-4.468E+06	 2.731E+02	 2.034E+08	-9.899E+06	 6.540E+07	 6.825E+05
    0.4000	 3.000E+00	 2.702E-08	 0.000E+00	 7.999E+00	 0.000E+00	 0.000E+00	 2.088E+01	 1.300E-01	-3.441E-01	 2.801E-01	 2.415E+00	 4.099E-01	 3.366E-01	 1.112E-04	 3.321E-03	 5.730E+00	 1.073E+04	 1.804E+03	 0.000E+00	 5.730E+00	 1.970E+03	-1.242E+02	-2.224E+04	 2.173E+04	 1.417E+05	 7.993E+02	 1.433E+03	-5.784E+01	-8.950E+03	 1.111E+04	-6.234E+04	 7.993E+02	-2.224E+04	 5.730E+00	 9.221E+00	-2.869E-01	-4.092E+06	 3.194E+02	 2.036E+08	-9.876E+06	 6.588E+07	 6.499E+05
    0.5000	 3.000E+00	 3.195E-08	 0.000E+00	 7.999E+00	 0.000E+00	 0.000E+00	 2.087E+01	 1.300E-01	-3.463E-01	 2.801E-01	 2.424E+00	 4.098E-01	 3.510E-01	 4.187E-04	 1.501E-02	 5.730E+00	 1.062E+04	 1.793E+03	 0.000E+00	 5.730E+00	 1.930E+03	-1.243E+02	-2.226E+04	 2.164E+04	 1.382E+05	 8.772E+02	 1.415E+03	-5.785E+01	-8.959E+03	 1.101E+04	-6.257E+04	 8.772E+02	-2.226E+04	 5.730E+00	 9.269E+00	-3.975E-01	-3.691E+06	 3.697E+02	 2.038E+08	-9.849E+06	 6.497E+07	 6.165E+05
    0.6000	 3.000E+00	 3.922E-08	 0.000E+00	 7.999E+00	 0.000E+00	 0.000E+00	 2.086E+01	 1.300E-01	-3.489E-01	 2.801E-01	 2.435E+00	 4.097E-01	 3.651E-01	 7.595E-04	 2.664E-02	 5.730E+00	 1.050E+04	 1.783E+03	 0.000E+00	 5.730E+00	 1.891E+03	-1.245E+02	-2.228E+04	 2.155E+04	 1.347E+05	 9.653E+02	 1.397E+03	-5.789E+01	-8.967E+03	 1.090E+04	-6.280E+04	 9.653E+02	-2.228E+04	 5.730E+00	 9.321E+00	-5.082E-01	-3.286E+06	 4.272E+02	 2.040E+08	-9.819E+06	 6.399E+07	 5.794E+05
    0.7000	 3.000E+00	 4.833E-08	 0.000E+00	 7.999E+00	 0.000E+00	 0.000E+00	 2.085E+01	 1.300E-01	-3.516E-01	 2.801E-01	 2.447E+00	 4.096E-01	 3.745E-01	 1.148E-03	 3.760E-02	 5.730E+00	 1.037E+04	 1.773E+03	 0.000E+00	 5.730E+00	 1.858E+03	-1.248E+02	-2.230E+04	 2.146E+04	 1.319E+05	 1.071E+03	 1.383E+03	-5.798E+01	-8.975E+03	 1.078E+04	-6.301E+04	 1.071E+03	-2.230E+04	 5.730E+00	 9.377E+00	-5.972E-01	-2.871E+06	 4.933E+02	 2.042E+08	-9.788E+06	 6.163E+07	 5.336E+05
    0.8000	 3.000E+00	 5.925E-08	 0.000E+00	 7.999E+00	 0.000E+00	 0.000E+00	 2.084E+01	 1.300E-01	-3.545E-01	 2.802E-01	 2.462E+00	 4.095E-01	 3.834E-01	 1.543E-03	 4.847E-02	 5.730E+00	 1.023E+04	 1.764E+03	 0.000E+00	 5.730E+00	 1.827E+03	-1.251E+02	-2.233E+04	 2.136E+04	 1.292E+05	 1.190E+03	 1.370E+03	-5.811E+01	-8.984E+03	 1.066E+04	-6.321E+04	 1.190E+03	-2.233E+04	 5.730E+00	 9.436E+00	-6.862E-01	-2.455E+06	 5.669E+02	 2.044E+08	-9.755E+06	 5.920E+07	 4.827E+05
    0.9000	 3.000E+00	 7.128E-08	 0.000E+00	 7.999E+00	 0.000E+00	 0.000E+00	 2.082E+01	 1.300E-01	-3.575E-01	 2.802E-01	 2.479E+00	 4.094E-01	 3.870E-01	 1.969E-03	 5.844E-02	 5.730E+00	 1.009E+04	 1.756E+03	 0.000E+00	 5.730E+00	 1.804E+03	-1.255E+02	-2.235E+04	 2.127E+04	 1.274E+05	 1.321E+03	 1.361E+03	-5.831E+01	-8.991E+03	 1.052E+04	-6.338E+04	 1.321E+03	-2.235E+04	 5.730E+00	 9.496E+00	-7.552E-01	-2.044E+06	 6.499E+02	 2.046E+08	-9.722E+06	 5.542E+07	 4.250E+05
    1.0000	 3.000E+00	 8.459E-08	 0.000E+00	 7.999E+00	 0.000E+00	 0.000E+00	 2.081E+01	 1.301E-01	-3.603E-01	 2.802E-01	 2.497E+00	 4.092E-01	 3.901E-01	 2.392E-03	 6.830E-02	 5.730E+00	 9.936E+03	 1.748E+03	 0.000E+00	 5.730E+00	 1.782E+03	-1.259E+02	-2.237E+04	 2.118E+04	 1.258E+05	 1.442E+03	 1.352E+03	-5.853E+01	-8.999E+03	 1.038E+04	-6.354E+04	 1.442E+03	-2.237E+04	 5.730E+00	 9.559E+00	-8.241E-01	-1.635E+06	 7.396E+02	 2.048E+08	-9.689E+06	 5.157E+07	 3.724E+05
    1.1000	 3.000E+00	 9.831E-08	 0.000E+00	 7.999E+00	 0.000E+00	 0.000E+00	 2.079E+01	 1.301E-01	-3.630E-01	 2.803E-01	 2.517E+00	 4.091E-01	 3.875E-01	 2.825E-03	 7.708E-02	 5.730E+00	 9.782E+03	 1.743E+03	 0.000E+00	 5.730E+00	 1.771E+03	-1.264E+02	-2.239E+04	 2.110E+04	 1.251E+05	 1.562E+03	 1.349E+03	-5.885E+01	-9.006E+03	 1.024E+04	-6.365E+04	 1.562E+03	-2.239E+04	 5.730E+00	 9.626E+00	-8.755E-01	-1.243E+06	 8.436E+02	 2.050E+08	-9.656E+06	 4.642E+07	 3.188E+05
    1.2000	 3.000E+00	 1.128E-07	 0.000E+00	 7.999E+00	 0.000E+00	 0.000E+00	 2.078E+01	 1.301E-01	-3.655E-01	 2.803E-01	 2.539E+00	 4.089E-01	 3.841E-01	 3.216E-03	 8.570E-02	 5.730E+00	 9.621E+03	 1.737E+03	 0.000E+00	 5.730E+00	 1.761E+03	-1.270E+02	-2.241E+04	 2.102E+04	 1.246E+05	 1.684E+03	 1.347E+03	-5.925E+01	-9.013E+03	 1.010E+04	-6.374E+04	 1.684E+03	-2.241E+04	 5.730E+00	 9.697E+00	-9.268E-01	-8.540E+05	 9.717E+02	 2.052E+08	-9.625E+06	 4.121E+07	 2.637E+05
    1.3000	 3.000E+00	 1.271E-07	 0.000E+00	 7.999E+00	 0.000E+00	 0.000E+00	 2.076E+01	 1.301E-01	-3.676E-01	 2.803E-01	 2.562E+00	 4.088E-01	 3.746E-01	 3.583E-03	 9.307E-02	 5.730E+00	 9.453E+03	 1.734E+03	 0.000E+00	 5.730E+00	 1.761E+03	-1.277E+02	-2.243E+04	 2.095E+04	 1.252E+05	 1.809E+03	 1.349E+03	-5.979E+01	-9.019E+03	 9.942E+03	-6.376E+04	 1.809E+03	-2.243E+04	 5.730E+00	 9.774E+00	-9.637E-01	-4.929E+05	 1.134E+03	 2.053E+08	-9.597E+06	 3.479E+07	 2.056E+05
    1.4000	 3.000E+00	 1.417E-07	 0.000E+00	 7.999E+00	 0.000E+00	 0.000E+00	 2.074E+01	 1.302E-01	-3.693E-01	 2.803E-01	 2.587E+00	 4.086E-01	 3.643E-01	 3.869E-03	 1.003E-01	 5.730E+00	 9.274E+03	 1.730E+03	 0.000E+00	 5.730E+00	 1.762E+03	-1.285E+02	-2.245E+04	 2.089E+04	 1.258E+05	 1.944E+03	 1.352E+03	-6.050E+01	-9.024E+03	 9.780E+03	-6.372E+04	 1.944E+03	-2.245E+04	 5.730E+00	 9.855E+00	-1.001E+00	-1.361E+05	 1.343E+03	 2.055E+08	-9.573E+06	 2.833E+07	 1.427E+05
    1.5000	 3.000E+00	 1.556E-07	 0.000E+00	 7.999E+00	 0.000E+00	 0.000E+00	 2.072E+01	 1.302E-01	-3.704E-01	 2.802E-01	 2.614E+00	 4.084E-01	 3.478E-01	 4.090E-03	 1.061E-01	 5.730E+00	 9.085E+03	 1.727E+03	 0.000E+00	 5.730E+00	 1.774E+03	-1.295E+02	-2.246E+04	 2.084E+04	 1.276E+05	 2.098E+03	 1.359E+03	-6.140E+01	-9.029E+03	 9.609E+03	-6.356E+04	 2.098E+03	-2.246E+04	 5.730E+00	 9.937E+00	-1.026E+00	 1.854E+05	 1.604E+03	 2.057E+08	-9.554E+06	 2.075E+07	 6.913E+04
    1.6000	 3.000E+00	 1.697E-07	 0.000E+00	 7.999E+00	 0.000E+00	 0.000E+00	 2.071E+01	 1.302E-01	-3.709E-01	 2.802E-01	 2.642E+00	 4.083E-01	 3.306E-01	 4.204E-03	 1.118E-01	 5.730E+00	 8.887E+03	 1.724E+03	 0.000E+00	 5.730E+00	 1.786E+03	-1.306E+02	-2.248E+04	 2.081E+04	 1.295E+05	 2.289E+03	 1.367E+03	-6.246E+01	-9.034E+03	 9.435E+03	-6.333E+04	 2.289E+03	-2.248E+04	 5.730E+00	 1.002E+01	-1.052E+00	 5.022E+05	 1.906E+03	 2.059E+08	-9.541E+06	 1.315E+07	-2.190E+04
    1.7000	 3.000E+00	 1.830E-07	 0.000E+00	 7.999E+00	 0.000E+00	 0.000E+00	 2.069E+01	 1.302E-01	-3.708E-01	 2.802E-01	 2.670E+00	 4.081E-01	 3.078E-01	 4.287E-03	 1.160E-01	 5.730E+00	 8.695E+03	 1.723E+03	 0.000E+00	 5.730E+00	 1.810E+03	-1.316E+02	-2.249E+04	 2.079E+04	 1.324E+05	 2.527E+03	 1.380E+03	-6.355E+01	-9.038E+03	 9.271E+03	-6.307E+04	 2.527E+03	-2.249E+04	 5.730E+00	 1.008E+01	-1.070E+00	 7.780E+05	 2.205E+03	 2.060E+08	-9.532E+06	 4.540E+06	-1.367E+05
    1.8000	 3.000E+00	 1.968E-07	 0.000E+00	 7.999E+00	 0.000E+00	 0.000E+00	 2.067E+01	 1.303E-01	-3.699E-01	 2.801E-01	 2.701E+00	 4.079E-01	 2.850E-01	 4.381E-03	 1.202E-01	 5.730E+00	 8.527E+03	 1.724E+03	 0.000E+00	 5.730E+00	 1.835E+03	-1.325E+02	-2.251E+04	 2.077E+04	 1.355E+05	 2.799E+03	 1.395E+03	-6.445E+01	-9.043E+03	 9.135E+03	-6.290E+04	 2.799E+03	-2.251E+04	 5.730E+00	 1.012E+01	-1.088E+00	 1.048E+06	 2.436E+03	 2.062E+08	-9.523E+06	-4.110E+06	-2.686E+05
    1.9000	 3.000E+00	 2.106E-07	 0.000E+00	 7.999E+00	 0.000E+00	 0.000E+00	 2.066E+01	 1.303E-01	-3.682E-01	 2.800E-01	 2.732E+00	 4.078E-01	 2.577E-01	 4.624E-03	 1.229E-01	 5.730E+00	 8.399E+03	 1.730E+03	 0.000E+00	 5.730E+00	 1.872E+03	-1.332E+02	-2.252E+04	 2.075E+04	 1.396E+05	 3.063E+03	 1.417E+03	-6.499E+01	-9.047E+03	 9.036E+03	-6.288E+04	 3.063E+03	-2.252E+04	 5.730E+00	 1.014E+01	-1.101E+00	 1.274E+06	 2.542E+03	 2.063E+08	-9.507E+06	-1.366E+07	-4.008E+05
    2.0000	 3.000E+00	 2.256E-07	 0.000E+00	 7.999E+00	 0.000E+00	 0.000E+00	 2.064E+01	 1.304E-01	-3.655E-01	 2.799E-01	 2.763E+00	 4.077E-01	 2.309E-01	 5.041E-03	 1.257E-01	 5.730E+00	 8.313E+03	 1.739E+03	 0.000E+00	 5.730E+00	 1.912E+03	-1.335E+02	-2.254E+04	 2.072E+04	 1.438E+05	 3.279E+03	 1.441E+03	-6.509E+01	-9.052E+03	 8.973E+03	-6.303E+04	 3.279E+03	-2.254E+04	 5.730E+00	 1.014E+01	-1.114E+00	 1.494E+06	 2.515E+03	 2.064E+08	-9.480E+06	-2.326E+07	-5.134E+05
    2.1000	 3.000E+00	 2.413E-07	 0.000E+00	 7.999E+00	 0.000E+00	 0.000E+00	 2.063E+01	 1.304E-01	-3.620E-01	 2.798E-01	 2.796E+00	 4.076E-01	 2.001E-01	 5.646E-03	 1.270E-01	 5.730E+00	 8.258E+03	 1.751E+03	 0.000E+00	 5.730E+00	 1.961E+03	-1.336E+02	-2.255E+04	 2.068E+04	 1.490E+05	 3.428E+03	 1.472E+03	-6.488E+01	-9.056E+03	 8.933E+03	-6.323E+04	 3.428E+03	-2.255E+04	 5.730E+00	 1.014E+01	-1.124E+00	 1.667E+06	 2.389E+03	 2.065E+08	-9.444E+06	-3.360E+07	-5.993E+05
    2.2000	 3.000E+00	 2.590E-07	 0.000E+00	 7.999E+00	 0.000E+00	 0.000E+00	 2.062E+01	 1.304E-01	-3.573E-01	 2.796E-01	 2.829E+00	 4.075E-01	 1.697E-01	 6.348E-03	 1.282E-01	 5.730E+00	 8.222E+03	 1.764E+03	 0.000E+00	 5.730E+00	 2.012E+03	-1.336E+02	-2.256E+04	 2.062E+04	 1.543E+05	 3.517E+03	 1.503E+03	-6.447E+01	-9.060E+03	 8.904E+03	-6.344E+04	 3.517E+03	-2.256E+04	 5.730E+00	 1.013E+01	-1.134E+00	 1.836E+06	 2.212E+03	 2.066E+08	-9.400E+06	-4.395E+07	-6.602E+05
    2.3000	 3.000E+00	 2.784E-07	 0.000E+00	 7.999E+00	 0.000E+00	 0.000E+00	 2.060E+01	 1.305E-01	-3.517E-01	 2.795E-01	 2.862E+00	 4.074E-01	 1.355E-01	 7.113E-03	 1.279E-01	 5.730E+00	 8.196E+03	 1.779E+03	 0.000E+00	 5.730E+00	 2.070E+03	-1.336E+02	-2.257E+04	 2.057E+04	 1.603E+05	 3.559E+03	 1.538E+03	-6.401E+01	-9.062E+03	 8.880E+03	-6.359E+04	 3.559E+03	-2.257E+04	 5.730E+00	 1.013E+01	-1.143E+00	 1.960E+06	 2.021E+03	 2.067E+08	-9.353E+06	-5.485E+07	-7.023E+05
    2.4000	 3.000E+00	 3.005E-07	 0.000E+00	 7.999E+00	 0.000E+00	 0.000E+00	 2.059E+01	 1.305E-01	-3.449E-01	 2.793E-01	 2.896E+00	 4.074E-01	 1.017E-01	 7.865E-03	 1.276E-01	 5.730E+00	 8.175E+03	 1.795E+03	 0.000E+00	 5.730E+00	 2.129E+03	-1.335E+02	-2.258E+04	 2.052E+04	 1.664E+05	 3.569E+03	 1.574E+03	-6.355E+01	-9.065E+03	 8.857E+03	-6.370E+04	 3.569E+03	-2.258E+04	 5.730E+00	 1.013E+01	-1.152E+00	 2.080E+06	 1.837E+03	 2.068E+08	-9.306E+06	-6.575E+07	-7.319E+05
    2.5000	 3.000E+00	 3.251E-07	 0.000E+00	 7.999E+00	 0.000E+00	 0.000E+00	 2.058E+01	 1.306E-01	-3.369E-01	 2.791E-01	 2.929E+00	 4.073E-01	 6.473E-02	 8.600E-03	 1.258E-01	 5.730E+00	 8.157E+03	 1.811E+03	 0.000E+00	 5.730E+00	 2.194E+03	-1.335E+02	-2.258E+04	 2.047E+04	 1.732E+05	 3.552E+03	 1.612E+03	-6.313E+01	-9.066E+03	 8.836E+03	-6.374E+04	 3.552E+03	-2.258E+04	 5.730E+00	 1.013E+01	-1.160E+00	 2.156E+06	 1.668E+03	 2.069E+08	-9.259E+06	-7.699E+07	-7.504E+05
    2.6000	 3.000E+00	 3.528E-07	 0.000E+00	 7.999E+00	 0.000E+00	 0.000E+00	 2.057E+01	 1.306E-01	-3.278E-01	 2.788E-01	 2.963E+00	 4.073E-01	 2.820E-02	 9.272E-03	 1.239E-01	 5.730E+00	 8.145E+03	 1.828E+03	 0.000E+00	 5.730E+00	 2.258E+03	-1.335E+02	-2.259E+04	 2.043E+04	 1.800E+05	 3.516E+03	 1.650E+03	-6.276E+01	-9.067E+03	 8.818E+03	-6.373E+04	 3.516E+03	-2.259E+04	 5.730E+00	 1.012E+01	-1.167E+00	 2.230E+06	 1.518E+03	 2.069E+08	-9.215E+06	-8.822E+07	-7.621E+05
    2.7000	 3.000E+00	 3.837E-07	 0.000E+00	 7.999E+00	 0.000E+00	 0.000E+00	 2.056E+01	 1.307E-01	-3.174E-01	 2.785E-01	 2.997E+00	 4.073E-01	-1.048E-02	 9.887E-03	 1.205E-01	 5.730E+00	 8.139E+03	 1.846E+03	 0.000E+00	 5.730E+00	 2.328E+03	-1.335E+02	-2.259E+04	 2.040E+04	 1.872E+05	 3.467E+03	 1.691E+03	-6.245E+01	-9.067E+03	 8.806E+03	-6.366E+04	 3.467E+03	-2.259E+04	 5.730E+00	 1.011E+01	-1.174E+00	 2.262E+06	 1.383E+03	 2.070E+08	-9.173E+06	-9.960E+07	-7.677E+05
    2.8000	 3.000E+00	 4.177E-07	 0.000E+00	 7.999E+00	 0.000E+00	 0.000E+00	 2.055E+01	 1.308E-01	-3.058E-01	 2.782E-01	 3.030E+00	 4.074E-01	-4.858E-02	 1.040E-02	 1.171E-01	 5.730E+00	 8.144E+03	 1.864E+03	 0.000E+00	 5.730E+00	 2.397E+03	-1.335E+02	-2.259E+04	 2.039E+04	 1.945E+05	 3.418E+03	 1.731E+03	-6.218E+01	-9.067E+03	 8.804E+03	-6.355E+04	 3.418E+03	-2.259E+04	 5.729E+00	 1.010E+01	-1.181E+00	 2.293E+06	 1.260E+03	 2.070E+08	-9.137E+06	-1.110E+08	-7.742E+05
    2.9000	 3.000E+00	 4.544E-07	 0.000E+00	 7.999E+00	 0.000E+00	 0.000E+00	 2.055E+01	 1.308E-01	-2.930E-01	 2.779E-01	 3.062E+00	 4.074E-01	-8.788E-02	 1.084E-02	 1.122E-01	 5.730E+00	 8.158E+03	 1.883E+03	 0.000E+00	 5.730E+00	 2.470E+03	-1.334E+02	-2.259E+04	 2.038E+04	 2.022E+05	 3.362E+03	 1.773E+03	-6.194E+01	-9.066E+03	 8.811E+03	-6.340E+04	 3.362E+03	-2.259E+04	 5.729E+00	 1.008E+01	-1.185E+00	 2.285E+06	 1.145E+03	 2.070E+08	-9.104E+06	-1.223E+08	-7.768E+05
    3.0000	 3.000E+00	 4.937E-07	 0.000E+00	 7.999E+00	 0.000E+00	 0.000E+00	 2.054E+01	 1.309E-01	-2.789E-01	 2.775E-01	 3.094E+00	 4.075E-01	-1.266E-01	 1.121E-02	 1.073E-01	 5.730E+00	 8.182E+03	 1.903E+03	 0.000E+00	 5.730E+00	 2.542E+03	-1.334E+02	-2.259E+04	 2.038E+04	 2.098E+05	 3.288E+03	 1.816E+03	-6.172E+01	-9.064E+03	 8.826E+03	-6.322E+04	 3.288E+03	-2.259E+04	 5.729E+00	 1.005E+01	-1.189E+00	 2.277E+06	 1.038E+03	 2.070E+08	-9.073E+06	-1.336E+08	-7.707E+05
    3.1000	 3.000E+00	 5.355E-07	 0.000E+00	 7.999E+00	 0.000E+00	 0.000E+00	 2.054E+01	 1.310E-01	-2.635E-01	 2.770E-01	 3.125E+00	 4.075E-01	-1.658E-01	 1.152E-02	 1.010E-01	 5.730E+00	 8.215E+03	 1.922E+03	 0.000E+00	 5.730E+00	 2.617E+03	-1.332E+02	-2.258E+04	 2.038E+04	 2.176E+05	 3.197E+03	 1.858E+03	-6.153E+01	-9.061E+03	 8.849E+03	-6.299E+04	 3.197E+03	-2.258E+04	 5.729E+00	 1.003E+01	-1.189E+00	 2.234E+06	 9.403E+02	 2.070E+08	-9.045E+06	-1.446E+08	-7.557E+05
    3.2000	 3.000E+00	 5.790E-07	 0.000E+00	 7.999E+00	 0.000E+00	 0.000E+00	 2.053E+01	 1.311E-01	-2.469E-01	 2.765E-01	 3.155E+00	 4.076E-01	-2.043E-01	 1.175E-02	 9.461E-02	 5.730E+00	 8.256E+03	 1.942E+03	 0.000E+00	 5.730E+00	 2.690E+03	-1.331E+02	-2.258E+04	 2.039E+04	 2.254E+05	 3.093E+03	 1.901E+03	-6.136E+01	-9.059E+03	 8.879E+03	-6.273E+04	 3.093E+03	-2.258E+04	 5.729E+00	 9.998E+00	-1.190E+00	 2.191E+06	 8.502E+02	 2.069E+08	-9.020E+06	-1.556E+08	-7.334E+05
    3.3000	 3.000E+00	 6.239E-07	 0.000E+00	 7.999E+00	 0.000E+00	 0.000E+00	 2.053E+01	 1.312E-01	-2.290E-01	 2.760E-01	 3.184E+00	 4.077E-01	-2.424E-01	 1.191E-02	 8.694E-02	 5.730E+00	 8.308E+03	 1.963E+03	 0.000E+00	 5.730E+00	 2.765E+03	-1.329E+02	-2.257E+04	 2.041E+04	 2.332E+05	 2.976E+03	 1.944E+03	-6.121E+01	-9.055E+03	 8.918E+03	-6.243E+04	 2.976E+03	-2.257E+04	 5.729E+00	 9.965E+00	-1.184E+00	 2.116E+06	 7.672E+02	 2.069E+08	-8.998E+06	-1.661E+08	-7.036E+05
    3.4000	 3.000E+00	 6.696E-07	 0.000E+00	 7.999E+00	 0.000E+00	 0.000E+00	 2.053E+01	 1.313E-01	-2.100E-01	 2.754E-01	 3.212E+00	 4.079E-01	-2.799E-01	 1.198E-02	 7.925E-02	 5.730E+00	 8.369E+03	 1.983E+03	 0.000E+00	 5.730E+00	 2.838E+03	-1.327E+02	-2.256E+04	 2.044E+04	 2.410E+05	 2.854E+03	 1.986E+03	-6.108E+01	-9.051E+03	 8.966E+03	-6.211E+04	 2.854E+03	-2.256E+04	 5.729E+00	 9.928E+00	-1.178E+00	 2.043E+06	 6.905E+02	 2.068E+08	-8.980E+06	-1.766E+08	-6.692E+05
    3.5000	 3.000E+00	 7.153E-07	 0.000E+00	 7.999E+00	 0.000E+00	 0.000E+00	 2.053E+01	 1.314E-01	-1.897E-01	 2.748E-01	 3.238E+00	 4.080E-01	-3.162E-01	 1.196E-02	 7.035E-02	 5.730E+00	 8.441E+03	 2.004E+03	 0.000E+00	 5.730E+00	 2.911E+03	-1.324E+02	-2.255E+04	 2.048E+04	 2.487E+05	 2.725E+03	 2.028E+03	-6.096E+01	-9.046E+03	 9.025E+03	-6.174E+04	 2.725E+03	-2.255E+04	 5.729E+00	 9.888E+00	-1.165E+00	 1.940E+06	 6.203E+02	 2.067E+08	-8.965E+06	-1.865E+08	-6.294E+05
    3.6000	 3.000E+00	 7.609E-07	 0.000E+00	 7.999E+00	 0.000E+00	 0.000E+00	 2.053E+01	 1.315E-01	-1.684E-01	 2.742E-01	 3.263E+00	 4.081E-01	-3.518E-01	 1.186E-02	 6.143E-02	 5.730E+00	 8.524E+03	 2.024E+03	 0.000E+00	 5.730E+00	 2.983E+03	-1.321E+02	-2.254E+04	 2.052E+04	 2.564E+05	 2.596E+03	 2.070E+03	-6.087E+01	-9.040E+03	 9.094E+03	-6.136E+04	 2.596E+03	-2.254E+04	 5.729E+00	 9.844E+00	-1.151E+00	 1.840E+06	 5.557E+02	 2.066E+08	-8.954E+06	-1.963E+08	-5.867E+05
    3.7000	 3.000E+00	 8.049E-07	 0.000E+00	 7.999E+00	 0.000E+00	 0.000E+00	 2.053E+01	 1.316E-01	-1.459E-01	 2.735E-01	 3.286E+00	 4.082E-01	-3.854E-01	 1.166E-02	 5.144E-02	 5.730E+00	 8.618E+03	 2.044E+03	 0.000E+00	 5.730E+00	 3.053E+03	-1.317E+02	-2.253E+04	 2.057E+04	 2.638E+05	 2.468E+03	 2.110E+03	-6.077E+01	-9.034E+03	 9.174E+03	-6.094E+04	 2.468E+03	-2.253E+04	 5.729E+00	 9.797E+00	-1.128E+00	 1.712E+06	 4.972E+02	 2.065E+08	-8.948E+06	-2.052E+08	-5.413E+05
    3.8000	 3.000E+00	 8.478E-07	 0.000E+00	 7.999E+00	 0.000E+00	 0.000E+00	 2.053E+01	 1.317E-01	-1.224E-01	 2.727E-01	 3.307E+00	 4.084E-01	-4.183E-01	 1.137E-02	 4.144E-02	 5.730E+00	 8.722E+03	 2.065E+03	 0.000E+00	 5.730E+00	 3.121E+03	-1.313E+02	-2.251E+04	 2.064E+04	 2.712E+05	 2.342E+03	 2.150E+03	-6.070E+01	-9.028E+03	 9.265E+03	-6.051E+04	 2.342E+03	-2.251E+04	 5.729E+00	 9.748E+00	-1.104E+00	 1.588E+06	 4.430E+02	 2.064E+08	-8.945E+06	-2.142E+08	-4.946E+05
    3.9000	 3.000E+00	 8.878E-07	 0.000E+00	 7.999E+00	 0.000E+00	 0.000E+00	 2.054E+01	 1.318E-01	-9.786E-02	 2.719E-01	 3.327E+00	 4.085E-01	-4.487E-01	 1.097E-02	 3.054E-02	 5.730E+00	 8.837E+03	 2.084E+03	 0.000E+00	 5.730E+00	 3.187E+03	-1.308E+02	-2.249E+04	 2.070E+04	 2.782E+05	 2.224E+03	 2.187E+03	-6.063E+01	-9.021E+03	 9.368E+03	-6.005E+04	 2.224E+03	-2.249E+04	 5.729E+00	 9.696E+00	-1.070E+00	 1.437E+06	 3.936E+02	 2.062E+08	-8.948E+06	-2.221E+08	-4.480E+05
    4.0000	 3.000E+00	 9.253E-07	 0.000E+00	 7.999E+00	 0.000E+00	 0.000E+00	 2.054E+01	 1.319E-01	-7.243E-02	 2.711E-01	 3.345E+00	 4.087E-01	-4.782E-01	 1.049E-02	 1.964E-02	 5.730E+00	 8.962E+03	 2.104E+03	 0.000E+00	 5.730E+00	 3.251E+03	-1.303E+02	-2.248E+04	 2.078E+04	 2.851E+05	 2.114E+03	 2.225E+03	-6.058E+01	-9.013E+03	 9.482E+03	-5.958E+04	 2.114E+03	-2.248E+04	 5.729E+00	 9.643E+00	-1.035E+00	 1.290E+06	 3.487E+02	 2.061E+08	-8.954E+06	-2.299E+08	-4.021E+05
    4.1000	 3.000E+00	 9.588E-07	 0.000E+00	 7.999E+00	 0.000E+00	 0.000E+00	 2.054E+01	 1.321E-01	-4.615E-02	 2.702E-01	 3.360E+00	 4.088E-01	-5.046E-01	 9.894E-03	 8.025E-03	 5.730E+00	 9.095E+03	 2.123E+03	 0.000E+00	 5.730E+00	 3.311E+03	-1.297E+02	-2.246E+04	 2.087E+04	 2.916E+05	 2.021E+03	 2.259E+03	-6.054E+01	-9.005E+03	 9.607E+03	-5.911E+04	 2.021E+03	-2.246E+04	 5.729E+00	 9.589E+00	-9.888E-01	 1.120E+06	 3.112E+02	 2.059E+08	-8.966E+06	-2.366E+08	-3.603E+05
    4.2000	 3.000E+00	 9.891E-07	 0.000E+00	 7.999E+00	 0.000E+00	 0.000E+00	 2.055E+01	 1.322E-01	-1.910E-02	 2.693E-01	 3.374E+00	 4.090E-01	-5.303E-01	 9.211E-03	-3.563E-03	 5.730E+00	 9.237E+03	 2.142E+03	 0.000E+00	 5.730E+00	 3.370E+03	-1.290E+02	-2.244E+04	 2.096E+04	 2.979E+05	 1.948E+03	 2.293E+03	-6.052E+01	-8.997E+03	 9.742E+03	-5.862E+04	 1.948E+03	-2.244E+04	 5.728E+00	 9.535E+00	-9.424E-01	 9.534E+05	 2.807E+02	 2.058E+08	-8.983E+06	-2.432E+08	-3.253E+05
    4.3000	 3.000E+00	 1.013E-06	 0.000E+00	 7.999E+00	 0.000E+00	 0.000E+00	 2.055E+01	 1.324E-01	 8.637E-03	 2.684E-01	 3.385E+00	 4.091E-01	-5.522E-01	 8.419E-03	-1.566E-02	 5.730E+00	 9.387E+03	 2.159E+03	 0.000E+00	 5.730E+00	 3.423E+03	-1.283E+02	-2.242E+04	 2.106E+04	 3.036E+05	 1.894E+03	 2.324E+03	-6.050E+01	-8.989E+03	 9.887E+03	-5.814E+04	 1.894E+03	-2.242E+04	 5.728E+00	 9.479E+00	-8.843E-01	 7.659E+05	 2.571E+02	 2.056E+08	-9.004E+06	-2.485E+08	-2.952E+05
    4.4000	 3.000E+00	 1.034E-06	 0.000E+00	 7.999E+00	 0.000E+00	 0.000E+00	 2.056E+01	 1.325E-01	 3.698E-02	 2.674E-01	 3.394E+00	 4.092E-01	-5.734E-01	 7.553E-03	-2.770E-02	 5.730E+00	 9.545E+03	 2.176E+03	 0.000E+00	 5.730E+00	 3.474E+03	-1.275E+02	-2.239E+04	 2.116E+04	 3.092E+05	 1.852E+03	 2.353E+03	-6.050E+01	-8.980E+03	 1.004E+04	-5.765E+04	 1.852E+03	-2.239E+04	 5.728E+00	 9.420E+00	-8.261E-01	 5.821E+05	 2.413E+02	 2.054E+08	-9.030E+06	-2.538E+08	-2.689E+05
    4.5000	 3.000E+00	 1.048E-06	 0.000E+00	 7.999E+00	 0.000E+00	 0.000E+00	 2.056E+01	 1.326E-01	 6.583E-02	 2.664E-01	 3.401E+00	 4.094E-01	-5.902E-01	 6.589E-03	-3.999E-02	 5.730E+00	 9.713E+03	 2.192E+03	 0.000E+00	 5.730E+00	 3.519E+03	-1.267E+02	-2.237E+04	 2.128E+04	 3.141E+05	 1.805E+03	 2.380E+03	-6.050E+01	-8.971E+03	 1.021E+04	-5.718E+04	 1.805E+03	-2.237E+04	 5.728E+00	 9.361E+00	-7.570E-01	 3.803E+05	 2.326E+02	 2.052E+08	-9.059E+06	-2.576E+08	-2.370E+05
    4.6000	 3.000E+00	 1.058E-06	 0.000E+00	 7.999E+00	 0.000E+00	 0.000E+00	 2.057E+01	 1.328E-01	 9.509E-02	 2.654E-01	 3.406E+00	 4.095E-01	-6.062E-01	 5.543E-03	-5.220E-02	 5.730E+00	 9.888E+03	 2.208E+03	 0.000E+00	 5.730E+00	 3.562E+03	-1.259E+02	-2.235E+04	 2.140E+04	 3.188E+05	 1.762E+03	 2.405E+03	-6.053E+01	-8.962E+03	 1.038E+04	-5.669E+04	 1.762E+03	-2.235E+04	 5.728E+00	 9.305E+00	-6.879E-01	 1.821E+05	 2.399E+02	 2.050E+08	-9.094E+06	-2.614E+08	-2.055E+05
    4.7000	 3.000E+00	 1.061E-06	 0.000E+00	 7.999E+00	 0.000E+00	 0.000E+00	 2.058E+01	 1.329E-01	 1.247E-01	 2.644E-01	 3.408E+00	 4.097E-01	-6.177E-01	 4.377E-03	-6.444E-02	 5.730E+00	 1.007E+04	 2.221E+03	 0.000E+00	 5.730E+00	 3.598E+03	-1.250E+02	-2.232E+04	 2.152E+04	 3.227E+05	 1.724E+03	 2.425E+03	-6.061E+01	-8.953E+03	 1.055E+04	-5.621E+04	 1.724E+03	-2.232E+04	 5.728E+00	 9.251E+00	-6.096E-01	-3.016E+04	 2.745E+02	 2.048E+08	-9.134E+06	-2.637E+08	-1.734E+05
    4.8000	 3.000E+00	 1.059E-06	 0.000E+00	 7.999E+00	 0.000E+00	 0.000E+00	 2.058E+01	 1.331E-01	 1.545E-01	 2.633E-01	 3.408E+00	 4.098E-01	-6.286E-01	 3.110E-03	-7.659E-02	 5.730E+00	 1.024E+04	 2.234E+03	 0.000E+00	 5.730E+00	 3.631E+03	-1.242E+02	-2.230E+04	 2.166E+04	 3.264E+05	 1.696E+03	 2.445E+03	-6.082E+01	-8.944E+03	 1.073E+04	-5.570E+04	 1.696E+03	-2.230E+04	 5.728E+00	 9.201E+00	-5.313E-01	-2.389E+05	 3.520E+02	 2.046E+08	-9.180E+06	-2.660E+08	-1.444E+05
    4.9000	 3.000E+00	 1.051E-06	 0.000E+00	 7.999E+00	 0.000E+00	 0.000E+00	 2.059E+01	 1.332E-01	 1.844E-01	 2.622E-01	 3.405E+00	 4.099E-01	-6.347E-01	 1.691E-03	-8.853E-02	 5.730E+00	 1.042E+04	 2.244E+03	 0.000E+00	 5.730E+00	 3.656E+03	-1.234E+02	-2.228E+04	 2.181E+04	 3.293E+05	 1.683E+03	 2.459E+03	-6.116E+01	-8.934E+03	 1.090E+04	-5.516E+04	 1.683E+03	-2.228E+04	 5.728E+00	 9.155E+00	-4.463E-01	-4.568E+05	 4.875E+02	 2.043E+08	-9.234E+06	-2.666E+08	-1.195E+05
    5.0000	 3.000E+00	 1.038E-06	 0.000E+00	 7.999E+00	 0.000E+00	 0.000E+00	 2.059E+01	 1.334E-01	 2.143E-01	 2.611E-01	 3.400E+00	 4.100E-01	-6.404E-01	 1.437E-04	-1.004E-01	 5.730E+00	 1.058E+04	 2.253E+03	 0.000E+00	 5.730E+00	 3.678E+03	-1.227E+02	-2.225E+04	 2.197E+04	 3.319E+05	 1.696E+03	 2.471E+03	-6.170E+01	-8.924E+03	 1.107E+04	-5.455E+04	 1.696E+03	-2.225E+04	 5.728E+00	 9.110E+00	-3.613E-01	-6.714E+05	 6.886E+02	 2.041E+08	-9.296E+06	-2.672E+08	-1.059E+05
    5.1000	 3.000E+00	 1.018E-06	 0.000E+00	 7.999E+00	 0.000E+00	 0.000E+00	 2.060E+01	 1.335E-01	 2.441E-01	 2.601E-01	 3.393E+00	 4.102E-01	-6.411E-01	-1.566E-03	-1.118E-01	 5.730E+00	 1.073E+04	 2.258E+03	 0.000E+00	 5.730E+00	 3.691E+03	-1.221E+02	-2.222E+04	 2.213E+04	 3.336E+05	 1.755E+03	 2.477E+03	-6.238E+01	-8.914E+03	 1.124E+04	-5.392E+04	 1.755E+03	-2.222E+04	 5.728E+00	 9.063E+00	-2.725E-01	-8.893E+05	 9.458E+02	 2.039E+08	-9.367E+06	-2.662E+08	-1.110E+05
    5.2000	 3.000E+00	 9.943E-07	 0.000E+00	 7.999E+00	 0.000E+00	 0.000E+00	 2.060E+01	 1.337E-01	 2.737E-01	 2.590E-01	 3.383E+00	 4.103E-01	-6.412E-01	-3.356E-03	-1.230E-01	 5.730E+00	 1.089E+04	 2.263E+03	 0.000E+00	 5.730E+00	 3.702E+03	-1.215E+02	-2.220E+04	 2.231E+04	 3.351E+05	 1.867E+03	 2.482E+03	-6.309E+01	-8.905E+03	 1.141E+04	-5.330E+04	 1.867E+03	-2.220E+04	 5.728E+00	 9.004E+00	-1.838E-01	-1.105E+06	 1.213E+03	 2.037E+08	-9.445E+06	-2.652E+08	-1.405E+05
    5.3000	 3.000E+00	 9.659E-07	 0.000E+00	 7.999E+00	 0.000E+00	 0.000E+00	 2.061E+01	 1.338E-01	 3.030E-01	 2.579E-01	 3.371E+00	 4.104E-01	-6.354E-01	-5.146E-03	-1.335E-01	 5.730E+00	 1.107E+04	 2.267E+03	 0.000E+00	 5.730E+00	 3.705E+03	-1.206E+02	-2.218E+04	 2.249E+04	 3.355E+05	 2.020E+03	 2.483E+03	-6.356E+01	-8.896E+03	 1.161E+04	-5.284E+04	 2.020E+03	-2.218E+04	 5.728E+00	 8.929E+00	-9.474E-02	-1.317E+06	 1.413E+03	 2.035E+08	-9.523E+06	-2.626E+08	-1.877E+05
    5.4000	 3.000E+00	 9.337E-07	 0.000E+00	 7.999E+00	 0.000E+00	 0.000E+00	 2.061E+01	 1.339E-01	 3.318E-01	 2.569E-01	 3.357E+00	 4.105E-01	-6.286E-01	-6.771E-03	-1.438E-01	 5.730E+00	 1.129E+04	 2.274E+03	 0.000E+00	 5.730E+00	 3.707E+03	-1.194E+02	-2.215E+04	 2.265E+04	 3.359E+05	 2.167E+03	 2.486E+03	-6.360E+01	-8.888E+03	 1.185E+04	-5.260E+04	 2.167E+03	-2.215E+04	 5.728E+00	 8.840E+00	-5.716E-03	-1.527E+06	 1.481E+03	 2.032E+08	-9.594E+06	-2.600E+08	-2.343E+05
    5.5000	 3.000E+00	 8.965E-07	 0.000E+00	 7.999E+00	 0.000E+00	 0.000E+00	 2.061E+01	 1.340E-01	 3.601E-01	 2.559E-01	 3.340E+00	 4.107E-01	-6.154E-01	-8.197E-03	-1.530E-01	 5.730E+00	 1.156E+04	 2.280E+03	 0.000E+00	 5.730E+00	 3.701E+03	-1.178E+02	-2.213E+04	 2.279E+04	 3.353E+05	 2.266E+03	 2.485E+03	-6.312E+01	-8.882E+03	 1.212E+04	-5.258E+04	 2.266E+03	-2.213E+04	 5.728E+00	 8.745E+00	 7.999E-02	-1.728E+06	 1.404E+03	 2.030E+08	-9.654E+06	-2.559E+08	-2.603E+05
    5.6000	 3.000E+00	 8.582E-07	 0.000E+00	 7.999E+00	 0.000E+00	 0.000E+00	 2.062E+01	 1.341E-01	 3.878E-01	 2.549E-01	 3.322E+00	 4.108E-01	-6.015E-01	-9.398E-03	-1.619E-01	 5.730E+00	 1.185E+04	 2.287E+03	 0.000E+00	 5.730E+00	 3.695E+03	-1.160E+02	-2.211E+04	 2.291E+04	 3.346E+05	 2.301E+03	 2.484E+03	-6.227E+01	-8.875E+03	 1.242E+04	-5.266E+04	 2.301E+03	-2.211E+04	 5.728E+00	 8.653E+00	 1.657E-01	-1.927E+06	 1.220E+03	 2.028E+08	-9.702E+06	-2.518E+08	-2.591E+05
    5.7000	 3.000E+00	 8.161E-07	 0.000E+00	 7.999E+00	 0.000E+00	 0.000E+00	 2.062E+01	 1.343E-01	 4.148E-01	 2.539E-01	 3.301E+00	 4.109E-01	-5.816E-01	-1.045E-02	-1.696E-01	 5.730E+00	 1.215E+04	 2.293E+03	 0.000E+00	 5.730E+00	 3.679E+03	-1.141E+02	-2.209E+04	 2.301E+04	 3.328E+05	 2.281E+03	 2.478E+03	-6.116E+01	-8.869E+03	 1.271E+04	-5.282E+04	 2.281E+03	-2.209E+04	 5.728E+00	 8.567E+00	 2.446E-01	-2.107E+06	 9.778E+02	 2.026E+08	-9.741E+06	-2.463E+08	-2.344E+05
    5.8000	 3.000E+00	 7.741E-07	 0.000E+00	 7.999E+00	 0.000E+00	 0.000E+00	 2.062E+01	 1.343E-01	 4.409E-01	 2.530E-01	 3.278E+00	 4.111E-01	-5.617E-01	-1.138E-02	-1.772E-01	 5.730E+00	 1.245E+04	 2.298E+03	 0.000E+00	 5.730E+00	 3.662E+03	-1.121E+02	-2.207E+04	 2.309E+04	 3.309E+05	 2.220E+03	 2.472E+03	-5.995E+01	-8.863E+03	 1.300E+04	-5.298E+04	 2.220E+03	-2.207E+04	 5.728E+00	 8.488E+00	 3.235E-01	-2.286E+06	 7.163E+02	 2.024E+08	-9.774E+06	-2.408E+08	-1.925E+05
    5.9000	 3.000E+00	 7.311E-07	 0.000E+00	 7.999E+00	 0.000E+00	 0.000E+00	 2.062E+01	 1.344E-01	 4.661E-01	 2.521E-01	 3.254E+00	 4.113E-01	-5.360E-01	-1.228E-02	-1.833E-01	 5.730E+00	 1.274E+04	 2.300E+03	 0.000E+00	 5.730E+00	 3.634E+03	-1.102E+02	-2.205E+04	 2.316E+04	 3.280E+05	 2.131E+03	 2.459E+03	-5.873E+01	-8.858E+03	 1.328E+04	-5.314E+04	 2.131E+03	-2.205E+04	 5.728E+00	 8.417E+00	 3.924E-01	-2.438E+06	 4.634E+02	 2.022E+08	-9.805E+06	-2.339E+08	-1.385E+05
    6.0000	 3.000E+00	 6.885E-07	 0.000E+00	 7.999E+00	 0.000E+00	 0.000E+00	 2.061E+01	 1.345E-01	 4.902E-01	 2.513E-01	 3.228E+00	 4.115E-01	-5.106E-01	-1.313E-02	-1.893E-01	 5.730E+00	 1.302E+04	 2.301E+03	 0.000E+00	 5.730E+00	 3.604E+03	-1.083E+02	-2.204E+04	 2.323E+04	 3.250E+05	 2.027E+03	 2.446E+03	-5.755E+01	-8.852E+03	 1.354E+04	-5.328E+04	 2.027E+03	-2.204E+04	 5.729E+00	 8.352E+00	 4.613E-01	-2.588E+06	 2.274E+02	 2.020E+08	-9.835E+06	-2.270E+08	-7.885E+04
