
Predictions were generated on 23-Dec-2024 at 07:54:09 using OpenFAST, compiled on Dec 23 2024 at 07:31:53 as a 64-bit application using double precision at commit -128-NOTFOUND
 linked with  NWTC Subroutine Library; ElastoDyn; InflowWind; AeroDyn; SeaState; HydroDyn

Description from the FAST input file: IEA 15 MW offshore reference model on UMaine VolturnUS-S semi-submersible floating platform

Time	Wind1VelX	Wind1VelY	Wind1VelZ	PtfmSurge	PtfmSway	PtfmHeave	PtfmRoll	PtfmPitch	PtfmYaw	NcIMUTAxs	NcIMUTAys	NcIMUTAzs	RotSpeed	RotTorq	RotThrust	BldPitch1	GenSpeed	TwrBsFxt	TwrBsFyt	TwrBsFzt	TwrBsMxt	TwrBsMyt	TwrBsMzt	YawBrFxp	YawBrFyp	YawBrFzp	YawBrMxp	YawBrMyp	YawBrMzp	TwrBsFzt	RtSpeed	RtTSR	Wave1Elev	HydroFxi	HydroFyi	HydroFzi	HydroMxi	HydroMyi	HydroMzi
(s)	(m/s)	(m/s)	(m/s)	(m)	(m)	(m)	(deg)	(deg)	(deg)	(m/s^2)	(m/s^2)	(m/s^2)	(rpm)	(kN-m)	(kN)	(deg)	(rpm)	(kN)	(kN)	(kN)	(kN-m)	(kN-m)	(kN-m)	(kN)	(kN)	(kN)	(kN-m)	(kN-m)	(kN-m)	(kN)	(rpm)	(-)	(m)	(N)	(N)	(N)	(N-m)	(N-m)	(N-m)
    0.0000	 7.999E+00	 0.000E+00	 0.000E+00	 2.030E+01	-1.800E-01	-7.000E-01	-2.600E-01	-2.400E+00	 1.800E+02	-6.789E-01	-1.239E-03	 2.296E-01	 5.730E+00	 1.096E+04	 2.217E+03	 0.000E+00	 5.730E+00	-3.297E+03	 1.138E+02	-2.302E+04	-2.100E+04	-2.992E+05	 4.337E+02	-2.336E+03	 5.300E+01	-9.227E+03	-1.128E+04	 5.850E+04	 4.337E+02	-2.302E+04	 5.730E+00	 9.078E+00	-2.875E+00	-1.098E+06	 3.520E+03	 2.088E+08	-1.007E+07	-3.047E+08	-4.225E+05
    0.1000	 7.999E+00	 0.000E+00	 0.000E+00	 2.030E+01	-1.800E-01	-6.985E-01	-2.600E-01	-2.399E+00	 1.800E+02	-5.137E-01	-7.429E-04	 1.536E-01	 5.730E+00	 1.106E+04	 2.155E+03	 0.000E+00	 5.730E+00	-4.303E+03	 1.165E+02	-2.276E+04	-2.130E+04	-3.085E+05	 4.139E+02	-2.195E+03	 5.391E+01	-9.176E+03	-1.138E+04	 6.072E+04	 4.139E+02	-2.276E+04	 5.730E+00	 9.010E+00	-2.659E+00	 1.630E+07	-2.065E+04	 2.102E+08	-1.044E+07	-6.167E+08	-3.134E+06
    0.2000	 7.999E+00	 0.000E+00	 0.000E+00	 2.029E+01	-1.800E-01	-6.944E-01	-2.600E-01	-2.400E+00	 1.800E+02	-5.946E-01	-1.563E-03	 1.493E-01	 5.730E+00	 1.116E+04	 2.194E+03	 0.000E+00	 5.730E+00	-3.768E+03	 1.148E+02	-2.280E+04	-2.129E+04	-3.047E+05	 4.539E+02	-2.277E+03	 5.351E+01	-9.163E+03	-1.149E+04	 5.913E+04	 4.539E+02	-2.280E+04	 5.730E+00	 8.946E+00	-2.442E+00	 8.757E+06	-9.591E+03	 2.095E+08	-1.030E+07	-4.799E+08	-1.857E+06
    0.3000	 7.999E+00	 0.000E+00	 0.000E+00	 2.027E+01	-1.800E-01	-6.880E-01	-2.601E-01	-2.402E+00	 1.800E+02	-6.769E-01	-2.446E-03	 1.427E-01	 5.730E+00	 1.132E+04	 2.236E+03	 0.000E+00	 5.730E+00	-3.475E+03	 1.132E+02	-2.282E+04	-2.132E+04	-3.079E+05	 4.062E+02	-2.362E+03	 5.309E+01	-9.154E+03	-1.164E+04	 5.781E+04	 4.062E+02	-2.282E+04	 5.730E+00	 8.877E+00	-2.195E+00	 4.397E+06	-1.698E+03	 2.086E+08	-1.022E+07	-3.941E+08	-9.778E+05
    0.4000	 7.999E+00	 0.000E+00	 0.000E+00	 2.025E+01	-1.800E-01	-6.792E-01	-2.601E-01	-2.402E+00	 1.800E+02	-7.099E-01	-3.515E-03	 1.317E-01	 5.730E+00	 1.151E+04	 2.259E+03	 0.000E+00	 5.730E+00	-3.316E+03	 1.121E+02	-2.281E+04	-2.143E+04	-3.091E+05	 3.080E+02	-2.404E+03	 5.289E+01	-9.143E+03	-1.183E+04	 5.691E+04	 3.080E+02	-2.281E+04	 5.730E+00	 8.805E+00	-1.947E+00	 2.752E+06	 2.169E+03	 2.080E+08	-1.022E+07	-3.586E+08	-5.275E+05
    0.5000	 7.999E+00	 0.000E+00	 0.000E+00	 2.023E+01	-1.799E-01	-6.681E-01	-2.602E-01	-2.399E+00	 1.800E+02	-6.869E-01	-4.760E-03	 1.171E-01	 5.730E+00	 1.173E+04	 2.261E+03	 0.000E+00	 5.730E+00	-3.225E+03	 1.112E+02	-2.278E+04	-2.158E+04	-3.055E+05	 2.016E+02	-2.395E+03	 5.288E+01	-9.127E+03	-1.204E+04	 5.643E+04	 2.016E+02	-2.278E+04	 5.730E+00	 8.735E+00	-1.673E+00	 3.124E+06	 2.903E+03	 2.075E+08	-1.028E+07	-3.582E+08	-4.159E+05
    0.6000	 7.999E+00	 0.000E+00	 0.000E+00	 2.021E+01	-1.799E-01	-6.549E-01	-2.602E-01	-2.392E+00	 1.800E+02	-6.545E-01	-6.140E-03	 1.012E-01	 5.730E+00	 1.197E+04	 2.258E+03	 0.000E+00	 5.730E+00	-3.155E+03	 1.104E+02	-2.273E+04	-2.177E+04	-3.014E+05	 1.114E+02	-2.377E+03	 5.302E+01	-9.110E+03	-1.227E+04	 5.601E+04	 1.114E+02	-2.273E+04	 5.730E+00	 8.672E+00	-1.400E+00	 3.947E+06	 2.982E+03	 2.071E+08	-1.037E+07	-3.664E+08	-3.900E+05
    0.7000	 7.999E+00	 0.000E+00	 0.000E+00	 2.020E+01	-1.799E-01	-6.399E-01	-2.603E-01	-2.382E+00	 1.800E+02	-6.145E-01	-7.609E-03	 8.511E-02	 5.730E+00	 1.220E+04	 2.252E+03	 0.000E+00	 5.730E+00	-3.069E+03	 1.097E+02	-2.269E+04	-2.196E+04	-2.957E+05	 4.766E+01	-2.352E+03	 5.325E+01	-9.093E+03	-1.250E+04	 5.560E+04	 4.766E+01	-2.269E+04	 5.730E+00	 8.615E+00	-1.106E+00	 4.711E+06	 3.182E+03	 2.066E+08	-1.047E+07	-3.708E+08	-3.667E+05
    0.8000	 7.999E+00	 0.000E+00	 0.000E+00	 2.018E+01	-1.800E-01	-6.231E-01	-2.605E-01	-2.369E+00	 1.800E+02	-5.741E-01	-9.116E-03	 6.842E-02	 5.730E+00	 1.243E+04	 2.246E+03	 0.000E+00	 5.730E+00	-2.986E+03	 1.090E+02	-2.264E+04	-2.217E+04	-2.900E+05	 5.534E+00	-2.325E+03	 5.357E+01	-9.075E+03	-1.273E+04	 5.520E+04	 5.534E+00	-2.264E+04	 5.730E+00	 8.564E+00	-8.117E-01	 5.500E+06	 3.367E+03	 2.061E+08	-1.056E+07	-3.758E+08	-3.597E+05
    0.9000	 7.999E+00	 0.000E+00	 0.000E+00	 2.018E+01	-1.800E-01	-6.049E-01	-2.606E-01	-2.353E+00	 1.800E+02	-5.255E-01	-1.064E-02	 5.165E-02	 5.730E+00	 1.265E+04	 2.235E+03	 0.000E+00	 5.730E+00	-2.890E+03	 1.084E+02	-2.260E+04	-2.237E+04	-2.829E+05	-1.623E+01	-2.290E+03	 5.398E+01	-9.056E+03	-1.295E+04	 5.485E+04	-1.623E+01	-2.260E+04	 5.730E+00	 8.517E+00	-5.054E-01	 6.257E+06	 3.576E+03	 2.056E+08	-1.066E+07	-3.780E+08	-3.606E+05
    1.0000	 7.999E+00	 0.000E+00	 0.000E+00	 2.017E+01	-1.800E-01	-5.855E-01	-2.608E-01	-2.333E+00	 1.800E+02	-4.774E-01	-1.215E-02	 3.448E-02	 5.730E+00	 1.286E+04	 2.223E+03	 0.000E+00	 5.730E+00	-2.795E+03	 1.079E+02	-2.255E+04	-2.258E+04	-2.756E+05	-4.180E+01	-2.254E+03	 5.445E+01	-9.037E+03	-1.316E+04	 5.449E+04	-4.180E+01	-2.255E+04	 5.730E+00	 8.478E+00	-1.990E-01	 7.011E+06	 3.809E+03	 2.051E+08	-1.076E+07	-3.802E+08	-3.607E+05
    1.1000	 7.999E+00	 0.000E+00	 0.000E+00	 2.017E+01	-1.801E-01	-5.651E-01	-2.611E-01	-2.310E+00	 1.800E+02	-4.234E-01	-1.366E-02	 1.760E-02	 5.730E+00	 1.306E+04	 2.208E+03	 0.000E+00	 5.730E+00	-2.691E+03	 1.075E+02	-2.250E+04	-2.279E+04	-2.673E+05	-5.817E+01	-2.212E+03	 5.501E+01	-9.018E+03	-1.336E+04	 5.417E+04	-5.817E+01	-2.250E+04	 5.730E+00	 8.446E+00	 1.112E-01	 7.686E+06	 4.121E+03	 2.046E+08	-1.086E+07	-3.790E+08	-3.581E+05
    1.2000	 7.999E+00	 0.000E+00	 0.000E+00	 2.017E+01	-1.801E-01	-5.440E-01	-2.614E-01	-2.284E+00	 1.800E+02	-3.707E-01	-1.516E-02	 4.225E-04	 5.730E+00	 1.323E+04	 2.193E+03	 0.000E+00	 5.730E+00	-2.586E+03	 1.072E+02	-2.245E+04	-2.299E+04	-2.589E+05	-6.159E+01	-2.169E+03	 5.573E+01	-8.999E+03	-1.353E+04	 5.384E+04	-6.159E+01	-2.245E+04	 5.730E+00	 8.423E+00	 4.213E-01	 8.342E+06	 4.503E+03	 2.041E+08	-1.097E+07	-3.774E+08	-3.591E+05
    1.3000	 7.999E+00	 0.000E+00	 0.000E+00	 2.018E+01	-1.802E-01	-5.223E-01	-2.617E-01	-2.255E+00	 1.800E+02	-3.124E-01	-1.667E-02	-1.618E-02	 5.730E+00	 1.338E+04	 2.173E+03	 0.000E+00	 5.730E+00	-2.474E+03	 1.072E+02	-2.240E+04	-2.320E+04	-2.493E+05	-5.124E+01	-2.118E+03	 5.662E+01	-8.979E+03	-1.369E+04	 5.353E+04	-5.124E+01	-2.240E+04	 5.731E+00	 8.410E+00	 7.261E-01	 8.916E+06	 4.949E+03	 2.036E+08	-1.107E+07	-3.727E+08	-3.626E+05
    1.4000	 7.999E+00	 0.000E+00	 0.000E+00	 2.019E+01	-1.803E-01	-5.003E-01	-2.621E-01	-2.223E+00	 1.800E+02	-2.550E-01	-1.820E-02	-3.300E-02	 5.730E+00	 1.350E+04	 2.151E+03	 0.000E+00	 5.730E+00	-2.360E+03	 1.073E+02	-2.235E+04	-2.341E+04	-2.397E+05	-1.891E+01	-2.067E+03	 5.775E+01	-8.959E+03	-1.381E+04	 5.317E+04	-1.891E+01	-2.235E+04	 5.731E+00	 8.406E+00	 1.031E+00	 9.477E+06	 5.467E+03	 2.031E+08	-1.118E+07	-3.679E+08	-3.756E+05
    1.5000	 7.999E+00	 0.000E+00	 0.000E+00	 2.020E+01	-1.804E-01	-4.783E-01	-2.626E-01	-2.188E+00	 1.800E+02	-1.989E-01	-1.974E-02	-4.886E-02	 5.730E+00	 1.358E+04	 2.128E+03	 0.000E+00	 5.730E+00	-2.245E+03	 1.077E+02	-2.230E+04	-2.361E+04	-2.299E+05	 4.132E+01	-2.014E+03	 5.912E+01	-8.940E+03	-1.390E+04	 5.276E+04	 4.132E+01	-2.230E+04	 5.731E+00	 8.409E+00	 1.321E+00	 9.877E+06	 6.228E+03	 2.026E+08	-1.128E+07	-3.584E+08	-3.827E+05
    1.6000	 7.999E+00	 0.000E+00	 0.000E+00	 2.022E+01	-1.805E-01	-4.565E-01	-2.631E-01	-2.150E+00	 1.800E+02	-1.439E-01	-2.128E-02	-6.487E-02	 5.730E+00	 1.362E+04	 2.102E+03	 0.000E+00	 5.730E+00	-2.130E+03	 1.084E+02	-2.225E+04	-2.381E+04	-2.200E+05	 1.517E+02	-1.959E+03	 6.071E+01	-8.921E+03	-1.397E+04	 5.230E+04	 1.517E+02	-2.225E+04	 5.731E+00	 8.414E+00	 1.611E+00	 1.028E+07	 7.033E+03	 2.021E+08	-1.139E+07	-3.491E+08	-4.150E+05
    1.7000	 7.999E+00	 0.000E+00	 0.000E+00	 2.025E+01	-1.806E-01	-4.350E-01	-2.638E-01	-2.109E+00	 1.800E+02	-8.326E-02	-2.277E-02	-7.969E-02	 5.730E+00	 1.364E+04	 2.073E+03	 0.000E+00	 5.730E+00	-2.011E+03	 1.091E+02	-2.220E+04	-2.401E+04	-2.092E+05	 3.219E+02	-1.897E+03	 6.236E+01	-8.902E+03	-1.401E+04	 5.193E+04	 3.219E+02	-2.220E+04	 5.731E+00	 8.415E+00	 1.878E+00	 1.061E+07	 7.775E+03	 2.016E+08	-1.150E+07	-3.375E+08	-4.787E+05
    1.8000	 7.999E+00	 0.000E+00	 0.000E+00	 2.028E+01	-1.808E-01	-4.142E-01	-2.644E-01	-2.066E+00	 1.800E+02	-2.169E-02	-2.409E-02	-9.447E-02	 5.730E+00	 1.366E+04	 2.045E+03	 0.000E+00	 5.730E+00	-1.892E+03	 1.098E+02	-2.215E+04	-2.420E+04	-1.980E+05	 5.360E+02	-1.835E+03	 6.380E+01	-8.885E+03	-1.406E+04	 5.170E+04	 5.360E+02	-2.215E+04	 5.731E+00	 8.407E+00	 2.144E+00	 1.094E+07	 8.420E+03	 2.012E+08	-1.161E+07	-3.260E+08	-5.660E+05
    1.9000	 7.999E+00	 0.000E+00	 0.000E+00	 2.032E+01	-1.810E-01	-3.942E-01	-2.652E-01	-2.021E+00	 1.800E+02	 4.321E-02	-2.511E-02	-1.076E-01	 5.730E+00	 1.370E+04	 2.016E+03	 0.000E+00	 5.730E+00	-1.773E+03	 1.103E+02	-2.211E+04	-2.436E+04	-1.863E+05	 7.518E+02	-1.771E+03	 6.483E+01	-8.869E+03	-1.413E+04	 5.174E+04	 7.518E+02	-2.211E+04	 5.731E+00	 8.390E+00	 2.380E+00	 1.116E+07	 8.916E+03	 2.007E+08	-1.170E+07	-3.119E+08	-6.535E+05
    2.0000	 7.999E+00	 0.000E+00	 0.000E+00	 2.036E+01	-1.812E-01	-3.752E-01	-2.661E-01	-1.973E+00	 1.800E+02	 1.087E-01	-2.575E-02	-1.206E-01	 5.730E+00	 1.375E+04	 1.989E+03	 0.000E+00	 5.730E+00	-1.654E+03	 1.106E+02	-2.206E+04	-2.448E+04	-1.744E+05	 9.230E+02	-1.707E+03	 6.538E+01	-8.853E+03	-1.420E+04	 5.199E+04	 9.230E+02	-2.206E+04	 5.731E+00	 8.371E+00	 2.615E+00	 1.136E+07	 9.258E+03	 2.003E+08	-1.177E+07	-2.977E+08	-7.227E+05
    2.1000	 7.999E+00	 0.000E+00	 0.000E+00	 2.042E+01	-1.814E-01	-3.575E-01	-2.670E-01	-1.923E+00	 1.800E+02	 1.756E-01	-2.601E-02	-1.316E-01	 5.730E+00	 1.380E+04	 1.961E+03	 0.000E+00	 5.730E+00	-1.537E+03	 1.107E+02	-2.202E+04	-2.457E+04	-1.623E+05	 1.040E+03	-1.643E+03	 6.556E+01	-8.840E+03	-1.426E+04	 5.241E+04	 1.040E+03	-2.202E+04	 5.732E+00	 8.358E+00	 2.812E+00	 1.144E+07	 9.483E+03	 1.999E+08	-1.182E+07	-2.810E+08	-7.658E+05
    2.2000	 7.999E+00	 0.000E+00	 0.000E+00	 2.047E+01	-1.816E-01	-3.411E-01	-2.680E-01	-1.872E+00	 1.800E+02	 2.423E-01	-2.598E-02	-1.424E-01	 5.730E+00	 1.384E+04	 1.933E+03	 0.000E+00	 5.730E+00	-1.420E+03	 1.109E+02	-2.199E+04	-2.462E+04	-1.500E+05	 1.106E+03	-1.578E+03	 6.553E+01	-8.826E+03	-1.431E+04	 5.289E+04	 1.106E+03	-2.199E+04	 5.732E+00	 8.354E+00	 3.009E+00	 1.152E+07	 9.644E+03	 1.995E+08	-1.186E+07	-2.642E+08	-7.870E+05
    2.3000	 7.999E+00	 0.000E+00	 0.000E+00	 2.053E+01	-1.819E-01	-3.265E-01	-2.692E-01	-1.819E+00	 1.800E+02	 3.088E-01	-2.570E-02	-1.510E-01	 5.730E+00	 1.385E+04	 1.904E+03	 0.000E+00	 5.730E+00	-1.306E+03	 1.112E+02	-2.195E+04	-2.465E+04	-1.376E+05	 1.135E+03	-1.511E+03	 6.544E+01	-8.814E+03	-1.432E+04	 5.340E+04	 1.135E+03	-2.195E+04	 5.732E+00	 8.360E+00	 3.163E+00	 1.147E+07	 9.782E+03	 1.991E+08	-1.188E+07	-2.451E+08	-7.895E+05
    2.4000	 7.999E+00	 0.000E+00	 0.000E+00	 2.060E+01	-1.822E-01	-3.135E-01	-2.704E-01	-1.765E+00	 1.800E+02	 3.751E-01	-2.525E-02	-1.594E-01	 5.730E+00	 1.383E+04	 1.874E+03	 0.000E+00	 5.730E+00	-1.190E+03	 1.116E+02	-2.192E+04	-2.465E+04	-1.251E+05	 1.146E+03	-1.443E+03	 6.538E+01	-8.803E+03	-1.431E+04	 5.391E+04	 1.146E+03	-2.192E+04	 5.732E+00	 8.377E+00	 3.317E+00	 1.143E+07	 9.917E+03	 1.988E+08	-1.190E+07	-2.261E+08	-7.845E+05
    2.5000	 7.999E+00	 0.000E+00	 0.000E+00	 2.068E+01	-1.825E-01	-3.026E-01	-2.717E-01	-1.710E+00	 1.800E+02	 4.400E-01	-2.463E-02	-1.655E-01	 5.730E+00	 1.378E+04	 1.842E+03	 0.000E+00	 5.730E+00	-1.078E+03	 1.123E+02	-2.189E+04	-2.464E+04	-1.126E+05	 1.142E+03	-1.375E+03	 6.540E+01	-8.793E+03	-1.425E+04	 5.443E+04	 1.142E+03	-2.189E+04	 5.732E+00	 8.404E+00	 3.425E+00	 1.126E+07	 1.006E+04	 1.985E+08	-1.191E+07	-2.052E+08	-7.711E+05
    2.6000	 7.999E+00	 0.000E+00	 0.000E+00	 2.076E+01	-1.828E-01	-2.937E-01	-2.730E-01	-1.654E+00	 1.800E+02	 5.048E-01	-2.387E-02	-1.712E-01	 5.730E+00	 1.369E+04	 1.809E+03	 0.000E+00	 5.730E+00	-9.644E+02	 1.131E+02	-2.186E+04	-2.460E+04	-9.992E+04	 1.130E+03	-1.304E+03	 6.551E+01	-8.783E+03	-1.416E+04	 5.494E+04	 1.130E+03	-2.186E+04	 5.732E+00	 8.439E+00	 3.533E+00	 1.110E+07	 1.022E+04	 1.982E+08	-1.192E+07	-1.843E+08	-7.545E+05
    2.7000	 7.999E+00	 0.000E+00	 0.000E+00	 2.084E+01	-1.832E-01	-2.870E-01	-2.745E-01	-1.598E+00	 1.800E+02	 5.542E-01	-1.566E-03	-1.795E-01	 5.730E+00	 1.361E+04	 1.780E+03	 0.000E+00	 5.730E+00	-8.804E+02	 1.475E+02	-2.182E+04	-2.812E+04	-8.980E+04	 1.246E+03	-1.247E+03	 8.466E+01	-8.772E+03	-1.417E+04	 5.538E+04	 1.246E+03	-2.182E+04	 5.732E+00	 8.482E+00	 3.594E+00	 1.087E+07	 1.610E+03	 1.981E+08	-1.062E+07	-1.619E+08	-3.519E+06
    2.8000	 7.999E+00	 0.000E+00	 0.000E+00	 2.094E+01	-1.835E-01	-2.828E-01	-2.759E-01	-1.541E+00	 1.800E+02	 5.302E-01	-4.513E-03	-2.162E-01	 5.730E+00	 1.346E+04	 1.780E+03	 0.000E+00	 5.730E+00	-9.300E+02	 1.426E+02	-2.175E+04	-2.742E+04	-9.283E+04	 1.227E+03	-1.257E+03	 8.150E+01	-8.742E+03	-1.401E+04	 5.526E+04	 1.227E+03	-2.175E+04	 5.732E+00	 8.523E+00	 3.654E+00	 1.090E+07	 2.679E+03	 1.984E+08	-1.087E+07	-1.387E+08	-2.906E+06
    2.9000	 7.999E+00	 0.000E+00	 0.000E+00	 2.103E+01	-1.839E-01	-2.812E-01	-2.774E-01	-1.485E+00	 1.800E+02	 5.340E-01	-8.476E-03	-2.384E-01	 5.730E+00	 1.330E+04	 1.768E+03	 0.000E+00	 5.730E+00	-9.308E+02	 1.362E+02	-2.169E+04	-2.655E+04	-9.078E+04	 1.204E+03	-1.240E+03	 7.753E+01	-8.722E+03	-1.382E+04	 5.537E+04	 1.204E+03	-2.169E+04	 5.732E+00	 8.567E+00	 3.669E+00	 1.074E+07	 4.512E+03	 1.986E+08	-1.115E+07	-1.152E+08	-2.240E+06
    3.0000	 7.999E+00	 0.000E+00	 0.000E+00	 2.113E+01	-1.843E-01	-2.826E-01	-2.789E-01	-1.428E+00	 1.800E+02	 5.557E-01	-9.876E-03	-2.534E-01	 5.730E+00	 1.313E+04	 1.749E+03	 0.000E+00	 5.730E+00	-8.982E+02	 1.338E+02	-2.165E+04	-2.611E+04	-8.545E+04	 1.187E+03	-1.206E+03	 7.584E+01	-8.707E+03	-1.365E+04	 5.562E+04	 1.187E+03	-2.165E+04	 5.732E+00	 8.614E+00	 3.683E+00	 1.053E+07	 5.302E+03	 1.986E+08	-1.128E+07	-9.200E+07	-1.906E+06
    3.1000	 7.999E+00	 0.000E+00	 0.000E+00	 2.124E+01	-1.846E-01	-2.870E-01	-2.804E-01	-1.372E+00	 1.800E+02	 5.826E-01	-1.018E-02	-2.621E-01	 5.730E+00	 1.296E+04	 1.726E+03	 0.000E+00	 5.730E+00	-8.569E+02	 1.331E+02	-2.163E+04	-2.583E+04	-7.905E+04	 1.170E+03	-1.167E+03	 7.514E+01	-8.697E+03	-1.347E+04	 5.594E+04	 1.170E+03	-2.163E+04	 5.732E+00	 8.667E+00	 3.654E+00	 1.021E+07	 5.635E+03	 1.987E+08	-1.135E+07	-6.858E+07	-1.710E+06
    3.2000	 7.999E+00	 0.000E+00	 0.000E+00	 2.135E+01	-1.850E-01	-2.947E-01	-2.820E-01	-1.316E+00	 1.800E+02	 6.160E-01	-9.976E-03	-2.677E-01	 5.730E+00	 1.277E+04	 1.701E+03	 0.000E+00	 5.730E+00	-8.026E+02	 1.332E+02	-2.160E+04	-2.563E+04	-7.136E+04	 1.154E+03	-1.120E+03	 7.489E+01	-8.690E+03	-1.327E+04	 5.632E+04	 1.154E+03	-2.160E+04	 5.732E+00	 8.726E+00	 3.625E+00	 9.888E+06	 5.750E+03	 1.988E+08	-1.139E+07	-4.531E+07	-1.576E+06
    3.3000	 7.999E+00	 0.000E+00	 0.000E+00	 2.146E+01	-1.854E-01	-3.058E-01	-2.836E-01	-1.261E+00	 1.800E+02	 6.484E-01	-9.444E-03	-2.688E-01	 5.730E+00	 1.256E+04	 1.675E+03	 0.000E+00	 5.730E+00	-7.503E+02	 1.339E+02	-2.159E+04	-2.546E+04	-6.370E+04	 1.137E+03	-1.073E+03	 7.489E+01	-8.686E+03	-1.307E+04	 5.673E+04	 1.137E+03	-2.159E+04	 5.732E+00	 8.790E+00	 3.556E+00	 9.477E+06	 5.740E+03	 1.989E+08	-1.141E+07	-2.228E+07	-1.475E+06
    3.4000	 7.999E+00	 0.000E+00	 0.000E+00	 2.158E+01	-1.858E-01	-3.202E-01	-2.852E-01	-1.207E+00	 1.800E+02	 6.845E-01	-8.697E-03	-2.678E-01	 5.730E+00	 1.234E+04	 1.648E+03	 0.000E+00	 5.730E+00	-6.901E+02	 1.348E+02	-2.158E+04	-2.530E+04	-5.528E+04	 1.123E+03	-1.022E+03	 7.503E+01	-8.684E+03	-1.285E+04	 5.718E+04	 1.123E+03	-2.158E+04	 5.732E+00	 8.860E+00	 3.488E+00	 9.070E+06	 5.647E+03	 1.990E+08	-1.142E+07	 6.263E+05	-1.395E+06
    3.5000	 7.999E+00	 0.000E+00	 0.000E+00	 2.170E+01	-1.861E-01	-3.380E-01	-2.868E-01	-1.155E+00	 1.800E+02	 7.166E-01	-7.776E-03	-2.630E-01	 5.730E+00	 1.211E+04	 1.621E+03	 0.000E+00	 5.730E+00	-6.365E+02	 1.359E+02	-2.158E+04	-2.516E+04	-4.739E+04	 1.116E+03	-9.743E+02	 7.528E+01	-8.686E+03	-1.261E+04	 5.764E+04	 1.116E+03	-2.158E+04	 5.732E+00	 8.936E+00	 3.385E+00	 8.591E+06	 5.500E+03	 1.992E+08	-1.142E+07	 2.282E+07	-1.331E+06
    3.6000	 7.999E+00	 0.000E+00	 0.000E+00	 2.183E+01	-1.865E-01	-3.592E-01	-2.885E-01	-1.103E+00	 1.800E+02	 7.513E-01	-6.728E-03	-2.566E-01	 5.730E+00	 1.187E+04	 1.592E+03	 0.000E+00	 5.730E+00	-5.773E+02	 1.372E+02	-2.159E+04	-2.501E+04	-3.896E+04	 1.120E+03	-9.233E+02	 7.559E+01	-8.689E+03	-1.237E+04	 5.813E+04	 1.120E+03	-2.159E+04	 5.733E+00	 9.019E+00	 3.282E+00	 8.120E+06	 5.311E+03	 1.994E+08	-1.141E+07	 4.489E+07	-1.279E+06
    3.7000	 7.999E+00	 0.000E+00	 0.000E+00	 2.195E+01	-1.869E-01	-3.839E-01	-2.901E-01	-1.054E+00	 1.800E+02	 7.800E-01	-5.556E-03	-2.469E-01	 5.730E+00	 1.161E+04	 1.566E+03	 0.000E+00	 5.730E+00	-5.278E+02	 1.387E+02	-2.160E+04	-2.487E+04	-3.142E+04	 1.137E+03	-8.769E+02	 7.596E+01	-8.695E+03	-1.211E+04	 5.863E+04	 1.137E+03	-2.160E+04	 5.733E+00	 9.108E+00	 3.151E+00	 7.587E+06	 5.095E+03	 1.996E+08	-1.139E+07	 6.579E+07	-1.237E+06
    3.8000	 7.999E+00	 0.000E+00	 0.000E+00	 2.208E+01	-1.873E-01	-4.120E-01	-2.918E-01	-1.006E+00	 1.800E+02	 8.105E-01	-4.295E-03	-2.358E-01	 5.730E+00	 1.133E+04	 1.538E+03	 0.000E+00	 5.730E+00	-4.742E+02	 1.402E+02	-2.161E+04	-2.472E+04	-2.347E+04	 1.167E+03	-8.283E+02	 7.635E+01	-8.702E+03	-1.184E+04	 5.915E+04	 1.167E+03	-2.161E+04	 5.733E+00	 9.204E+00	 3.020E+00	 7.065E+06	 4.859E+03	 1.998E+08	-1.137E+07	 8.656E+07	-1.204E+06
    3.9000	 7.999E+00	 0.000E+00	 0.000E+00	 2.221E+01	-1.878E-01	-4.434E-01	-2.935E-01	-9.612E-01	 1.800E+02	 8.336E-01	-2.946E-03	-2.219E-01	 5.730E+00	 1.105E+04	 1.512E+03	 0.000E+00	 5.730E+00	-4.326E+02	 1.419E+02	-2.164E+04	-2.457E+04	-1.668E+04	 1.216E+03	-7.859E+02	 7.677E+01	-8.712E+03	-1.156E+04	 5.967E+04	 1.216E+03	-2.164E+04	 5.733E+00	 9.307E+00	 2.868E+00	 6.490E+06	 4.609E+03	 2.001E+08	-1.134E+07	 1.057E+08	-1.181E+06
    4.0000	 7.999E+00	 0.000E+00	 0.000E+00	 2.234E+01	-1.882E-01	-4.780E-01	-2.952E-01	-9.184E-01	 1.800E+02	 8.579E-01	-1.536E-03	-2.068E-01	 5.730E+00	 1.075E+04	 1.486E+03	 0.000E+00	 5.730E+00	-3.881E+02	 1.436E+02	-2.166E+04	-2.442E+04	-9.594E+03	 1.281E+03	-7.420E+02	 7.720E+01	-8.724E+03	-1.127E+04	 6.021E+04	 1.281E+03	-2.166E+04	 5.733E+00	 9.417E+00	 2.715E+00	 5.926E+06	 4.353E+03	 2.003E+08	-1.130E+07	 1.247E+08	-1.167E+06
    4.1000	 7.999E+00	 0.000E+00	 0.000E+00	 2.248E+01	-1.886E-01	-5.157E-01	-2.969E-01	-8.783E-01	 1.800E+02	 8.734E-01	-6.036E-05	-1.894E-01	 5.730E+00	 1.045E+04	 1.462E+03	 0.000E+00	 5.730E+00	-3.576E+02	 1.454E+02	-2.169E+04	-2.426E+04	-3.908E+03	 1.370E+03	-7.055E+02	 7.766E+01	-8.737E+03	-1.097E+04	 6.074E+04	 1.370E+03	-2.169E+04	 5.733E+00	 9.535E+00	 2.548E+00	 5.317E+06	 4.095E+03	 2.007E+08	-1.127E+07	 1.417E+08	-1.165E+06
    4.2000	 7.999E+00	 0.000E+00	 0.000E+00	 2.261E+01	-1.890E-01	-5.565E-01	-2.985E-01	-8.410E-01	 1.800E+02	 8.897E-01	 1.449E-03	-1.711E-01	 5.730E+00	 1.013E+04	 1.438E+03	 0.000E+00	 5.730E+00	-3.251E+02	 1.472E+02	-2.173E+04	-2.411E+04	 1.973E+03	 1.485E+03	-6.680E+02	 7.813E+01	-8.752E+03	-1.067E+04	 6.130E+04	 1.485E+03	-2.173E+04	 5.733E+00	 9.659E+00	 2.380E+00	 4.718E+06	 3.839E+03	 2.010E+08	-1.122E+07	 1.586E+08	-1.175E+06
    4.3000	 7.999E+00	 0.000E+00	 0.000E+00	 2.275E+01	-1.894E-01	-6.001E-01	-3.002E-01	-8.068E-01	 1.800E+02	 8.960E-01	 3.004E-03	-1.510E-01	 5.730E+00	 9.811E+03	 1.417E+03	 0.000E+00	 5.730E+00	-3.086E+02	 1.491E+02	-2.177E+04	-2.395E+04	 6.240E+03	 1.622E+03	-6.393E+02	 7.864E+01	-8.769E+03	-1.036E+04	 6.184E+04	 1.622E+03	-2.177E+04	 5.733E+00	 9.790E+00	 2.202E+00	 4.082E+06	 3.589E+03	 2.013E+08	-1.118E+07	 1.731E+08	-1.197E+06
    4.4000	 7.999E+00	 0.000E+00	 0.000E+00	 2.288E+01	-1.898E-01	-6.463E-01	-3.018E-01	-7.758E-01	 1.800E+02	 9.029E-01	 4.580E-03	-1.303E-01	 5.730E+00	 9.485E+03	 1.396E+03	 0.000E+00	 5.730E+00	-2.913E+02	 1.510E+02	-2.181E+04	-2.380E+04	 1.059E+04	 1.774E+03	-6.102E+02	 7.916E+01	-8.786E+03	-1.005E+04	 6.241E+04	 1.774E+03	-2.181E+04	 5.732E+00	 9.923E+00	 2.025E+00	 3.456E+06	 3.342E+03	 2.017E+08	-1.113E+07	 1.874E+08	-1.227E+06
    4.5000	 7.999E+00	 0.000E+00	 0.000E+00	 2.302E+01	-1.903E-01	-6.951E-01	-3.035E-01	-7.481E-01	 1.800E+02	 8.989E-01	 6.194E-03	-1.083E-01	 5.730E+00	 9.159E+03	 1.380E+03	 0.000E+00	 5.730E+00	-2.915E+02	 1.530E+02	-2.186E+04	-2.364E+04	 1.313E+04	 1.922E+03	-5.911E+02	 7.970E+01	-8.805E+03	-9.743E+03	 6.294E+04	 1.922E+03	-2.186E+04	 5.732E+00	 1.006E+01	 1.843E+00	 2.801E+06	 3.099E+03	 2.021E+08	-1.108E+07	 1.991E+08	-1.259E+06
    4.6000	 7.999E+00	 0.000E+00	 0.000E+00	 2.315E+01	-1.907E-01	-7.461E-01	-3.051E-01	-7.239E-01	 1.800E+02	 8.948E-01	 7.807E-03	-8.601E-02	 5.730E+00	 8.832E+03	 1.363E+03	 0.000E+00	 5.730E+00	-2.919E+02	 1.550E+02	-2.190E+04	-2.350E+04	 1.564E+04	 2.070E+03	-5.720E+02	 8.028E+01	-8.825E+03	-9.432E+03	 6.348E+04	 2.070E+03	-2.190E+04	 5.732E+00	 1.021E+01	 1.662E+00	 2.154E+06	 2.866E+03	 2.026E+08	-1.103E+07	 2.106E+08	-1.293E+06
    4.7000	 7.999E+00	 0.000E+00	 0.000E+00	 2.329E+01	-1.911E-01	-7.992E-01	-3.066E-01	-7.032E-01	 1.800E+02	 8.791E-01	 9.422E-03	-6.308E-02	 5.730E+00	 8.503E+03	 1.350E+03	 0.000E+00	 5.730E+00	-3.108E+02	 1.571E+02	-2.196E+04	-2.336E+04	 1.620E+04	 2.222E+03	-5.634E+02	 8.094E+01	-8.845E+03	-9.120E+03	 6.396E+04	 2.222E+03	-2.196E+04	 5.732E+00	 1.036E+01	 1.480E+00	 1.487E+06	 2.652E+03	 2.030E+08	-1.097E+07	 2.192E+08	-1.333E+06
    4.8000	 7.999E+00	 0.000E+00	 0.000E+00	 2.342E+01	-1.915E-01	-8.541E-01	-3.081E-01	-6.863E-01	 1.800E+02	 8.629E-01	 1.101E-02	-4.019E-02	 5.730E+00	 8.175E+03	 1.338E+03	 0.000E+00	 5.730E+00	-3.311E+02	 1.593E+02	-2.201E+04	-2.323E+04	 1.661E+04	 2.381E+03	-5.555E+02	 8.166E+01	-8.866E+03	-8.809E+03	 6.444E+04	 2.381E+03	-2.201E+04	 5.732E+00	 1.052E+01	 1.298E+00	 8.289E+05	 2.459E+03	 2.035E+08	-1.092E+07	 2.276E+08	-1.379E+06
    4.9000	 7.999E+00	 0.000E+00	 0.000E+00	 2.356E+01	-1.920E-01	-9.107E-01	-3.096E-01	-6.730E-01	 1.800E+02	 8.346E-01	 1.255E-02	-1.728E-02	 5.730E+00	 7.845E+03	 1.330E+03	 0.000E+00	 5.730E+00	-3.704E+02	 1.615E+02	-2.207E+04	-2.312E+04	 1.498E+04	 2.550E+03	-5.584E+02	 8.251E+01	-8.887E+03	-8.499E+03	 6.481E+04	 2.550E+03	-2.207E+04	 5.732E+00	 1.069E+01	 1.119E+00	 1.608E+05	 2.302E+03	 2.039E+08	-1.087E+07	 2.330E+08	-1.435E+06
    5.0000	 7.999E+00	 0.000E+00	 0.000E+00	 2.369E+01	-1.924E-01	-9.685E-01	-3.110E-01	-6.635E-01	 1.800E+02	 8.055E-01	 1.401E-02	 5.295E-03	 5.730E+00	 7.516E+03	 1.322E+03	 0.000E+00	 5.730E+00	-4.117E+02	 1.638E+02	-2.212E+04	-2.301E+04	 1.312E+04	 2.736E+03	-5.621E+02	 8.345E+01	-8.909E+03	-8.191E+03	 6.514E+04	 2.736E+03	-2.212E+04	 5.732E+00	 1.085E+01	 9.398E-01	-4.998E+05	 2.189E+03	 2.044E+08	-1.082E+07	 2.382E+08	-1.500E+06
    5.1000	 7.999E+00	 0.000E+00	 0.000E+00	 2.382E+01	-1.928E-01	-1.028E+00	-3.124E-01	-6.578E-01	 1.800E+02	 7.645E-01	 1.540E-02	 2.736E-02	 5.730E+00	 7.191E+03	 1.318E+03	 0.000E+00	 5.730E+00	-4.718E+02	 1.661E+02	-2.218E+04	-2.292E+04	 9.214E+03	 2.953E+03	-5.767E+02	 8.447E+01	-8.930E+03	-7.891E+03	 6.538E+04	 2.953E+03	-2.218E+04	 5.732E+00	 1.102E+01	 7.661E-01	-1.159E+06	 2.124E+03	 2.049E+08	-1.077E+07	 2.402E+08	-1.584E+06
    5.2000	 7.999E+00	 0.000E+00	 0.000E+00	 2.395E+01	-1.932E-01	-1.087E+00	-3.137E-01	-6.557E-01	 1.800E+02	 7.229E-01	 1.671E-02	 4.895E-02	 5.730E+00	 6.880E+03	 1.316E+03	 0.000E+00	 5.730E+00	-5.347E+02	 1.683E+02	-2.224E+04	-2.284E+04	 5.025E+03	 3.206E+03	-5.930E+02	 8.544E+01	-8.952E+03	-7.609E+03	 6.561E+04	 3.206E+03	-2.224E+04	 5.732E+00	 1.116E+01	 5.924E-01	-1.813E+06	 2.090E+03	 2.054E+08	-1.073E+07	 2.421E+08	-1.685E+06
    5.3000	 7.999E+00	 0.000E+00	 0.000E+00	 2.407E+01	-1.936E-01	-1.148E+00	-3.149E-01	-6.574E-01	 1.800E+02	 6.708E-01	 1.800E-02	 6.967E-02	 5.730E+00	 6.599E+03	 1.320E+03	 0.000E+00	 5.730E+00	-6.163E+02	 1.703E+02	-2.229E+04	-2.277E+04	-1.155E+03	 3.481E+03	-6.214E+02	 8.622E+01	-8.974E+03	-7.358E+03	 6.588E+04	 3.481E+03	-2.229E+04	 5.732E+00	 1.128E+01	 4.253E-01	-2.454E+06	 2.043E+03	 2.060E+08	-1.068E+07	 2.407E+08	-1.799E+06
    5.4000	 7.999E+00	 0.000E+00	 0.000E+00	 2.419E+01	-1.940E-01	-1.208E+00	-3.161E-01	-6.627E-01	 1.800E+02	 6.185E-01	 1.936E-02	 8.990E-02	 5.730E+00	 6.357E+03	 1.326E+03	 0.000E+00	 5.730E+00	-7.020E+02	 1.720E+02	-2.235E+04	-2.268E+04	-7.651E+03	 3.735E+03	-6.529E+02	 8.667E+01	-8.996E+03	-7.143E+03	 6.630E+04	 3.735E+03	-2.235E+04	 5.732E+00	 1.137E+01	 2.583E-01	-3.093E+06	 1.951E+03	 2.065E+08	-1.063E+07	 2.391E+08	-1.904E+06
    5.5000	 7.999E+00	 0.000E+00	 0.000E+00	 2.431E+01	-1.944E-01	-1.269E+00	-3.172E-01	-6.716E-01	 1.800E+02	 5.570E-01	 2.082E-02	 1.089E-01	 5.730E+00	 6.154E+03	 1.339E+03	 0.000E+00	 5.730E+00	-8.045E+02	 1.734E+02	-2.241E+04	-2.259E+04	-1.596E+04	 3.931E+03	-6.958E+02	 8.677E+01	-9.018E+03	-6.959E+03	 6.679E+04	 3.931E+03	-2.241E+04	 5.731E+00	 1.144E+01	 9.872E-02	-3.707E+06	 1.810E+03	 2.070E+08	-1.058E+07	 2.342E+08	-1.989E+06
    5.6000	 7.999E+00	 0.000E+00	 0.000E+00	 2.443E+01	-1.948E-01	-1.329E+00	-3.182E-01	-6.839E-01	 1.800E+02	 4.957E-01	 2.230E-02	 1.275E-01	 5.730E+00	 5.985E+03	 1.355E+03	 0.000E+00	 5.730E+00	-9.104E+02	 1.746E+02	-2.247E+04	-2.250E+04	-2.462E+04	 4.086E+03	-7.417E+02	 8.663E+01	-9.040E+03	-6.805E+03	 6.733E+04	 4.086E+03	-2.247E+04	 5.731E+00	 1.149E+01	-6.082E-02	-4.321E+06	 1.647E+03	 2.075E+08	-1.052E+07	 2.292E+08	-2.055E+06
    5.7000	 7.999E+00	 0.000E+00	 0.000E+00	 2.454E+01	-1.952E-01	-1.389E+00	-3.191E-01	-6.996E-01	 1.800E+02	 4.265E-01	 2.382E-02	 1.446E-01	 5.730E+00	 5.840E+03	 1.375E+03	 0.000E+00	 5.730E+00	-1.029E+03	 1.756E+02	-2.252E+04	-2.240E+04	-3.483E+04	 4.179E+03	-7.965E+02	 8.632E+01	-9.061E+03	-6.668E+03	 6.782E+04	 4.179E+03	-2.252E+04	 5.731E+00	 1.155E+01	-2.123E-01	-4.896E+06	 1.480E+03	 2.080E+08	-1.045E+07	 2.210E+08	-2.099E+06
    5.8000	 7.999E+00	 0.000E+00	 0.000E+00	 2.465E+01	-1.956E-01	-1.448E+00	-3.200E-01	-7.184E-01	 1.800E+02	 3.573E-01	 2.530E-02	 1.612E-01	 5.730E+00	 5.715E+03	 1.397E+03	 0.000E+00	 5.730E+00	-1.151E+03	 1.765E+02	-2.258E+04	-2.231E+04	-4.538E+04	 4.228E+03	-8.533E+02	 8.593E+01	-9.082E+03	-6.545E+03	 6.826E+04	 4.228E+03	-2.258E+04	 5.731E+00	 1.159E+01	-3.638E-01	-5.472E+06	 1.333E+03	 2.085E+08	-1.039E+07	 2.128E+08	-2.124E+06
    5.9000	 7.999E+00	 0.000E+00	 0.000E+00	 2.476E+01	-1.960E-01	-1.507E+00	-3.208E-01	-7.403E-01	 1.800E+02	 2.818E-01	 2.672E-02	 1.761E-01	 5.730E+00	 5.607E+03	 1.423E+03	 0.000E+00	 5.730E+00	-1.283E+03	 1.773E+02	-2.263E+04	-2.222E+04	-5.718E+04	 4.245E+03	-9.171E+02	 8.552E+01	-9.101E+03	-6.436E+03	 6.860E+04	 4.245E+03	-2.263E+04	 5.731E+00	 1.163E+01	-5.067E-01	-5.995E+06	 1.213E+03	 2.090E+08	-1.033E+07	 2.016E+08	-2.141E+06
    6.0000	 7.999E+00	 0.000E+00	 0.000E+00	 2.486E+01	-1.963E-01	-1.563E+00	-3.214E-01	-7.650E-01	 1.800E+02	 2.061E-01	 2.807E-02	 1.904E-01	 5.730E+00	 5.515E+03	 1.449E+03	 0.000E+00	 5.730E+00	-1.417E+03	 1.780E+02	-2.268E+04	-2.214E+04	-6.930E+04	 4.228E+03	-9.825E+02	 8.509E+01	-9.121E+03	-6.339E+03	 6.889E+04	 4.228E+03	-2.268E+04	 5.731E+00	 1.166E+01	-6.497E-01	-6.520E+06	 1.124E+03	 2.095E+08	-1.027E+07	 1.903E+08	-2.143E+06
