
Predictions were generated on 22-Feb-2018 at 12:33:50 using OpenFAST, compiled as a 64-bit application using double precision at commit v1.0.0-54-g1c3f9ad0-dirty
 linked with  NWTC Subroutine Library; ElastoDyn; InflowWind; AeroDyn; ServoDyn; HydroDyn; SubDyn

Description from the FAST input file: FAST Certification Test #20: NREL 5.0 MW Baseline Wind Turbine with OC3 Tripod Configuration, for use in offshore analysis

Time      	Wind1VelX 	Wind1VelY 	Wind1VelZ 	OoPDefl1  	IPDefl1   	TwstDefl1 	BldPitch1 	Azimuth   	RotSpeed  	GenSpeed  	TwHt1TPxi 	TwHt1TPyi 	TTDspTwst 	Spn2MLxb1 	Spn2MLyb1 	RootFxc1  	RootFyc1  	RootFzc1  	RootMxc1  	RootMyc1  	RootMzc1  	RotTorq   	LSSGagMya 	LSSGagMza 	YawBrFxp  	YawBrFyp  	YawBrFzp  	YawBrMxp  	YawBrMyp  	YawBrMzp  	TwN5Vrel  	TwN5DynP  	TwN5Re    	TwN5Fdx   	TwN5Fdy   	GenPwr    	GenTq     	Wave1Elev 	M1N1Vxi   	M1N1Vzi   	M1N1Axi   	M1N1Azi   	M1N1FDxi  	M1N1FDzi  	M1N1FIxi  	M1N1FIzi  	M1N1FAxi  	M1N1FAzi  	M1N1TDxss 	M1N1TDyss 	M1N1RDxe  	M1N1RDye  	M1N2FKxe  	M1N2FKye  	M1N2FKze  	M1N2MKxe  	M1N2MKye  	M1N2MKze  	M1N1FKxe  	M1N1FKye  	M1N1FKze  	M1N1MKxe  	M1N1MKye  	M1N1MKze  	M2N1FKxe  	M2N1FKye  	M2N1FKze  	M2N1MKxe  	M2N1MKye  	M2N1MKze  	M3N1FKxe  	M3N1FKye  	M3N1FKze  	M3N1MKxe  	M3N1MKye  	M3N1MKze  	M4N1FKxe  	M4N1FKye  	M4N1FKze  	M4N1MKxe  	M4N1MKye  	M4N1MKze  	M5N1FKxe  	M5N1FKye  	M5N1FKze  	M5N1MKxe  	M5N1MKye  	M5N1MKze  	M6N1FKxe  	M6N1FKye  	M6N1FKze  	M6N1MKxe  	M6N1MKye  	M6N1MKze  	M7N1FKxe  	M7N1FKye  	M7N1FKze  	M7N1MKxe  	M7N1MKye  	M7N1MKze  	M8N1FKxe  	M8N1FKye  	M8N1FKze  	M8N1MKxe  	M8N1MKye  	M8N1MKze  	M9N1FKxe  	M9N1FKye  	M9N1FKze  	M9N1MKxe  	M9N1MKye  	M9N1MKze  
(s)       	(m/s)     	(m/s)     	(m/s)     	(m)       	(m)       	(deg)     	(deg)     	(deg)     	(rpm)     	(rpm)     	(m)       	(m)       	(deg)     	(kN-m)    	(kN-m)    	(kN)      	(kN)      	(kN)      	(kN-m)    	(kN-m)    	(kN-m)    	(kN-m)    	(kN-m)    	(kN-m)    	(kN)      	(kN)      	(kN)      	(kN-m)    	(kN-m)    	(kN-m)    	(m/s)     	(Pa)      	(-)       	(N/m)     	(N/m)     	(kW)      	(kN-m)    	(m)       	(m/s)     	(m/s)     	(m/s^2)   	(m/s^2)   	(N/m)     	(N/m)     	(N/m)     	(N/m)     	(N/m)     	(N/m)     	(m)       	(m)       	(rad)     	(rad)     	(N)       	(N)       	(N)       	(N*m)     	(N*m)     	(N*m)     	(N)       	(N)       	(N)       	(N*m)     	(N*m)     	(N*m)     	(N)       	(N)       	(N)       	(N*m)     	(N*m)     	(N*m)     	(N)       	(N)       	(N)       	(N*m)     	(N*m)     	(N*m)     	(N)       	(N)       	(N)       	(N*m)     	(N*m)     	(N*m)     	(N)       	(N)       	(N)       	(N*m)     	(N*m)     	(N*m)     	(N)       	(N)       	(N)       	(N*m)     	(N*m)     	(N*m)     	(N)       	(N)       	(N)       	(N*m)     	(N*m)     	(N*m)     	(N)       	(N)       	(N)       	(N*m)     	(N*m)     	(N*m)     	(N)       	(N)       	(N)       	(N*m)     	(N*m)     	(N*m)     
    0.0000	 8.000E+00	 0.000E+00	 0.000E+00	 0.000E+00	 0.000E+00	 0.000E+00	 0.000E+00	 0.000E+00	 9.000E+00	 8.730E+02	 0.000E+00	 0.000E+00	 0.000E+00	 6.613E+00	-2.295E+01	 2.007E+01	 3.414E-01	 1.708E+02	 5.131E+00	 2.104E+02	-2.533E+00	-4.228E-13	-1.944E+03	-4.266E+01	 2.053E+01	 1.091E+00	-3.429E+03	 1.604E+01	-3.016E+02	-5.748E-13	 8.000E+00	 3.920E+01	 3.021E+00	 2.167E+02	 0.000E+00	 1.682E+03	 1.949E+01	 4.000E+00	 1.089E+00	-4.943E-01	-3.939E-01	-5.396E-01	 1.506E+03	-9.503E+02	-3.769E+02	 2.378E+02	 8.286E+03	-5.228E+03	 3.234E-05	-2.367E-07	-2.874E-08	-1.911E-06	-5.897E+04	 2.385E+02	-7.307E+06	 1.422E+03	-3.278E+04	-1.546E-03	-5.897E+04	 2.385E+02	-7.444E+06	 9.454E+02	-1.507E+05	-1.546E-03	 3.237E+04	 2.519E+02	-5.563E+06	-1.531E+03	-1.229E+05	-2.915E-03	 1.258E+01	 5.533E+03	-1.517E+06	-2.048E+05	 9.624E+01	-8.854E+00	-5.881E+02	-4.826E+03	-1.579E+06	-2.154E+05	-5.044E+04	 2.321E+03	 5.755E+02	-4.849E+03	-1.579E+06	-2.152E+05	 5.034E+04	-2.312E+03	 4.433E-01	-2.860E+04	-4.116E+05	-4.488E+05	 1.925E+01	 2.386E+01	-1.855E+02	-3.054E+04	-4.264E+05	-4.415E+05	 2.805E+04	 1.885E+03	 1.851E+02	-3.053E+04	-4.266E+05	-4.414E+05	-2.807E+04	-1.909E+03	 1.030E+06	 2.564E+01	-2.501E+06	-2.915E+02	 8.708E+05	 6.375E+01
    0.0400	 8.000E+00	 0.000E+00	 0.000E+00	 4.439E-02	-1.704E-03	 0.000E+00	 0.000E+00	 2.161E+00	 9.002E+00	 8.601E+02	-1.931E-05	-1.143E-06	 0.000E+00	-3.325E+01	 6.504E+00	 1.774E+01	-1.117E+01	 1.736E+02	 1.369E+02	 2.648E+02	 6.748E-01	 3.514E+02	-2.024E+03	 2.094E+01	 5.483E+00	 1.545E+01	-3.305E+03	 3.346E+02	-6.287E+02	-4.731E+01	 7.999E+00	 3.919E+01	 3.021E+00	 2.167E+02	-4.468E-02	 1.655E+03	 1.947E+01	 3.992E+00	 1.071E+00	-5.149E-01	-4.103E-01	-5.307E-01	 1.662E+03	-1.049E+03	-5.316E+02	 3.354E+02	 3.995E+03	-2.521E+03	 3.657E-04	-2.473E-08	 7.321E-07	-1.295E-05	-5.064E+04	-8.092E+02	-6.927E+06	 4.220E+04	-3.989E+05	-2.084E+04	-5.064E+04	-8.092E+02	-7.064E+06	 4.381E+04	-5.001E+05	-2.084E+04	-4.217E+03	 9.760E+02	-5.515E+06	 2.926E+04	-9.750E+05	-7.466E+03	-1.546E+01	 2.385E+03	-1.176E+06	-7.063E+05	-1.156E+03	-4.955E+02	-4.928E+03	-1.164E+04	-1.483E+06	-5.643E+05	 2.304E+04	 4.887E+03	 5.217E+03	-1.154E+04	-1.483E+06	-5.661E+05	-2.352E+04	-6.637E+03	 8.519E+00	-3.333E+04	-2.968E+05	-4.856E+05	-6.181E+02	-2.175E+02	 5.686E+02	-2.965E+04	-3.925E+05	-4.544E+05	 2.477E+04	-4.770E+03	-5.501E+02	-2.971E+04	-3.908E+05	-4.546E+05	-2.571E+04	 4.812E+03	 1.237E+06	-1.656E+02	-2.101E+06	 1.098E+03	 9.668E+05	-1.168E+03
    0.0800	 8.000E+00	 0.000E+00	 0.000E+00	 1.643E-01	-1.512E-02	 0.000E+00	 0.000E+00	 4.317E+00	 8.962E+00	 8.511E+02	-1.822E-04	-3.400E-05	 0.000E+00	-7.637E+01	 6.220E+01	 2.687E+01	-2.750E+01	 1.833E+02	 3.564E+02	 5.413E+02	-6.011E+00	 1.001E+03	-1.926E+03	 8.856E+01	 1.887E+01	 2.837E+01	-3.220E+03	 9.526E+02	-4.698E+02	-7.919E+01	 8.001E+00	 3.921E+01	 3.022E+00	 2.168E+02	-9.884E-02	 1.634E+03	 1.942E+01	 3.984E+00	 1.053E+00	-5.354E-01	-4.266E-01	-5.219E-01	 1.672E+03	-1.055E+03	-6.863E+02	 4.330E+02	-2.239E+03	 1.413E+03	 7.908E-04	-1.316E-05	 2.372E-06	-2.463E-06	 2.886E+04	-1.123E+04	-6.639E+06	 3.720E+04	 8.262E+04	-8.906E+04	 2.886E+04	-1.123E+04	-6.776E+06	 5.965E+04	 1.403E+05	-8.906E+04	 1.017E+04	-2.175E+03	-5.435E+06	 7.968E+04	-1.001E+06	-3.035E+04	-8.662E+02	-4.435E+03	-8.045E+05	-1.577E+06	-2.177E+03	-4.356E+03	-5.678E+03	-1.559E+04	-1.401E+06	-1.456E+06	 3.205E+05	-1.714E+03	 4.949E+03	-1.486E+04	-1.414E+06	-1.455E+06	-3.279E+05	-9.488E+03	-6.153E+02	-3.152E+04	-1.881E+05	-5.230E+05	 2.443E+03	-1.254E+03	 2.045E+03	-2.424E+04	-2.912E+05	-4.975E+05	 3.955E+04	-1.529E+03	-3.304E+03	-2.447E+04	-2.831E+05	-4.996E+05	-3.381E+04	 4.976E+02	 1.439E+06	-8.801E+02	-1.620E+06	 4.921E+03	 2.614E+05	-1.554E+03
    0.1200	 8.000E+00	 0.000E+00	 0.000E+00	 3.457E-01	-5.313E-02	 0.000E+00	 0.000E+00	 6.460E+00	 8.893E+00	 8.470E+02	-2.758E-04	-1.778E-04	 0.000E+00	-7.190E+01	 1.573E+02	 3.535E+01	-4.043E+01	 1.731E+02	 6.081E+02	 9.151E+02	-8.082E+00	 1.636E+03	-2.144E+03	 1.531E+02	 1.038E+01	 3.293E+01	-3.403E+03	 1.568E+03	-7.378E+02	-1.582E+02	 7.990E+00	 3.910E+01	 3.017E+00	 2.162E+02	-9.410E-02	 1.617E+03	 1.931E+01	 3.976E+00	 1.036E+00	-5.559E-01	-4.430E-01	-5.131E-01	 1.545E+03	-9.747E+02	-8.410E+02	 5.306E+02	-6.453E+03	 4.072E+03	 1.146E-03	-3.445E-05	-2.714E-06	-6.685E-07	 5.310E+04	-1.076E+04	-7.139E+06	-2.635E+05	 6.376E+05	-1.460E+05	 5.310E+04	-1.076E+04	-7.276E+06	-2.419E+05	 7.438E+05	-1.460E+05	 1.254E+04	-3.675E+03	-5.405E+06	-1.501E+05	-1.275E+06	-5.475E+04	-7.566E+01	 2.004E+03	-8.016E+05	-2.215E+06	 1.179E+04	-9.863E+03	-7.531E+03	-8.309E+03	-1.616E+06	-2.226E+06	 6.169E+05	-4.153E+03	 5.378E+03	-8.600E+03	-1.646E+06	-2.197E+06	-6.280E+05	-1.294E+04	-9.248E+02	-2.268E+04	-1.186E+05	-5.514E+05	 5.211E+03	 1.270E+02	 3.736E+03	-1.122E+04	-2.445E+05	-5.308E+05	 5.110E+04	-4.904E+02	-5.690E+03	-1.062E+04	-2.539E+05	-5.288E+05	-4.390E+04	-3.146E+03	 1.471E+06	 1.872E+03	-1.472E+06	-3.070E+04	-1.166E+06	 4.692E+03
    0.1600	 8.000E+00	 0.000E+00	 0.000E+00	 5.730E-01	-1.187E-01	 0.000E+00	 0.000E+00	 8.587E+00	 8.833E+00	 8.471E+02	-2.064E-04	-4.906E-04	 0.000E+00	 4.913E+00	 2.863E+02	 4.337E+01	-4.476E+01	 1.638E+02	 8.378E+02	 1.354E+03	-1.145E+01	 2.072E+03	-2.437E+03	 2.573E+02	-3.923E+00	 2.349E+01	-3.530E+03	 2.014E+03	-1.207E+03	-2.166E+02	 7.993E+00	 3.914E+01	 3.019E+00	 2.164E+02	-1.046E-02	 1.605E+03	 1.917E+01	 3.968E+00	 1.018E+00	-5.764E-01	-4.593E-01	-5.042E-01	 1.372E+03	-8.660E+02	-9.956E+02	 6.283E+02	-5.978E+03	 3.772E+03	 1.359E-03	 4.564E-05	-1.382E-05	-3.482E-06	 5.284E+04	 1.439E+04	-7.473E+06	-7.159E+05	 8.966E+05	-2.123E+05	 5.284E+04	 1.439E+04	-7.610E+06	-7.447E+05	 1.002E+06	-2.123E+05	 3.209E+03	-1.651E+04	-5.409E+06	-4.837E+05	-1.591E+06	-8.593E+04	 7.211E+01	 8.266E+03	-8.496E+05	-2.190E+06	 5.514E+03	-1.949E+04	-1.012E+04	-2.302E+03	-1.823E+06	-2.334E+06	 7.296E+05	-7.140E+03	 6.147E+03	-4.757E+03	-1.777E+06	-2.336E+06	-7.122E+05	-1.720E+04	-1.668E+03	-2.011E+04	-9.676E+04	-5.567E+05	 8.835E+03	 3.315E+02	 3.834E+03	-4.867E+03	-2.467E+05	-5.378E+05	 5.692E+04	-3.027E+03	-6.943E+03	-3.969E+03	-2.771E+05	-5.326E+05	-4.266E+04	-2.736E+03	 1.491E+06	 2.938E+03	-1.447E+06	-3.735E+04	-1.565E+06	 1.493E+03
    0.2000	 8.000E+00	 0.000E+00	 0.000E+00	 8.287E-01	-1.988E-01	 0.000E+00	 0.000E+00	 1.070E+01	 8.822E+00	 8.497E+02	 6.661E-05	-1.004E-03	 0.000E+00	 1.300E+02	 4.170E+02	 6.136E+01	-4.123E+01	 1.762E+02	 1.020E+03	 1.942E+03	-1.724E+01	 2.331E+03	-2.404E+03	 3.221E+02	 1.778E+01	 1.375E+01	-3.398E+03	 2.285E+03	-1.179E+03	-2.683E+02	 7.989E+00	 3.910E+01	 3.017E+00	 2.162E+02	 1.580E-01	 1.600E+03	 1.905E+01	 3.961E+00	 9.999E-01	-5.969E-01	-4.757E-01	-4.954E-01	 1.284E+03	-8.099E+02	-1.150E+03	 7.259E+02	-6.497E+02	 4.100E+02	 1.294E-03	 2.285E-04	-2.827E-05	 1.298E-05	 9.334E+04	 6.491E+04	-7.026E+06	-1.152E+06	 1.358E+06	-2.795E+05	 9.334E+04	 6.491E+04	-7.162E+06	-1.282E+06	 1.544E+06	-2.795E+05	 1.654E+04	-3.519E+04	-5.419E+06	-8.177E+05	-8.491E+05	-1.203E+05	-4.791E+02	 9.977E+02	-7.563E+05	-1.497E+06	-2.032E+04	-3.126E+04	-8.299E+03	-4.103E+03	-1.755E+06	-1.762E+06	 6.302E+05	-1.716E+04	 2.858E+03	-9.550E+03	-1.542E+06	-1.849E+06	-5.547E+05	-1.467E+04	-2.637E+03	-2.741E+04	-1.608E+05	-5.260E+05	 1.190E+04	-8.934E+02	 2.270E+03	-1.413E+04	-2.366E+05	-5.279E+05	 5.900E+04	-1.167E+03	-6.624E+03	-1.375E+04	-2.862E+05	-5.206E+05	-3.451E+04	-5.486E+03	 1.544E+06	 2.499E+03	-1.420E+06	-1.592E+04	-3.679E+05	-1.051E+04
    0.2400	 8.000E+00	 0.000E+00	 0.000E+00	 1.104E+00	-2.716E-01	 0.000E+00	 0.000E+00	 1.283E+01	 8.859E+00	 8.540E+02	 8.558E-04	-1.695E-03	 0.000E+00	 2.203E+02	 5.620E+02	 7.412E+01	-4.204E+01	 1.792E+02	 1.219E+03	 2.498E+03	-2.065E+01	 2.529E+03	-2.586E+03	 4.151E+02	 2.770E+01	 7.028E+00	-3.337E+03	 2.488E+03	-1.546E+03	-3.460E+02	 7.979E+00	 3.899E+01	 3.013E+00	 2.156E+02	 3.173E-01	 1.601E+03	 1.896E+01	 3.953E+00	 9.820E-01	-6.175E-01	-4.920E-01	-4.865E-01	 1.319E+03	-8.322E+02	-1.305E+03	 8.235E+02	 4.528E+03	-2.857E+03	 1.093E-03	 3.777E-04	-3.813E-05	 1.350E-05	 8.205E+04	 1.030E+05	-6.769E+06	-1.445E+06	 9.862E+05	-3.316E+05	 8.205E+04	 1.030E+05	-6.905E+06	-1.651E+06	 1.150E+06	-3.316E+05	-1.499E+04	-4.749E+04	-5.461E+06	-1.021E+06	-6.826E+05	-1.510E+05	-8.463E+02	-5.813E+02	-7.920E+05	-7.554E+05	-2.997E+04	-4.000E+04	-9.295E+03	-5.634E+03	-1.741E+06	-8.668E+05	 3.176E+05	-2.280E+04	 3.302E+03	-1.314E+04	-1.397E+06	-9.948E+05	-1.944E+05	-1.560E+04	-3.236E+03	-3.520E+04	-2.325E+05	-5.013E+05	 1.359E+04	-1.891E+03	-1.883E+02	-2.370E+04	-2.893E+05	-4.930E+05	 4.587E+04	-7.339E+03	-4.885E+03	-2.406E+04	-3.496E+05	-4.834E+05	-1.539E+04	 4.214E+02	 1.514E+06	 4.360E+03	-1.550E+06	-2.266E+04	 8.080E+05	-1.404E+04
    0.2800	 8.000E+00	 0.000E+00	 0.000E+00	 1.391E+00	-3.214E-01	 0.000E+00	 0.000E+00	 1.496E+01	 8.917E+00	 8.599E+02	 2.261E-03	-2.528E-03	 0.000E+00	 2.386E+02	 7.018E+02	 9.069E+01	-5.193E+01	 1.755E+02	 1.437E+03	 3.080E+03	-2.551E+01	 2.725E+03	-2.770E+03	 5.214E+02	 5.606E+01	 3.578E+00	-3.510E+03	 2.683E+03	-1.633E+03	-4.142E+02	 7.968E+00	 3.888E+01	 3.009E+00	 2.150E+02	 5.207E-01	 1.607E+03	 1.891E+01	 3.933E+00	 9.613E-01	-6.361E-01	-5.069E-01	-4.763E-01	 1.453E+03	-9.168E+02	-1.456E+03	 9.186E+02	 7.844E+03	-4.950E+03	 4.624E-04	 3.909E-04	-3.708E-05	 2.295E-05	 5.344E+04	 1.005E+05	-7.229E+06	-1.470E+06	 9.638E+05	-4.174E+05	 5.344E+04	 1.005E+05	-7.365E+06	-1.671E+06	 1.071E+06	-4.174E+05	-3.162E+03	-4.537E+04	-5.524E+06	-9.782E+05	 3.534E+05	-1.889E+05	-1.644E+03	 3.881E+03	-1.272E+06	-3.602E+05	-6.734E+03	-4.642E+04	-5.331E+03	 1.264E+03	-1.821E+06	-3.503E+05	 7.026E+04	-3.370E+04	-2.069E+03	-5.927E+03	-1.476E+06	-4.217E+05	 5.005E+04	-1.900E+04	-3.996E+03	-2.851E+04	-3.813E+05	-4.728E+05	 1.886E+04	-2.637E+03	-2.563E+03	-2.619E+04	-3.399E+05	-4.675E+05	 4.120E+04	-3.729E+03	-4.194E+03	-2.710E+04	-3.956E+05	-4.560E+05	-2.494E+03	-4.968E+03	 1.179E+06	 9.158E+03	-2.105E+06	-7.719E+04	 2.457E+05	 5.267E+02
    0.3200	 8.000E+00	 0.000E+00	 0.000E+00	 1.682E+00	-3.481E-01	 0.000E+00	 0.000E+00	 1.710E+01	 8.957E+00	 8.670E+02	 4.481E-03	-3.495E-03	 0.000E+00	 1.919E+02	 8.433E+02	 1.026E+02	-6.743E+01	 1.726E+02	 1.641E+03	 3.589E+03	-2.657E+01	 2.845E+03	-2.957E+03	 6.249E+02	 7.477E+01	 1.109E+01	-3.595E+03	 2.777E+03	-1.854E+03	-5.385E+02	 7.946E+00	 3.867E+01	 3.001E+00	 2.138E+02	 7.332E-01	 1.620E+03	 1.890E+01	 3.910E+00	 9.396E-01	-6.542E-01	-5.213E-01	-4.655E-01	 1.607E+03	-1.014E+03	-1.605E+03	 1.013E+03	 5.393E+03	-3.403E+03	-2.697E-04	 3.061E-04	-2.729E-05	 2.478E-05	-1.900E+04	 7.369E+04	-7.441E+06	-1.175E+06	 9.485E+05	-5.260E+05	-1.900E+04	 7.369E+04	-7.578E+06	-1.323E+06	 9.105E+05	-5.260E+05	 6.706E+03	-2.972E+04	-5.532E+06	-7.188E+05	 1.198E+06	-2.315E+05	-2.371E+03	 4.059E+03	-1.638E+06	-7.483E+05	 3.411E+04	-4.966E+04	-1.141E+03	 1.334E+03	-1.689E+06	-5.085E+05	-2.732E+04	-4.251E+04	-7.158E+03	-3.891E+03	-1.433E+06	-4.785E+05	 1.137E+05	-2.783E+04	-4.510E+03	-1.945E+04	-4.465E+05	-4.813E+05	 2.358E+04	-3.179E+03	-3.700E+03	-2.722E+04	-3.294E+05	-4.660E+05	 4.009E+04	 2.373E+03	-4.689E+03	-2.845E+04	-3.692E+05	-4.535E+05	 3.350E+03	-1.311E+04	 8.851E+05	 1.501E+04	-2.487E+06	-1.549E+05	-1.150E+06	 2.348E+04
    0.3600	 8.000E+00	 0.000E+00	 0.000E+00	 1.966E+00	-3.642E-01	 0.000E+00	 0.000E+00	 1.925E+01	 8.957E+00	 8.742E+02	 7.598E-03	-4.578E-03	 0.000E+00	 1.332E+02	 9.820E+02	 1.116E+02	-8.001E+01	 1.785E+02	 1.778E+03	 4.022E+03	-2.605E+01	 2.738E+03	-3.014E+03	 7.134E+02	 9.380E+01	 2.222E+01	-3.470E+03	 2.641E+03	-2.034E+03	-6.328E+02	 7.931E+00	 3.852E+01	 2.995E+00	 2.130E+02	 8.918E-01	 1.636E+03	 1.893E+01	 3.886E+00	 9.179E-01	-6.723E-01	-5.357E-01	-4.548E-01	 1.633E+03	-1.030E+03	-1.754E+03	 1.107E+03	-1.823E+03	 1.150E+03	-6.805E-04	 2.253E-04	-1.227E-05	 2.361E-05	-6.497E+04	 4.475E+04	-7.028E+06	-5.553E+05	 8.363E+05	-6.517E+05	-6.497E+04	 4.475E+04	-7.165E+06	-6.448E+05	 7.064E+05	-6.517E+05	 1.202E+02	-1.462E+04	-5.471E+06	-2.368E+05	 1.541E+06	-2.779E+05	-4.515E+03	-4.921E+03	-1.562E+06	-1.753E+06	 5.517E+04	-5.261E+04	 3.821E+02	-9.064E+03	-1.355E+06	-1.129E+06	 1.428E+04	-5.187E+04	-9.399E+03	-1.121E+04	-1.179E+06	-1.060E+06	 5.002E+04	-4.064E+04	-5.387E+03	-1.587E+04	-3.938E+05	-5.243E+05	 2.858E+04	-5.928E+03	-4.157E+03	-2.955E+04	-2.576E+05	-4.845E+05	 4.462E+04	 6.553E+03	-6.501E+03	-3.161E+04	-2.646E+05	-4.773E+05	 9.460E+03	-1.808E+04	 8.369E+05	 1.652E+04	-2.384E+06	-1.854E+05	-2.310E+06	 3.668E+04
    0.4000	 8.000E+00	 0.000E+00	 0.000E+00	 2.232E+00	-3.830E-01	 0.000E+00	 0.000E+00	 2.140E+01	 8.929E+00	 8.795E+02	 1.164E-02	-5.734E-03	 0.000E+00	 1.095E+02	 1.108E+03	 1.231E+02	-8.527E+01	 1.834E+02	 1.838E+03	 4.425E+03	-2.869E+01	 2.326E+03	-2.977E+03	 7.710E+02	 1.299E+02	 3.027E+01	-3.453E+03	 2.211E+03	-1.865E+03	-6.972E+02	 7.905E+00	 3.827E+01	 2.985E+00	 2.116E+02	 9.302E-01	 1.652E+03	 1.900E+01	 3.863E+00	 8.963E-01	-6.903E-01	-5.501E-01	-4.440E-01	 1.486E+03	-9.376E+02	-1.904E+03	 1.201E+03	-7.662E+03	 4.835E+03	-7.215E-04	 1.322E-04	 1.251E-06	 3.683E-05	-3.968E+04	 2.435E+04	-6.949E+06	 1.135E+05	 1.297E+06	-7.193E+05	-3.968E+04	 2.435E+04	-7.086E+06	 6.485E+04	 1.217E+06	-7.193E+05	 7.254E+02	 1.762E+03	-5.425E+06	 1.817E+05	 2.072E+06	-3.085E+05	-5.959E+03	-1.082E+04	-1.466E+06	-2.615E+06	 6.893E+04	-5.320E+04	 2.238E+03	-1.240E+04	-1.237E+06	-1.743E+06	 1.562E+05	-6.214E+04	-1.134E+04	-1.206E+04	-1.142E+06	-1.684E+06	-8.735E+04	-4.597E+04	-5.850E+03	-1.012E+04	-3.621E+05	-5.540E+05	 3.112E+04	-7.905E+03	-3.722E+03	-2.692E+04	-1.937E+05	-5.068E+05	 5.251E+04	 1.235E+04	-8.259E+03	-2.915E+04	-1.760E+05	-5.056E+05	 8.682E+03	-2.377E+04	 8.184E+05	 1.653E+04	-2.247E+06	-2.000E+05	-3.421E+06	 4.484E+04
    0.4400	 8.000E+00	 0.000E+00	 0.000E+00	 2.472E+00	-4.090E-01	 0.000E+00	 0.000E+00	 2.354E+01	 8.901E+00	 8.808E+02	 1.678E-02	-6.882E-03	 0.000E+00	 1.143E+02	 1.229E+03	 1.280E+02	-8.846E+01	 1.745E+02	 1.892E+03	 4.720E+03	-2.548E+01	 1.701E+03	-3.136E+03	 9.453E+02	 1.384E+02	 2.465E+01	-3.617E+03	 1.601E+03	-2.041E+03	-6.908E+02	 7.874E+00	 3.797E+01	 2.974E+00	 2.100E+02	 8.561E-01	 1.662E+03	 1.908E+01	 3.839E+00	 8.746E-01	-7.084E-01	-5.645E-01	-4.333E-01	 1.263E+03	-7.972E+02	-2.053E+03	 1.296E+03	-8.467E+03	 5.343E+03	-4.145E-04	-7.482E-06	 1.246E-05	 4.460E-05	-2.290E+04	 1.301E+03	-7.427E+06	 6.637E+05	 1.962E+06	-7.073E+05	-2.290E+04	 1.301E+03	-7.563E+06	 6.611E+05	 1.916E+06	-7.073E+05	-3.087E+04	 1.765E+04	-5.434E+06	 4.578E+05	 2.019E+06	-3.151E+05	-6.278E+03	-4.765E+03	-1.500E+06	-2.774E+06	 8.519E+04	-5.063E+04	 5.865E+02	-6.582E+03	-1.428E+06	-1.890E+06	 2.621E+05	-6.740E+04	-9.639E+03	-4.251E+03	-1.448E+06	-1.850E+06	-1.719E+05	-4.751E+04	-5.833E+03	-5.663E+03	-3.562E+05	-5.608E+05	 3.214E+04	-8.129E+03	-3.248E+03	-1.935E+04	-2.168E+05	-5.074E+05	 5.507E+04	 1.129E+04	-9.042E+03	-2.074E+04	-1.865E+05	-5.111E+05	 9.105E+03	-2.239E+04	 8.084E+05	 1.626E+04	-2.236E+06	-2.145E+05	-3.942E+06	 5.275E+04
    0.4800	 8.000E+00	 0.000E+00	 0.000E+00	 2.681E+00	-4.383E-01	 0.000E+00	 0.000E+00	 2.567E+01	 8.894E+00	 8.774E+02	 2.300E-02	-7.948E-03	 0.000E+00	 1.381E+02	 1.329E+03	 1.331E+02	-8.895E+01	 1.753E+02	 1.940E+03	 4.976E+03	-2.624E+01	 1.098E+03	-3.137E+03	 1.105E+03	 1.398E+02	 1.571E+01	-3.630E+03	 1.025E+03	-2.079E+03	-6.210E+02	 7.848E+00	 3.772E+01	 2.964E+00	 2.086E+02	 7.559E-01	 1.661E+03	 1.915E+01	 3.816E+00	 8.529E-01	-7.265E-01	-5.789E-01	-4.226E-01	 1.113E+03	-7.021E+02	-2.203E+03	 1.390E+03	-2.845E+03	 1.796E+03	-6.466E-05	-1.580E-04	 2.108E-05	 6.742E-05	 1.365E+04	-1.944E+04	-7.479E+06	 1.100E+06	 3.485E+06	-6.434E+05	 1.365E+04	-1.944E+04	-7.616E+06	 1.138E+06	 3.512E+06	-6.434E+05	-4.720E+04	 3.218E+04	-5.455E+06	 6.209E+05	 2.584E+06	-3.007E+05	-5.924E+03	-4.235E+03	-1.430E+06	-2.057E+06	 9.320E+04	-4.564E+04	 1.456E+03	-3.075E+03	-1.490E+06	-1.548E+06	 3.164E+05	-7.434E+04	-1.043E+04	 6.952E+02	-1.630E+06	-1.529E+06	-2.016E+05	-3.970E+04	-5.537E+03	-9.664E+03	-4.026E+05	-5.293E+05	 3.184E+04	-7.341E+03	-3.106E+03	-2.034E+04	-2.428E+05	-5.002E+05	 5.848E+04	 1.329E+04	-8.789E+03	-2.042E+04	-2.090E+05	-5.074E+05	 5.741E+03	-2.389E+04	 8.944E+05	 1.445E+04	-2.187E+06	-2.106E+05	-2.941E+06	 5.529E+04
    0.5200	 8.000E+00	 0.000E+00	 0.000E+00	 2.857E+00	-4.645E-01	 0.000E+00	 0.000E+00	 2.781E+01	 8.900E+00	 8.703E+02	 3.032E-02	-8.872E-03	 0.000E+00	 1.496E+02	 1.416E+03	 1.343E+02	-9.204E+01	 1.835E+02	 2.027E+03	 5.140E+03	-2.598E+01	 7.367E+02	-3.090E+03	 1.276E+03	 1.353E+02	 1.478E+01	-3.461E+03	 6.737E+02	-2.189E+03	-5.466E+02	 7.821E+00	 3.747E+01	 2.954E+00	 2.072E+02	 6.057E-01	 1.650E+03	 1.918E+01	 3.785E+00	 8.295E-01	-7.431E-01	-5.921E-01	-4.110E-01	 1.107E+03	-6.988E+02	-2.348E+03	 1.481E+03	 4.354E+03	-2.748E+03	 3.734E-04	-2.524E-04	 2.799E-05	 9.817E-05	 6.639E+04	-3.108E+04	-6.987E+06	 1.499E+06	 5.283E+06	-5.509E+05	 6.639E+04	-3.108E+04	-7.123E+06	 1.561E+06	 5.415E+06	-5.509E+05	-8.544E+04	 4.143E+04	-5.461E+06	 7.881E+05	 3.337E+06	-2.675E+05	-5.459E+03	-1.059E+04	-1.124E+06	-1.069E+06	 7.764E+04	-3.742E+04	 2.660E+03	-5.684E+03	-1.403E+06	-9.386E+05	 2.473E+05	-8.064E+04	-1.019E+04	-7.371E+02	-1.616E+06	-9.555E+05	-1.132E+05	-2.398E+04	-4.842E+03	-2.170E+04	-4.417E+05	-4.911E+05	 2.732E+04	-7.006E+03	-3.233E+03	-2.844E+04	-2.576E+05	-4.877E+05	 5.431E+04	 1.349E+04	-7.185E+03	-2.779E+04	-2.174E+05	-4.991E+05	 4.063E+03	-2.192E+04	 1.115E+06	 9.421E+03	-1.940E+06	-1.622E+05	-9.058E+05	 4.424E+04
    0.5600	 8.000E+00	 0.000E+00	 0.000E+00	 2.996E+00	-4.871E-01	 0.000E+00	 0.000E+00	 2.995E+01	 8.894E+00	 8.616E+02	 3.876E-02	-9.613E-03	 0.000E+00	 1.374E+02	 1.482E+03	 1.343E+02	-1.036E+02	 1.847E+02	 2.210E+03	 5.238E+03	-2.547E+01	 6.860E+02	-3.127E+03	 1.511E+03	 1.363E+02	 1.921E+01	-3.439E+03	 6.219E+02	-2.317E+03	-4.581E+02	 7.802E+00	 3.728E+01	 2.946E+00	 2.061E+02	 4.092E-01	 1.632E+03	 1.916E+01	 3.747E+00	 8.045E-01	-7.583E-01	-6.042E-01	-3.986E-01	 1.221E+03	-7.707E+02	-2.488E+03	 1.570E+03	 8.281E+03	-5.225E+03	 8.160E-04	-2.927E-04	 3.376E-05	 1.345E-04	 1.393E+05	-3.893E+04	-6.934E+06	 1.811E+06	 6.968E+06	-4.697E+05	 1.393E+05	-3.893E+04	-7.071E+06	 1.889E+06	 7.247E+06	-4.697E+05	-1.483E+05	 4.593E+04	-5.477E+06	 9.714E+05	 4.226E+06	-2.244E+05	-5.346E+03	-1.207E+04	-9.384E+05	-5.218E+05	 4.783E+04	-2.790E+04	 3.523E+03	-2.670E+03	-1.507E+06	-4.849E+05	 8.060E+04	-8.731E+04	-9.266E+03	 3.423E+03	-1.753E+06	-5.214E+05	 3.973E+04	-4.135E+03	-4.122E+03	-2.640E+04	-4.928E+05	-4.671E+05	 2.161E+04	-7.327E+03	-3.594E+03	-3.028E+04	-2.795E+05	-4.758E+05	 4.438E+04	 1.186E+04	-5.229E+03	-2.968E+04	-2.278E+05	-4.909E+05	 6.220E+03	-1.772E+04	 1.224E+06	 2.670E+03	-1.784E+06	-8.754E+04	 6.463E+04	 2.596E+04
    0.6000	 8.000E+00	 0.000E+00	 0.000E+00	 3.099E+00	-5.135E-01	 0.000E+00	 0.000E+00	 3.208E+01	 8.861E+00	 8.535E+02	 4.830E-02	-1.017E-02	 0.000E+00	 1.333E+02	 1.527E+03	 1.356E+02	-1.185E+02	 1.812E+02	 2.453E+03	 5.299E+03	-2.531E+01	 8.635E+02	-3.185E+03	 1.769E+03	 1.527E+02	 2.161E+01	-3.570E+03	 7.988E+02	-2.289E+03	-4.027E+02	 7.779E+00	 3.707E+01	 2.938E+00	 2.050E+02	 1.954E-01	 1.611E+03	 1.909E+01	 3.708E+00	 7.795E-01	-7.734E-01	-6.163E-01	-3.862E-01	 1.377E+03	-8.690E+02	-2.628E+03	 1.658E+03	 7.207E+03	-4.548E+03	 9.103E-04	-3.161E-04	 3.607E-05	 1.799E-04	 2.009E+05	-4.587E+04	-7.367E+06	 1.865E+06	 8.871E+06	-3.948E+05	 2.009E+05	-4.587E+04	-7.504E+06	 1.956E+06	 9.273E+06	-3.948E+05	-1.953E+05	 5.043E+04	-5.486E+06	 1.025E+06	 5.831E+06	-1.748E+05	-4.330E+03	-1.100E+04	-1.027E+06	-7.293E+05	 3.262E+04	-1.750E+04	 8.144E+03	 6.190E+03	-1.695E+06	-5.678E+05	-4.708E+04	-9.334E+04	-1.199E+04	 1.277E+04	-1.967E+06	-5.625E+05	 1.082E+05	 1.995E+04	-3.040E+03	-1.776E+04	-5.728E+05	-4.616E+05	 1.510E+04	-6.224E+03	-3.130E+03	-2.555E+04	-2.586E+05	-4.824E+05	 3.513E+04	 1.717E+04	-3.626E+03	-2.505E+04	-2.038E+05	-4.964E+05	 9.633E+02	-2.146E+04	 1.100E+06	-7.698E+02	-1.859E+06	-4.731E+04	-8.915E+05	 1.521E+04
    0.6400	 8.000E+00	 0.000E+00	 0.000E+00	 3.167E+00	-5.523E-01	 0.000E+00	 0.000E+00	 3.420E+01	 8.813E+00	 8.473E+02	 5.897E-02	-1.057E-02	 0.000E+00	 1.702E+02	 1.562E+03	 1.330E+02	-1.295E+02	 1.812E+02	 2.710E+03	 5.287E+03	-2.609E+01	 1.137E+03	-3.221E+03	 2.054E+03	 1.595E+02	 1.625E+01	-3.549E+03	 1.089E+03	-2.460E+03	-3.201E+02	 7.759E+00	 3.688E+01	 2.930E+00	 2.039E+02	 4.194E-02	 1.590E+03	 1.898E+01	 3.670E+00	 7.545E-01	-7.886E-01	-6.284E-01	-3.738E-01	 1.450E+03	-9.150E+02	-2.769E+03	 1.747E+03	 1.201E+03	-7.578E+02	 6.363E-04	-2.779E-04	 3.374E-05	 2.143E-04	 1.863E+05	-4.280E+04	-7.348E+06	 1.674E+06	 1.054E+07	-3.266E+05	 1.863E+05	-4.280E+04	-7.485E+06	 1.759E+06	 1.091E+07	-3.266E+05	-2.447E+05	 4.887E+04	-5.445E+06	 9.657E+05	 7.387E+06	-1.261E+05	-3.446E+03	-1.702E+04	-1.043E+06	-1.620E+06	 2.679E+04	-9.367E+03	 1.324E+04	 6.101E+03	-1.615E+06	-1.099E+06	-1.037E+05	-9.477E+04	-1.585E+04	 1.235E+04	-1.863E+06	-1.039E+06	 9.122E+04	 3.960E+04	-2.130E+03	-8.641E+03	-5.901E+05	-4.895E+05	 1.059E+04	-4.969E+03	-2.183E+03	-2.417E+04	-1.723E+05	-5.049E+05	 2.853E+04	 2.514E+04	-2.943E+03	-2.417E+04	-1.191E+05	-5.156E+05	-4.919E+03	-2.858E+04	 9.733E+05	-1.304E+03	-1.841E+06	-3.324E+04	-2.484E+06	 1.166E+04
    0.6800	 8.000E+00	 0.000E+00	 0.000E+00	 3.202E+00	-6.051E-01	 0.000E+00	 0.000E+00	 3.631E+01	 8.774E+00	 8.432E+02	 7.066E-02	-1.088E-02	 0.000E+00	 2.655E+02	 1.581E+03	 1.323E+02	-1.314E+02	 1.891E+02	 2.924E+03	 5.259E+03	-3.062E+01	 1.429E+03	-3.099E+03	 2.244E+03	 1.835E+02	 1.019E+01	-3.397E+03	 1.400E+03	-2.401E+03	-2.155E+02	 7.746E+00	 3.675E+01	 2.925E+00	 2.032E+02	-2.908E-02	 1.571E+03	 1.885E+01	 3.631E+00	 7.295E-01	-8.038E-01	-6.405E-01	-3.614E-01	 1.367E+03	-8.624E+02	-2.909E+03	 1.836E+03	-5.245E+03	 3.310E+03	 1.596E-04	-1.341E-04	 2.549E-05	 2.484E-04	 1.558E+05	-1.448E+04	-6.933E+06	 1.333E+06	 1.215E+07	-2.179E+05	 1.558E+05	-1.448E+04	-7.070E+06	 1.362E+06	 1.247E+07	-2.179E+05	-2.756E+05	 3.890E+04	-5.385E+06	 8.069E+05	 9.166E+06	-7.263E+04	-2.609E+03	-3.018E+04	-9.856E+05	-2.598E+06	 2.026E+04	-2.662E+03	 2.033E+04	 5.935E+02	-1.377E+06	-1.641E+06	-9.875E+04	-9.329E+04	-2.109E+04	 5.242E+03	-1.508E+06	-1.574E+06	 4.848E+04	 6.009E+04	-1.096E+03	-2.099E+03	-6.048E+05	-5.188E+05	 5.146E+03	-4.020E+03	-7.464E+02	-2.813E+04	-5.371E+04	-5.304E+05	 2.440E+04	 3.767E+04	-2.299E+03	-2.920E+04	-6.527E+03	-5.375E+05	-1.310E+04	-3.895E+04	 8.600E+05	 2.357E+02	-1.785E+06	-2.994E+04	-3.822E+06	 1.013E+04
    0.7200	 8.000E+00	 0.000E+00	 0.000E+00	 3.208E+00	-6.626E-01	 0.000E+00	 0.000E+00	 3.841E+01	 8.762E+00	 8.414E+02	 8.328E-02	-1.115E-02	 0.000E+00	 3.816E+02	 1.585E+03	 1.329E+02	-1.321E+02	 1.919E+02	 3.138E+03	 5.219E+03	-3.677E+01	 1.737E+03	-2.972E+03	 2.426E+03	 2.228E+02	 3.889E+00	-3.404E+03	 1.729E+03	-2.215E+03	-8.520E+01	 7.729E+00	 3.659E+01	 2.919E+00	 2.023E+02	-5.338E-02	 1.557E+03	 1.871E+01	 3.593E+00	 7.045E-01	-8.189E-01	-6.526E-01	-3.490E-01	 1.177E+03	-7.429E+02	-3.050E+03	 1.924E+03	-8.137E+03	 5.135E+03	-1.531E-04	 5.743E-05	 1.465E-05	 2.788E-04	 1.381E+05	 2.541E+04	-6.990E+06	 9.475E+05	 1.351E+07	-7.067E+04	 1.381E+05	 2.541E+04	-7.126E+06	 8.967E+05	 1.379E+07	-7.067E+04	-3.174E+05	 2.329E+04	-5.381E+06	 6.122E+05	 1.060E+07	-1.764E+04	-1.910E+03	-3.538E+04	-1.077E+06	-3.087E+06	 1.390E+04	 3.022E+03	 2.553E+04	 2.410E+03	-1.416E+06	-1.706E+06	-1.407E+05	-9.032E+04	-2.403E+04	 4.941E+03	-1.384E+06	-1.671E+06	 9.640E+04	 8.017E+04	-3.643E+01	 4.350E+03	-6.697E+05	-5.264E+05	-6.069E+02	-3.419E+03	 2.742E+02	-2.925E+04	-1.475E+04	-5.315E+05	 1.676E+04	 4.639E+04	-9.777E+02	-3.166E+04	 2.552E+04	-5.361E+05	-1.594E+04	-4.435E+04	 6.884E+05	 2.870E+03	-1.919E+06	-3.191E+04	-4.723E+06	 1.055E+04
    0.7600	 8.000E+00	 0.000E+00	 0.000E+00	 3.193E+00	-7.105E-01	 0.000E+00	 0.000E+00	 4.052E+01	 8.782E+00	 8.421E+02	 9.674E-02	-1.143E-02	 0.000E+00	 4.751E+02	 1.579E+03	 1.339E+02	-1.358E+02	 1.914E+02	 3.349E+03	 5.178E+03	-4.177E+01	 2.087E+03	-2.821E+03	 2.583E+03	 2.619E+02	-2.868E+00	-3.509E+03	 2.100E+03	-1.982E+03	 3.973E+01	 7.711E+00	 3.642E+01	 2.912E+00	 2.014E+02	-7.372E-03	 1.547E+03	 1.858E+01	 3.551E+00	 6.788E-01	-8.333E-01	-6.640E-01	-3.363E-01	 9.952E+02	-6.280E+02	-3.187E+03	 2.011E+03	-5.577E+03	 3.519E+03	-2.130E-04	 1.737E-04	 5.539E-06	 3.067E-04	 1.335E+05	 5.138E+04	-7.343E+06	 5.715E+05	 1.488E+07	 5.508E+04	 1.335E+05	 5.138E+04	-7.480E+06	 4.688E+05	 1.514E+07	 5.508E+04	-3.694E+05	 1.233E+04	-5.428E+06	 3.920E+05	 1.168E+07	 2.404E+04	-1.061E+03	-3.382E+04	-1.242E+06	-2.803E+06	 1.850E+04	 6.589E+03	 2.797E+04	 9.511E+03	-1.631E+06	-1.241E+06	-2.561E+05	-9.027E+04	-2.541E+04	 1.026E+04	-1.500E+06	-1.213E+06	 2.253E+05	 9.708E+04	 7.016E+02	 6.933E+03	-7.785E+05	-5.040E+05	-3.419E+03	-2.190E+03	 1.983E+02	-3.002E+04	-5.367E+04	-5.100E+05	 7.419E+03	 4.943E+04	 7.248E+02	-3.297E+04	-2.479E+04	-5.113E+05	-1.307E+04	-4.558E+04	 5.336E+05	 6.377E+03	-2.170E+06	-5.061E+04	-4.619E+06	 1.715E+04
    0.8000	 8.000E+00	 0.000E+00	 0.000E+00	 3.163E+00	-7.379E-01	 0.000E+00	 0.000E+00	 4.263E+01	 8.821E+00	 8.457E+02	 1.109E-01	-1.181E-02	 0.000E+00	 5.263E+02	 1.564E+03	 1.353E+02	-1.388E+02	 1.979E+02	 3.492E+03	 5.155E+03	-4.401E+01	 2.464E+03	-2.510E+03	 2.572E+03	 2.900E+02	-7.030E+00	-3.439E+03	 2.490E+03	-1.635E+03	 1.114E+02	 7.690E+00	 3.622E+01	 2.904E+00	 2.003E+02	 1.299E-01	 1.544E+03	 1.847E+01	 3.498E+00	 6.511E-01	-8.452E-01	-6.735E-01	-3.226E-01	 9.128E+02	-5.760E+02	-3.315E+03	 2.092E+03	 8.776E+02	-5.537E+02	-1.388E-04	 1.811E-04	 9.200E-07	 3.421E-04	 1.391E+05	 5.573E+04	-7.173E+06	 3.169E+05	 1.690E+07	 1.252E+05	 1.391E+05	 5.573E+04	-7.310E+06	 2.054E+05	 1.718E+07	 1.252E+05	-4.108E+05	 9.379E+03	-5.461E+06	 2.147E+05	 1.298E+07	 4.723E+04	-8.486E+01	-3.870E+04	-1.200E+06	-1.963E+06	 2.559E+04	 8.700E+03	 3.089E+04	 1.080E+04	-1.631E+06	-6.097E+05	-3.670E+05	-9.669E+04	-2.830E+04	 1.067E+04	-1.495E+06	-5.563E+05	 3.393E+05	 1.127E+05	 1.111E+03	 7.474E+02	-8.840E+05	-4.610E+05	-4.216E+03	-5.822E+02	-5.177E+02	-3.782E+04	-7.796E+04	-4.911E+05	 2.483E+03	 5.302E+04	 2.310E+03	-4.043E+04	-6.129E+04	-4.889E+05	-1.221E+04	-4.911E+04	 5.400E+05	 8.455E+03	-2.248E+06	-6.527E+04	-3.170E+06	 2.348E+04