
Linearized model: Predictions were generated on 15-Feb-2024 at 13:25:20 using OpenFAST, compiled as a 64-bit application using double precision at commit v3.5.2-dirty
 linked with  NWTC Subroutine Library; ElastoDyn; HydroDyn; MAP++ (<1.20.10>, <Feb-12-2024>)

Description from the FAST input file: FAST Certification Test #24: NREL 5.0 MW Baseline Wind Turbine with OC3 Hywind Configuration, for use in offshore analysis

Simulation information:
   Simulation time:                     0.0000 s
   Rotor Speed:                         1.2671 rad/s
   Azimuth:                             0.0000 rad
   Wind Speed:                          0.0000 m/s
   Number of continuous states:        44
   Number of discrete states:           0
   Number of constraint states:         0
   Number of inputs:                    7
   Number of outputs:                 131
   Jacobians included in this file?    No

Order of continuous states:
   Row/Column Operating Point                                    Rotating Frame? Derivative Order Description
   ---------- ---------------                                    --------------- ---------------- -----------
          1     0.0000000E+00                                           F               2         ED Platform horizontal surge translation DOF (internal DOF index = DOF_Sg), m
          2     0.0000000E+00                                           F               2         ED Platform horizontal sway translation DOF (internal DOF index = DOF_Sw), m
          3     0.0000000E+00                                           F               2         ED Platform vertical heave translation DOF (internal DOF index = DOF_Hv), m
          4     0.0000000E+00                                           F               2         ED Platform roll tilt rotation DOF (internal DOF index = DOF_R), rad
          5     0.0000000E+00                                           F               2         ED Platform pitch tilt rotation DOF (internal DOF index = DOF_P), rad
          6     0.0000000E+00                                           F               2         ED Platform yaw rotation DOF (internal DOF index = DOF_Y), rad
          7     0.0000000E+00                                           F               2         ED 1st tower fore-aft bending mode DOF (internal DOF index = DOF_TFA1), m
          8    -0.0000000E+00                                           F               2         ED 1st tower side-to-side bending mode DOF (internal DOF index = DOF_TSS1), m
          9     0.0000000E+00                                           F               2         ED 2nd tower fore-aft bending mode DOF (internal DOF index = DOF_TFA2), m
         10     0.0000000E+00                                           F               2         ED 2nd tower side-to-side bending mode DOF (internal DOF index = DOF_TSS2), m
         11     0.0000000E+00                                           F               2         ED Nacelle yaw DOF (internal DOF index = DOF_Yaw), rad
         12     4.7123890E+00                                           F               2         ED Variable speed generator DOF (internal DOF index = DOF_GeAz), rad
         13     0.0000000E+00                                           F               2         ED Drivetrain rotational-flexibility DOF (internal DOF index = DOF_DrTr), rad
         14     0.0000000E+00                                           T               2         ED 1st flapwise bending-mode DOF of blade 1 (internal DOF index = DOF_BF(1,1)), m
         15     0.0000000E+00                                           T               2         ED 1st flapwise bending-mode DOF of blade 2 (internal DOF index = DOF_BF(2,1)), m
         16     0.0000000E+00                                           T               2         ED 1st flapwise bending-mode DOF of blade 3 (internal DOF index = DOF_BF(3,1)), m
         17     0.0000000E+00                                           T               2         ED 1st edgewise bending-mode DOF of blade 1 (internal DOF index = DOF_BE(1,1)), m
         18     0.0000000E+00                                           T               2         ED 1st edgewise bending-mode DOF of blade 2 (internal DOF index = DOF_BE(2,1)), m
         19     0.0000000E+00                                           T               2         ED 1st edgewise bending-mode DOF of blade 3 (internal DOF index = DOF_BE(3,1)), m
         20     0.0000000E+00                                           T               2         ED 2nd flapwise bending-mode DOF of blade 1 (internal DOF index = DOF_BF(1,2)), m
         21     0.0000000E+00                                           T               2         ED 2nd flapwise bending-mode DOF of blade 2 (internal DOF index = DOF_BF(2,2)), m
         22     0.0000000E+00                                           T               2         ED 2nd flapwise bending-mode DOF of blade 3 (internal DOF index = DOF_BF(3,2)), m
         23     0.0000000E+00                                           F               2         ED First time derivative of Platform horizontal surge translation DOF (internal DOF index = DOF_Sg), m/s
         24     0.0000000E+00                                           F               2         ED First time derivative of Platform horizontal sway translation DOF (internal DOF index = DOF_Sw), m/s
         25     0.0000000E+00                                           F               2         ED First time derivative of Platform vertical heave translation DOF (internal DOF index = DOF_Hv), m/s
         26     0.0000000E+00                                           F               2         ED First time derivative of Platform roll tilt rotation DOF (internal DOF index = DOF_R), rad/s
         27     0.0000000E+00                                           F               2         ED First time derivative of Platform pitch tilt rotation DOF (internal DOF index = DOF_P), rad/s
         28     0.0000000E+00                                           F               2         ED First time derivative of Platform yaw rotation DOF (internal DOF index = DOF_Y), rad/s
         29     0.0000000E+00                                           F               2         ED First time derivative of 1st tower fore-aft bending mode DOF (internal DOF index = DOF_TFA1), m/s
         30     0.0000000E+00                                           F               2         ED First time derivative of 1st tower side-to-side bending mode DOF (internal DOF index = DOF_TSS1), m/s
         31     0.0000000E+00                                           F               2         ED First time derivative of 2nd tower fore-aft bending mode DOF (internal DOF index = DOF_TFA2), m/s
         32     0.0000000E+00                                           F               2         ED First time derivative of 2nd tower side-to-side bending mode DOF (internal DOF index = DOF_TSS2), m/s
         33     0.0000000E+00                                           F               2         ED First time derivative of Nacelle yaw DOF (internal DOF index = DOF_Yaw), rad/s
         34     1.2671090E+00                                           F               2         ED First time derivative of Variable speed generator DOF (internal DOF index = DOF_GeAz), rad/s
         35     0.0000000E+00                                           F               2         ED First time derivative of Drivetrain rotational-flexibility DOF (internal DOF index = DOF_DrTr), rad/s
         36     0.0000000E+00                                           T               2         ED First time derivative of 1st flapwise bending-mode DOF of blade 1 (internal DOF index = DOF_BF(1,1)), m/s
         37     0.0000000E+00                                           T               2         ED First time derivative of 1st flapwise bending-mode DOF of blade 2 (internal DOF index = DOF_BF(2,1)), m/s
         38     0.0000000E+00                                           T               2         ED First time derivative of 1st flapwise bending-mode DOF of blade 3 (internal DOF index = DOF_BF(3,1)), m/s
         39     0.0000000E+00                                           T               2         ED First time derivative of 1st edgewise bending-mode DOF of blade 1 (internal DOF index = DOF_BE(1,1)), m/s
         40     0.0000000E+00                                           T               2         ED First time derivative of 1st edgewise bending-mode DOF of blade 2 (internal DOF index = DOF_BE(2,1)), m/s
         41     0.0000000E+00                                           T               2         ED First time derivative of 1st edgewise bending-mode DOF of blade 3 (internal DOF index = DOF_BE(3,1)), m/s
         42     0.0000000E+00                                           T               2         ED First time derivative of 2nd flapwise bending-mode DOF of blade 1 (internal DOF index = DOF_BF(1,2)), m/s
         43     0.0000000E+00                                           T               2         ED First time derivative of 2nd flapwise bending-mode DOF of blade 2 (internal DOF index = DOF_BF(2,2)), m/s
         44     0.0000000E+00                                           T               2         ED First time derivative of 2nd flapwise bending-mode DOF of blade 3 (internal DOF index = DOF_BF(3,2)), m/s

Order of continuous state derivatives:
   Row/Column Operating Point                                    Rotating Frame? Derivative Order Description
   ---------- ---------------                                    --------------- ---------------- -----------
          1     0.0000000E+00                                           F               2         First time derivative of ED Platform horizontal surge translation DOF (internal DOF index = DOF_Sg), m/s
          2     0.0000000E+00                                           F               2         First time derivative of ED Platform horizontal sway translation DOF (internal DOF index = DOF_Sw), m/s
          3     0.0000000E+00                                           F               2         First time derivative of ED Platform vertical heave translation DOF (internal DOF index = DOF_Hv), m/s
          4     0.0000000E+00                                           F               2         First time derivative of ED Platform roll tilt rotation DOF (internal DOF index = DOF_R), rad/s
          5     0.0000000E+00                                           F               2         First time derivative of ED Platform pitch tilt rotation DOF (internal DOF index = DOF_P), rad/s
          6     0.0000000E+00                                           F               2         First time derivative of ED Platform yaw rotation DOF (internal DOF index = DOF_Y), rad/s
          7     0.0000000E+00                                           F               2         First time derivative of ED 1st tower fore-aft bending mode DOF (internal DOF index = DOF_TFA1), m/s
          8     0.0000000E+00                                           F               2         First time derivative of ED 1st tower side-to-side bending mode DOF (internal DOF index = DOF_TSS1), m/s
          9     0.0000000E+00                                           F               2         First time derivative of ED 2nd tower fore-aft bending mode DOF (internal DOF index = DOF_TFA2), m/s
         10     0.0000000E+00                                           F               2         First time derivative of ED 2nd tower side-to-side bending mode DOF (internal DOF index = DOF_TSS2), m/s
         11     0.0000000E+00                                           F               2         First time derivative of ED Nacelle yaw DOF (internal DOF index = DOF_Yaw), rad/s
         12     1.2671090E+00                                           F               2         First time derivative of ED Variable speed generator DOF (internal DOF index = DOF_GeAz), rad/s
         13     0.0000000E+00                                           F               2         First time derivative of ED Drivetrain rotational-flexibility DOF (internal DOF index = DOF_DrTr), rad/s
         14     0.0000000E+00                                           T               2         First time derivative of ED 1st flapwise bending-mode DOF of blade 1 (internal DOF index = DOF_BF(1,1)), m/s
         15     0.0000000E+00                                           T               2         First time derivative of ED 1st flapwise bending-mode DOF of blade 2 (internal DOF index = DOF_BF(2,1)), m/s
         16     0.0000000E+00                                           T               2         First time derivative of ED 1st flapwise bending-mode DOF of blade 3 (internal DOF index = DOF_BF(3,1)), m/s
         17     0.0000000E+00                                           T               2         First time derivative of ED 1st edgewise bending-mode DOF of blade 1 (internal DOF index = DOF_BE(1,1)), m/s
         18     0.0000000E+00                                           T               2         First time derivative of ED 1st edgewise bending-mode DOF of blade 2 (internal DOF index = DOF_BE(2,1)), m/s
         19     0.0000000E+00                                           T               2         First time derivative of ED 1st edgewise bending-mode DOF of blade 3 (internal DOF index = DOF_BE(3,1)), m/s
         20     0.0000000E+00                                           T               2         First time derivative of ED 2nd flapwise bending-mode DOF of blade 1 (internal DOF index = DOF_BF(1,2)), m/s
         21     0.0000000E+00                                           T               2         First time derivative of ED 2nd flapwise bending-mode DOF of blade 2 (internal DOF index = DOF_BF(2,2)), m/s
         22     0.0000000E+00                                           T               2         First time derivative of ED 2nd flapwise bending-mode DOF of blade 3 (internal DOF index = DOF_BF(3,2)), m/s
         23    -8.6761661E-03                                           F               2         First time derivative of ED First time derivative of Platform horizontal surge translation DOF (internal DOF index = DOF_Sg), m/s/s
         24     2.0953514E-05                                           F               2         First time derivative of ED First time derivative of Platform horizontal sway translation DOF (internal DOF index = DOF_Sw), m/s/s
         25     1.3665119E-02                                           F               2         First time derivative of ED First time derivative of Platform vertical heave translation DOF (internal DOF index = DOF_Hv), m/s/s
         26    -2.4549490E-07                                           F               2         First time derivative of ED First time derivative of Platform roll tilt rotation DOF (internal DOF index = DOF_R), rad/s/s
         27    -1.0178285E-04                                           F               2         First time derivative of ED First time derivative of Platform pitch tilt rotation DOF (internal DOF index = DOF_P), rad/s/s
         28    -2.0138535E-18                                           F               2         First time derivative of ED First time derivative of Platform yaw rotation DOF (internal DOF index = DOF_Y), rad/s/s
         29    -2.5328570E-01                                           F               2         First time derivative of ED First time derivative of 1st tower fore-aft bending mode DOF (internal DOF index = DOF_TFA1), m/s/s
         30     6.8387739E-04                                           F               2         First time derivative of ED First time derivative of 1st tower side-to-side bending mode DOF (internal DOF index = DOF_TSS1), m/s/s
         31     5.0096695E-02                                           F               2         First time derivative of ED First time derivative of 2nd tower fore-aft bending mode DOF (internal DOF index = DOF_TFA2), m/s/s
         32     5.8353408E-05                                           F               2         First time derivative of ED First time derivative of 2nd tower side-to-side bending mode DOF (internal DOF index = DOF_TSS2), m/s/s
         33    -1.0197869E-02                                           F               2         First time derivative of ED First time derivative of Nacelle yaw DOF (internal DOF index = DOF_Yaw), rad/s/s
         34    -8.8976498E-06                                           F               2         First time derivative of ED First time derivative of Variable speed generator DOF (internal DOF index = DOF_GeAz), rad/s/s
         35    -6.1808419E-03                                           F               2         First time derivative of ED First time derivative of Drivetrain rotational-flexibility DOF (internal DOF index = DOF_DrTr), rad/s/s
         36     1.2590442E+01                                           T               2         First time derivative of ED First time derivative of 1st flapwise bending-mode DOF of blade 1 (internal DOF index = DOF_BF(1,1)), m/s/s
         37     1.3450748E+01                                           T               2         First time derivative of ED First time derivative of 1st flapwise bending-mode DOF of blade 2 (internal DOF index = DOF_BF(2,1)), m/s/s
         38     3.8160249E+00                                           T               2         First time derivative of ED First time derivative of 1st flapwise bending-mode DOF of blade 3 (internal DOF index = DOF_BF(3,1)), m/s/s
         39     1.9445469E+00                                           T               2         First time derivative of ED First time derivative of 1st edgewise bending-mode DOF of blade 1 (internal DOF index = DOF_BE(1,1)), m/s/s
         40    -1.5534016E+01                                           T               2         First time derivative of ED First time derivative of 1st edgewise bending-mode DOF of blade 2 (internal DOF index = DOF_BE(2,1)), m/s/s
         41     1.8480403E+01                                           T               2         First time derivative of ED First time derivative of 1st edgewise bending-mode DOF of blade 3 (internal DOF index = DOF_BE(3,1)), m/s/s
         42    -8.1878617E+00                                           T               2         First time derivative of ED First time derivative of 2nd flapwise bending-mode DOF of blade 1 (internal DOF index = DOF_BF(1,2)), m/s/s
         43    -9.8581017E+00                                           T               2         First time derivative of ED First time derivative of 2nd flapwise bending-mode DOF of blade 2 (internal DOF index = DOF_BF(2,2)), m/s/s
         44    -3.1224885E+00                                           T               2         First time derivative of ED First time derivative of 2nd flapwise bending-mode DOF of blade 3 (internal DOF index = DOF_BF(3,2)), m/s/s

Order of inputs:
     Column   Operating Point                                    Rotating Frame? Derivative Order Description
   ---------- ---------------                                    --------------- ---------------- -----------
          1     0.0000000E+00                                           T               0         ED Blade 1 pitch command, rad
          2     0.0000000E+00                                           T               0         ED Blade 2 pitch command, rad
          3     0.0000000E+00                                           T               0         ED Blade 3 pitch command, rad
          4     0.0000000E+00                                           F               0         ED Yaw moment, Nm
          5     0.0000000E+00                                           F               0         ED Generator torque, Nm
          6     0.0000000E+00                                           F               0         ED Extended input: collective blade-pitch command, rad
          7     0.0000000E+00                                           F               0         HD Extended input: wave elevation at platform ref point, m

Order of outputs:
        Row   Operating Point                                    Rotating Frame? Derivative Order Description
   ---------- ---------------                                    --------------- ---------------- -----------
          1     0.0000000E+00                                           T               0         ED BldPitch1, (deg)
          2     0.0000000E+00                                           T               0         ED BldPitch2, (deg)
          3     0.0000000E+00                                           T               0         ED BldPitch3, (deg)
          4     0.0000000E+00                                           F               0         ED Azimuth, (deg)
          5     1.2100000E+01                                           F               0         ED RotSpeed, (rpm)
          6     1.1737000E+03                                           F               0         ED GenSpeed, (rpm)
          7     0.0000000E+00                                           F               0         ED NacYaw, (deg)
          8     0.0000000E+00                                           T               0         ED OoPDefl1, (m)
          9     0.0000000E+00                                           T               0         ED IPDefl1, (m)
         10     0.0000000E+00                                           T               0         ED TwstDefl1, (deg)
         11     0.0000000E+00                                           T               0         ED OoPDefl2, (m)
         12     0.0000000E+00                                           T               0         ED IPDefl2, (m)
         13     0.0000000E+00                                           T               0         ED TwstDefl2, (deg)
         14     0.0000000E+00                                           T               0         ED OoPDefl3, (m)
         15     0.0000000E+00                                           T               0         ED IPDefl3, (m)
         16     0.0000000E+00                                           T               0         ED TwstDefl3, (deg)
         17     6.5378838E+01                                           T               0         ED TwrClrnc1, (m)
         18     5.5506073E+01                                           T               0         ED TwrClrnc2, (m)
         19     5.5506073E+01                                           T               0         ED TwrClrnc3, (m)
         20    -2.8971385E-01                                           F               0         ED NcIMUTAxs, (m/s^2)
         21     3.0923174E-02                                           F               0         ED NcIMUTAys, (m/s^2)
         22    -1.2062191E-01                                           F               0         ED NcIMUTAzs, (m/s^2)
         23     0.0000000E+00                                           F               0         ED TTDspFA, (m)
         24    -0.0000000E+00                                           F               0         ED TTDspSS, (m)
         25     0.0000000E+00                                           F               0         ED TTDspTwst, (deg)
         26     0.0000000E+00                                           F               0         ED PtfmSurge, (m)
         27     0.0000000E+00                                           F               0         ED PtfmSway, (m)
         28     0.0000000E+00                                           F               0         ED PtfmHeave, (m)
         29     0.0000000E+00                                           F               0         ED PtfmRoll, (deg)
         30     0.0000000E+00                                           F               0         ED PtfmPitch, (deg)
         31     0.0000000E+00                                           F               0         ED PtfmYaw, (deg)
         32    -8.6761661E-03                                           F               0         ED PtfmTAxt, (m/s^2)
         33     2.0953514E-05                                           F               0         ED PtfmTAyt, (m/s^2)
         34     1.3665119E-02                                           F               0         ED PtfmTAzt, (m/s^2)
         35     1.5219283E+01                                           T               0         ED RootFxc1, (kN)
         36    -5.7758329E-01                                           T               0         ED RootFyc1, (kN)
         37     4.5373026E+02                                           T               0         ED RootFzc1, (kN)
         38     3.8432991E+00                                           T               0         ED RootMxc1, (kN-m)
         39     1.3907798E+02                                           T               0         ED RootMyc1, (kN-m)
         40    -2.2316816E-15                                           T               0         ED RootMzc1, (kN-m)
         41     1.5802684E+01                                           T               0         ED RootFxc2, (kN)
         42    -8.9825860E+01                                           T               0         ED RootFyc2, (kN)
         43     7.0629865E+02                                           T               0         ED RootFzc2, (kN)
         44     8.1119504E+02                                           T               0         ED RootMxc2, (kN-m)
         45     1.0843073E+02                                           T               0         ED RootMyc2, (kN-m)
         46    -9.9475983E-14                                           T               0         ED RootMzc2, (kN-m)
         47     1.7501595E+01                                           T               0         ED RootFxc3, (kN)
         48     9.0213461E+01                                           T               0         ED RootFyc3, (kN)
         49     7.0477071E+02                                           T               0         ED RootFzc3, (kN)
         50    -8.1594140E+02                                           T               0         ED RootMxc3, (kN-m)
         51     1.6575571E+02                                           T               0         ED RootMyc3, (kN-m)
         52     5.6843419E-14                                           T               0         ED RootMzc3, (kN-m)
         53     4.2587021E+00                                           T               0         ED Spn1MLxb1, (kN-m)
         54    -1.3518820E+01                                           T               0         ED Spn1MLyb1, (kN-m)
         55     2.7314004E-17                                           T               0         ED Spn1MLzb1, (kN-m)
         56    -1.5278080E+02                                           T               0         ED Spn1MLxb2, (kN-m)
         57    -2.3443516E+01                                           T               0         ED Spn1MLyb2, (kN-m)
         58    -7.1054274E-15                                           T               0         ED Spn1MLzb2, (kN-m)
         59     1.6236702E+02                                           T               0         ED Spn1MLxb3, (kN-m)
         60    -1.8703614E-01                                           T               0         ED Spn1MLyb3, (kN-m)
         61    -5.3290705E-15                                           T               0         ED Spn1MLzb3, (kN-m)
         62     3.2116116E+01                                           F               0         ED RotThrust, (kN)
         63    -4.8881430E+00                                           F               0         ED LSSGagFya, (kN)
         64    -9.5159145E+02                                           F               0         ED LSSGagFza, (kN)
         65     5.2047255E-13                                           F               0         ED RotTorq, (kN-m)
         66    -1.8912749E+03                                           F               0         ED LSSGagMya, (kN-m)
         67    -4.2184083E+01                                           F               0         ED LSSGagMza, (kN-m)
         68     1.6777743E+01                                           F               0         ED YawBrFxp, (kN)
         69    -8.0817594E-02                                           F               0         ED YawBrFyp, (kN)
         70    -3.3236409E+03                                           F               0         ED YawBrFzp, (kN)
         71    -1.1724136E+00                                           F               0         ED YawBrMxp, (kN-m)
         72    -3.2097629E+02                                           F               0         ED YawBrMyp, (kN-m)
         73     2.1827873E-13                                           F               0         ED YawBrMzp, (kN-m)
         74    -1.4591795E+01                                           F               0         ED TwrBsFxt, (kN)
         75     3.5607495E-02                                           F               0         ED TwrBsFyt, (kN)
         76    -5.7759504E+03                                           F               0         ED TwrBsFzt, (kN)
         77    -6.2387705E-01                                           F               0         ED TwrBsMxt, (kN-m)
         78    -2.7335117E+02                                           F               0         ED TwrBsMyt, (kN-m)
         79     2.1827873E-13                                           F               0         ED TwrBsMzt, (kN-m)
         80     4.2447917E-01                                           F               0         ED TwHt1MLxt, (kN-m)