
Linearized model: Predictions were generated on 26-Feb-2024 at 21:57:01 using OpenFAST, compiled as a 64-bit application using double precision at commit -128-NOTFOUND
 linked with  NWTC Subroutine Library; ElastoDyn; HydroDyn; MAP++ (<1.20.10>, <Feb-26-2024>)

Description from the FAST input file: FAST Certification Test #24: NREL 5.0 MW Baseline Wind Turbine with OC3 Hywind Configuration, for use in offshore analysis

Simulation information:
   Simulation time:                     0.0000 s
   Rotor Speed:                         1.2671 rad/s
   Azimuth:                             0.0000 rad
   Wind Speed:                          0.0000 m/s
   Number of continuous states:        44
   Number of discrete states:           0
   Number of constraint states:         0
   Number of inputs:                    7
   Number of outputs:                 131
   Jacobians included in this file?    No

Order of continuous states:
   Row/Column Operating Point                                                   Rotating Frame? Derivative Order Description
   ---------- ---------------                                                   --------------- ---------------- -----------
          1    0.000000000000E+000                                                     F               2         ED Platform horizontal surge translation DOF (internal DOF index = DOF_Sg), m
          2    0.000000000000E+000                                                     F               2         ED Platform horizontal sway translation DOF (internal DOF index = DOF_Sw), m
          3    0.000000000000E+000                                                     F               2         ED Platform vertical heave translation DOF (internal DOF index = DOF_Hv), m
          4    0.000000000000E+000                                                     F               2         ED Platform roll tilt rotation DOF (internal DOF index = DOF_R), rad
          5    0.000000000000E+000                                                     F               2         ED Platform pitch tilt rotation DOF (internal DOF index = DOF_P), rad
          6    0.000000000000E+000                                                     F               2         ED Platform yaw rotation DOF (internal DOF index = DOF_Y), rad
          7    0.000000000000E+000                                                     F               2         ED 1st tower fore-aft bending mode DOF (internal DOF index = DOF_TFA1), m
          8   -0.000000000000E+000                                                     F               2         ED 1st tower side-to-side bending mode DOF (internal DOF index = DOF_TSS1), m
          9    0.000000000000E+000                                                     F               2         ED 2nd tower fore-aft bending mode DOF (internal DOF index = DOF_TFA2), m
         10    0.000000000000E+000                                                     F               2         ED 2nd tower side-to-side bending mode DOF (internal DOF index = DOF_TSS2), m
         11    0.000000000000E+000                                                     F               2         ED Nacelle yaw DOF (internal DOF index = DOF_Yaw), rad
         12    4.712388980385E+000                                                     F               2         ED Variable speed generator DOF (internal DOF index = DOF_GeAz), rad
         13    0.000000000000E+000                                                     F               2         ED Drivetrain rotational-flexibility DOF (internal DOF index = DOF_DrTr), rad
         14    0.000000000000E+000                                                     T               2         ED 1st flapwise bending-mode DOF of blade 1 (internal DOF index = DOF_BF(1,1)), m
         15    0.000000000000E+000                                                     T               2         ED 1st flapwise bending-mode DOF of blade 2 (internal DOF index = DOF_BF(2,1)), m
         16    0.000000000000E+000                                                     T               2         ED 1st flapwise bending-mode DOF of blade 3 (internal DOF index = DOF_BF(3,1)), m
         17    0.000000000000E+000                                                     T               2         ED 1st edgewise bending-mode DOF of blade 1 (internal DOF index = DOF_BE(1,1)), m
         18    0.000000000000E+000                                                     T               2         ED 1st edgewise bending-mode DOF of blade 2 (internal DOF index = DOF_BE(2,1)), m
         19    0.000000000000E+000                                                     T               2         ED 1st edgewise bending-mode DOF of blade 3 (internal DOF index = DOF_BE(3,1)), m
         20    0.000000000000E+000                                                     T               2         ED 2nd flapwise bending-mode DOF of blade 1 (internal DOF index = DOF_BF(1,2)), m
         21    0.000000000000E+000                                                     T               2         ED 2nd flapwise bending-mode DOF of blade 2 (internal DOF index = DOF_BF(2,2)), m
         22    0.000000000000E+000                                                     T               2         ED 2nd flapwise bending-mode DOF of blade 3 (internal DOF index = DOF_BF(3,2)), m
         23    0.000000000000E+000                                                     F               2         ED First time derivative of Platform horizontal surge translation DOF (internal DOF index = DOF_Sg), m/s
         24    0.000000000000E+000                                                     F               2         ED First time derivative of Platform horizontal sway translation DOF (internal DOF index = DOF_Sw), m/s
         25    0.000000000000E+000                                                     F               2         ED First time derivative of Platform vertical heave translation DOF (internal DOF index = DOF_Hv), m/s
         26    0.000000000000E+000                                                     F               2         ED First time derivative of Platform roll tilt rotation DOF (internal DOF index = DOF_R), rad/s
         27    0.000000000000E+000                                                     F               2         ED First time derivative of Platform pitch tilt rotation DOF (internal DOF index = DOF_P), rad/s
         28    0.000000000000E+000                                                     F               2         ED First time derivative of Platform yaw rotation DOF (internal DOF index = DOF_Y), rad/s
         29    0.000000000000E+000                                                     F               2         ED First time derivative of 1st tower fore-aft bending mode DOF (internal DOF index = DOF_TFA1), m/s
         30    0.000000000000E+000                                                     F               2         ED First time derivative of 1st tower side-to-side bending mode DOF (internal DOF index = DOF_TSS1), m/s
         31    0.000000000000E+000                                                     F               2         ED First time derivative of 2nd tower fore-aft bending mode DOF (internal DOF index = DOF_TFA2), m/s
         32    0.000000000000E+000                                                     F               2         ED First time derivative of 2nd tower side-to-side bending mode DOF (internal DOF index = DOF_TSS2), m/s
         33    0.000000000000E+000                                                     F               2         ED First time derivative of Nacelle yaw DOF (internal DOF index = DOF_Yaw), rad/s
         34    1.267109036948E+000                                                     F               2         ED First time derivative of Variable speed generator DOF (internal DOF index = DOF_GeAz), rad/s
         35    0.000000000000E+000                                                     F               2         ED First time derivative of Drivetrain rotational-flexibility DOF (internal DOF index = DOF_DrTr), rad/s
         36    0.000000000000E+000                                                     T               2         ED First time derivative of 1st flapwise bending-mode DOF of blade 1 (internal DOF index = DOF_BF(1,1)), m/s
         37    0.000000000000E+000                                                     T               2         ED First time derivative of 1st flapwise bending-mode DOF of blade 2 (internal DOF index = DOF_BF(2,1)), m/s
         38    0.000000000000E+000                                                     T               2         ED First time derivative of 1st flapwise bending-mode DOF of blade 3 (internal DOF index = DOF_BF(3,1)), m/s
         39    0.000000000000E+000                                                     T               2         ED First time derivative of 1st edgewise bending-mode DOF of blade 1 (internal DOF index = DOF_BE(1,1)), m/s
         40    0.000000000000E+000                                                     T               2         ED First time derivative of 1st edgewise bending-mode DOF of blade 2 (internal DOF index = DOF_BE(2,1)), m/s
         41    0.000000000000E+000                                                     T               2         ED First time derivative of 1st edgewise bending-mode DOF of blade 3 (internal DOF index = DOF_BE(3,1)), m/s
         42    0.000000000000E+000                                                     T               2         ED First time derivative of 2nd flapwise bending-mode DOF of blade 1 (internal DOF index = DOF_BF(1,2)), m/s
         43    0.000000000000E+000                                                     T               2         ED First time derivative of 2nd flapwise bending-mode DOF of blade 2 (internal DOF index = DOF_BF(2,2)), m/s
         44    0.000000000000E+000                                                     T               2         ED First time derivative of 2nd flapwise bending-mode DOF of blade 3 (internal DOF index = DOF_BF(3,2)), m/s

Order of continuous state derivatives:
   Row/Column Operating Point                                                   Rotating Frame? Derivative Order Description
   ---------- ---------------                                                   --------------- ---------------- -----------
          1    0.000000000000E+000                                                     F               2         First time derivative of ED Platform horizontal surge translation DOF (internal DOF index = DOF_Sg), m/s
          2    0.000000000000E+000                                                     F               2         First time derivative of ED Platform horizontal sway translation DOF (internal DOF index = DOF_Sw), m/s
          3    0.000000000000E+000                                                     F               2         First time derivative of ED Platform vertical heave translation DOF (internal DOF index = DOF_Hv), m/s
          4    0.000000000000E+000                                                     F               2         First time derivative of ED Platform roll tilt rotation DOF (internal DOF index = DOF_R), rad/s
          5    0.000000000000E+000                                                     F               2         First time derivative of ED Platform pitch tilt rotation DOF (internal DOF index = DOF_P), rad/s
          6    0.000000000000E+000                                                     F               2         First time derivative of ED Platform yaw rotation DOF (internal DOF index = DOF_Y), rad/s
          7    0.000000000000E+000                                                     F               2         First time derivative of ED 1st tower fore-aft bending mode DOF (internal DOF index = DOF_TFA1), m/s
          8    0.000000000000E+000                                                     F               2         First time derivative of ED 1st tower side-to-side bending mode DOF (internal DOF index = DOF_TSS1), m/s
          9    0.000000000000E+000                                                     F               2         First time derivative of ED 2nd tower fore-aft bending mode DOF (internal DOF index = DOF_TFA2), m/s
         10    0.000000000000E+000                                                     F               2         First time derivative of ED 2nd tower side-to-side bending mode DOF (internal DOF index = DOF_TSS2), m/s
         11    0.000000000000E+000                                                     F               2         First time derivative of ED Nacelle yaw DOF (internal DOF index = DOF_Yaw), rad/s
         12    1.267109036948E+000                                                     F               2         First time derivative of ED Variable speed generator DOF (internal DOF index = DOF_GeAz), rad/s
         13    0.000000000000E+000                                                     F               2         First time derivative of ED Drivetrain rotational-flexibility DOF (internal DOF index = DOF_DrTr), rad/s
         14    0.000000000000E+000                                                     T               2         First time derivative of ED 1st flapwise bending-mode DOF of blade 1 (internal DOF index = DOF_BF(1,1)), m/s
         15    0.000000000000E+000                                                     T               2         First time derivative of ED 1st flapwise bending-mode DOF of blade 2 (internal DOF index = DOF_BF(2,1)), m/s
         16    0.000000000000E+000                                                     T               2         First time derivative of ED 1st flapwise bending-mode DOF of blade 3 (internal DOF index = DOF_BF(3,1)), m/s
         17    0.000000000000E+000                                                     T               2         First time derivative of ED 1st edgewise bending-mode DOF of blade 1 (internal DOF index = DOF_BE(1,1)), m/s
         18    0.000000000000E+000                                                     T               2         First time derivative of ED 1st edgewise bending-mode DOF of blade 2 (internal DOF index = DOF_BE(2,1)), m/s
         19    0.000000000000E+000                                                     T               2         First time derivative of ED 1st edgewise bending-mode DOF of blade 3 (internal DOF index = DOF_BE(3,1)), m/s
         20    0.000000000000E+000                                                     T               2         First time derivative of ED 2nd flapwise bending-mode DOF of blade 1 (internal DOF index = DOF_BF(1,2)), m/s
         21    0.000000000000E+000                                                     T               2         First time derivative of ED 2nd flapwise bending-mode DOF of blade 2 (internal DOF index = DOF_BF(2,2)), m/s
         22    0.000000000000E+000                                                     T               2         First time derivative of ED 2nd flapwise bending-mode DOF of blade 3 (internal DOF index = DOF_BF(3,2)), m/s
         23   -8.676166058700E-003                                                     F               2         First time derivative of ED First time derivative of Platform horizontal surge translation DOF (internal DOF index = DOF_Sg), m/s/s
         24    2.095351384086E-005                                                     F               2         First time derivative of ED First time derivative of Platform horizontal sway translation DOF (internal DOF index = DOF_Sw), m/s/s
         25    1.366511900027E-002                                                     F               2         First time derivative of ED First time derivative of Platform vertical heave translation DOF (internal DOF index = DOF_Hv), m/s/s
         26   -2.454949020156E-007                                                     F               2         First time derivative of ED First time derivative of Platform roll tilt rotation DOF (internal DOF index = DOF_R), rad/s/s
         27   -1.017828513647E-004                                                     F               2         First time derivative of ED First time derivative of Platform pitch tilt rotation DOF (internal DOF index = DOF_P), rad/s/s
         28   -2.158690360685E-018                                                     F               2         First time derivative of ED First time derivative of Platform yaw rotation DOF (internal DOF index = DOF_Y), rad/s/s
         29   -2.532857044755E-001                                                     F               2         First time derivative of ED First time derivative of 1st tower fore-aft bending mode DOF (internal DOF index = DOF_TFA1), m/s/s
         30    6.838773868209E-004                                                     F               2         First time derivative of ED First time derivative of 1st tower side-to-side bending mode DOF (internal DOF index = DOF_TSS1), m/s/s
         31    5.009669479362E-002                                                     F               2         First time derivative of ED First time derivative of 2nd tower fore-aft bending mode DOF (internal DOF index = DOF_TFA2), m/s/s
         32    5.835340811070E-005                                                     F               2         First time derivative of ED First time derivative of 2nd tower side-to-side bending mode DOF (internal DOF index = DOF_TSS2), m/s/s
         33   -1.019786914156E-002                                                     F               2         First time derivative of ED First time derivative of Nacelle yaw DOF (internal DOF index = DOF_Yaw), rad/s/s
         34   -8.897649798098E-006                                                     F               2         First time derivative of ED First time derivative of Variable speed generator DOF (internal DOF index = DOF_GeAz), rad/s/s
         35   -6.180841946763E-003                                                     F               2         First time derivative of ED First time derivative of Drivetrain rotational-flexibility DOF (internal DOF index = DOF_DrTr), rad/s/s
         36    1.259044239606E+001                                                     T               2         First time derivative of ED First time derivative of 1st flapwise bending-mode DOF of blade 1 (internal DOF index = DOF_BF(1,1)), m/s/s
         37    1.345074766304E+001                                                     T               2         First time derivative of ED First time derivative of 1st flapwise bending-mode DOF of blade 2 (internal DOF index = DOF_BF(2,1)), m/s/s
         38    3.816024927939E+000                                                     T               2         First time derivative of ED First time derivative of 1st flapwise bending-mode DOF of blade 3 (internal DOF index = DOF_BF(3,1)), m/s/s
         39    1.944546914422E+000                                                     T               2         First time derivative of ED First time derivative of 1st edgewise bending-mode DOF of blade 1 (internal DOF index = DOF_BE(1,1)), m/s/s
         40   -1.553401619795E+001                                                     T               2         First time derivative of ED First time derivative of 1st edgewise bending-mode DOF of blade 2 (internal DOF index = DOF_BE(2,1)), m/s/s
         41    1.848040307788E+001                                                     T               2         First time derivative of ED First time derivative of 1st edgewise bending-mode DOF of blade 3 (internal DOF index = DOF_BE(3,1)), m/s/s
         42   -8.187861669906E+000                                                     T               2         First time derivative of ED First time derivative of 2nd flapwise bending-mode DOF of blade 1 (internal DOF index = DOF_BF(1,2)), m/s/s
         43   -9.858101674497E+000                                                     T               2         First time derivative of ED First time derivative of 2nd flapwise bending-mode DOF of blade 2 (internal DOF index = DOF_BF(2,2)), m/s/s
         44   -3.122488497886E+000                                                     T               2         First time derivative of ED First time derivative of 2nd flapwise bending-mode DOF of blade 3 (internal DOF index = DOF_BF(3,2)), m/s/s

Order of inputs:
     Column   Operating Point                                                   Rotating Frame? Derivative Order Description
   ---------- ---------------                                                   --------------- ---------------- -----------
          1    0.000000000000E+000                                                     T               0         ED Blade 1 pitch command, rad
          2    0.000000000000E+000                                                     T               0         ED Blade 2 pitch command, rad
          3    0.000000000000E+000                                                     T               0         ED Blade 3 pitch command, rad
          4    0.000000000000E+000                                                     F               0         ED Yaw moment, Nm
          5    0.000000000000E+000                                                     F               0         ED Generator torque, Nm
          6    0.000000000000E+000                                                     F               0         ED Extended input: collective blade-pitch command, rad
          7    0.000000000000E+000                                                     F               0         HD Extended input: wave elevation at platform ref point, m

Order of outputs:
        Row   Operating Point                                                   Rotating Frame? Derivative Order Description
   ---------- ---------------                                                   --------------- ---------------- -----------
          1    0.000000000000E+000                                                     T               0         ED BldPitch1, (deg)
          2    0.000000000000E+000                                                     T               0         ED BldPitch2, (deg)
          3    0.000000000000E+000                                                     T               0         ED BldPitch3, (deg)
          4    0.000000000000E+000                                                     F               0         ED Azimuth, (deg)
          5    1.210000000000E+001                                                     F               0         ED RotSpeed, (rpm)
          6    1.173700000000E+003                                                     F               0         ED GenSpeed, (rpm)
          7    0.000000000000E+000                                                     F               0         ED NacYaw, (deg)
          8    0.000000000000E+000                                                     T               0         ED OoPDefl1, (m)
          9    0.000000000000E+000                                                     T               0         ED IPDefl1, (m)
         10    0.000000000000E+000                                                     T               0         ED TwstDefl1, (deg)
         11    0.000000000000E+000                                                     T               0         ED OoPDefl2, (m)
         12    0.000000000000E+000                                                     T               0         ED IPDefl2, (m)
         13    0.000000000000E+000                                                     T               0         ED TwstDefl2, (deg)
         14    0.000000000000E+000                                                     T               0         ED OoPDefl3, (m)
         15    0.000000000000E+000                                                     T               0         ED IPDefl3, (m)
         16    0.000000000000E+000                                                     T               0         ED TwstDefl3, (deg)
         17    6.537883766641E+001                                                     T               0         ED TwrClrnc1, (m)
         18    5.550607343734E+001                                                     T               0         ED TwrClrnc2, (m)
         19    5.550607343734E+001                                                     T               0         ED TwrClrnc3, (m)
         20   -2.897138463439E-001                                                     F               0         ED NcIMUTAxs, (m/s^2)
         21    3.092317418481E-002                                                     F               0         ED NcIMUTAys, (m/s^2)
         22   -1.206219135138E-001                                                     F               0         ED NcIMUTAzs, (m/s^2)
         23    0.000000000000E+000                                                     F               0         ED TTDspFA, (m)
         24   -0.000000000000E+000                                                     F               0         ED TTDspSS, (m)
         25    0.000000000000E+000                                                     F               0         ED TTDspTwst, (deg)
         26    0.000000000000E+000                                                     F               0         ED PtfmSurge, (m)
         27    0.000000000000E+000                                                     F               0         ED PtfmSway, (m)
         28    0.000000000000E+000                                                     F               0         ED PtfmHeave, (m)
         29    0.000000000000E+000                                                     F               0         ED PtfmRoll, (deg)
         30    0.000000000000E+000                                                     F               0         ED PtfmPitch, (deg)
         31    0.000000000000E+000                                                     F               0         ED PtfmYaw, (deg)
         32   -8.676166058700E-003                                                     F               0         ED PtfmTAxt, (m/s^2)
         33    2.095351384086E-005                                                     F               0         ED PtfmTAyt, (m/s^2)
         34    1.366511900027E-002                                                     F               0         ED PtfmTAzt, (m/s^2)
         35    1.521928278888E+001                                                     T               0         ED RootFxc1, (kN)
         36   -5.775832932005E-001                                                     T               0         ED RootFyc1, (kN)
         37    4.537302641565E+002                                                     T               0         ED RootFzc1, (kN)
         38    3.843299106812E+000                                                     T               0         ED RootMxc1, (kN-m)
         39    1.390779791162E+002                                                     T               0         ED RootMyc1, (kN-m)
         40   -1.537792166946E-015                                                     T               0         ED RootMzc1, (kN-m)
         41    1.580268384109E+001                                                     T               0         ED RootFxc2, (kN)
         42   -8.982586010982E+001                                                     T               0         ED RootFyc2, (kN)
         43    7.062986501597E+002                                                     T               0         ED RootFzc2, (kN)
         44    8.111950419527E+002                                                     T               0         ED RootMxc2, (kN-m)
         45    1.084307290588E+002                                                     T               0         ED RootMyc2, (kN-m)
         46    3.126388037344E-013                                                     T               0         ED RootMzc2, (kN-m)
         47    1.750159502927E+001                                                     T               0         ED RootFxc3, (kN)
         48    9.021346118130E+001                                                     T               0         ED RootFyc3, (kN)
         49    7.047707117142E+002                                                     T               0         ED RootFzc3, (kN)
         50   -8.159414019387E+002                                                     T               0         ED RootMxc3, (kN-m)
         51    1.657557121653E+002                                                     T               0         ED RootMyc3, (kN-m)
         52    1.421085471520E-014                                                     T               0         ED RootMzc3, (kN-m)
         53    4.258702065117E+000                                                     T               0         ED Spn1MLxb1, (kN-m)
         54   -1.351881980067E+001                                                     T               0         ED Spn1MLyb1, (kN-m)
         55    4.119179215062E-017                                                     T               0         ED Spn1MLzb1, (kN-m)
         56   -1.527807986125E+002                                                     T               0         ED Spn1MLxb2, (kN-m)
         57   -2.344351600331E+001                                                     T               0         ED Spn1MLyb2, (kN-m)
         58    5.329070518201E-015                                                     T               0         ED Spn1MLzb2, (kN-m)
         59    1.623670164588E+002                                                     T               0         ED Spn1MLxb3, (kN-m)