
Linearized model: Predictions were generated on 11-Oct-2025 at 16:04:44 using OpenFAST, compiled on Oct 10 2025 at 17:31:28 as a 64-bit application using double precision at commit v4.1.2-727-g39496902
 linked with  NWTC Subroutine Library; ElastoDyn; SeaState; HydroDyn; MAP++ (<1.20.10>, <Oct-08-2025>)

Description from the FAST input file: FAST Certification Test #24: NREL 5.0 MW Baseline Wind Turbine with OC3 Hywind Configuration, for use in offshore analysis

Simulation information:
   Simulation time:                     0.0000 s
   Rotor Speed:                         1.2671 rad/s
   Azimuth:                             0.0000 rad
   Wind Speed:                          0.0000 m/s
   Number of continuous states:        44
   Number of discrete states:           0
   Number of constraint states:         0
   Number of inputs:                   13
   Number of outputs:                 131
   Jacobians included in this file?    No

Order of continuous states:
   Row/Column Operating Point                                                   Rotating Frame? Derivative Order Description
   ---------- ---------------                                                   --------------- ---------------- -----------
          1    0.000000000000E+000                                                     F               2         ED Platform horizontal surge translation DOF (internal DOF index = DOF_Sg), m
          2    0.000000000000E+000                                                     F               2         ED Platform horizontal sway translation DOF (internal DOF index = DOF_Sw), m
          3    0.000000000000E+000                                                     F               2         ED Platform vertical heave translation DOF (internal DOF index = DOF_Hv), m
          4    0.000000000000E+000                                                     F               2         ED Platform roll tilt rotation DOF (internal DOF index = DOF_R), rad
          5    0.000000000000E+000                                                     F               2         ED Platform pitch tilt rotation DOF (internal DOF index = DOF_P), rad
          6    0.000000000000E+000                                                     F               2         ED Platform yaw rotation DOF (internal DOF index = DOF_Y), rad
          7    0.000000000000E+000                                                     F               2         ED 1st tower fore-aft bending mode DOF (internal DOF index = DOF_TFA1), m
          8    0.000000000000E+000                                                     F               2         ED 1st tower side-to-side bending mode DOF (internal DOF index = DOF_TSS1), m
          9    0.000000000000E+000                                                     F               2         ED 2nd tower fore-aft bending mode DOF (internal DOF index = DOF_TFA2), m
         10    0.000000000000E+000                                                     F               2         ED 2nd tower side-to-side bending mode DOF (internal DOF index = DOF_TSS2), m
         11    0.000000000000E+000                                                     F               2         ED Nacelle yaw DOF (internal DOF index = DOF_Yaw), rad
         12    4.712388980385E+000                                                     F               2         ED Variable speed generator DOF (internal DOF index = DOF_GeAz), rad
         13    0.000000000000E+000                                                     F               2         ED Drivetrain rotational-flexibility DOF (internal DOF index = DOF_DrTr), rad
         14    0.000000000000E+000                                                     T               2         ED 1st flapwise bending-mode DOF of blade 1 (internal DOF index = DOF_BF(1,1)), m
         15    0.000000000000E+000                                                     T               2         ED 1st flapwise bending-mode DOF of blade 2 (internal DOF index = DOF_BF(2,1)), m
         16    0.000000000000E+000                                                     T               2         ED 1st flapwise bending-mode DOF of blade 3 (internal DOF index = DOF_BF(3,1)), m
         17    0.000000000000E+000                                                     T               2         ED 1st edgewise bending-mode DOF of blade 1 (internal DOF index = DOF_BE(1,1)), m
         18    0.000000000000E+000                                                     T               2         ED 1st edgewise bending-mode DOF of blade 2 (internal DOF index = DOF_BE(2,1)), m
         19    0.000000000000E+000                                                     T               2         ED 1st edgewise bending-mode DOF of blade 3 (internal DOF index = DOF_BE(3,1)), m
         20    0.000000000000E+000                                                     T               2         ED 2nd flapwise bending-mode DOF of blade 1 (internal DOF index = DOF_BF(1,2)), m
         21    0.000000000000E+000                                                     T               2         ED 2nd flapwise bending-mode DOF of blade 2 (internal DOF index = DOF_BF(2,2)), m
         22    0.000000000000E+000                                                     T               2         ED 2nd flapwise bending-mode DOF of blade 3 (internal DOF index = DOF_BF(3,2)), m
         23    0.000000000000E+000                                                     F               2         ED First time derivative of Platform horizontal surge translation DOF (internal DOF index = DOF_Sg), m/s
         24    0.000000000000E+000                                                     F               2         ED First time derivative of Platform horizontal sway translation DOF (internal DOF index = DOF_Sw), m/s
         25    0.000000000000E+000                                                     F               2         ED First time derivative of Platform vertical heave translation DOF (internal DOF index = DOF_Hv), m/s
         26    0.000000000000E+000                                                     F               2         ED First time derivative of Platform roll tilt rotation DOF (internal DOF index = DOF_R), rad/s
         27    0.000000000000E+000                                                     F               2         ED First time derivative of Platform pitch tilt rotation DOF (internal DOF index = DOF_P), rad/s
         28    0.000000000000E+000                                                     F               2         ED First time derivative of Platform yaw rotation DOF (internal DOF index = DOF_Y), rad/s
         29    0.000000000000E+000                                                     F               2         ED First time derivative of 1st tower fore-aft bending mode DOF (internal DOF index = DOF_TFA1), m/s
         30    0.000000000000E+000                                                     F               2         ED First time derivative of 1st tower side-to-side bending mode DOF (internal DOF index = DOF_TSS1), m/s
         31    0.000000000000E+000                                                     F               2         ED First time derivative of 2nd tower fore-aft bending mode DOF (internal DOF index = DOF_TFA2), m/s
         32    0.000000000000E+000                                                     F               2         ED First time derivative of 2nd tower side-to-side bending mode DOF (internal DOF index = DOF_TSS2), m/s
         33    0.000000000000E+000                                                     F               2         ED First time derivative of Nacelle yaw DOF (internal DOF index = DOF_Yaw), rad/s
         34    1.267109036948E+000                                                     F               2         ED First time derivative of Variable speed generator DOF (internal DOF index = DOF_GeAz), rad/s
         35    0.000000000000E+000                                                     F               2         ED First time derivative of Drivetrain rotational-flexibility DOF (internal DOF index = DOF_DrTr), rad/s
         36    0.000000000000E+000                                                     T               2         ED First time derivative of 1st flapwise bending-mode DOF of blade 1 (internal DOF index = DOF_BF(1,1)), m/s
         37    0.000000000000E+000                                                     T               2         ED First time derivative of 1st flapwise bending-mode DOF of blade 2 (internal DOF index = DOF_BF(2,1)), m/s
         38    0.000000000000E+000                                                     T               2         ED First time derivative of 1st flapwise bending-mode DOF of blade 3 (internal DOF index = DOF_BF(3,1)), m/s
         39    0.000000000000E+000                                                     T               2         ED First time derivative of 1st edgewise bending-mode DOF of blade 1 (internal DOF index = DOF_BE(1,1)), m/s
         40    0.000000000000E+000                                                     T               2         ED First time derivative of 1st edgewise bending-mode DOF of blade 2 (internal DOF index = DOF_BE(2,1)), m/s
         41    0.000000000000E+000                                                     T               2         ED First time derivative of 1st edgewise bending-mode DOF of blade 3 (internal DOF index = DOF_BE(3,1)), m/s
         42    0.000000000000E+000                                                     T               2         ED First time derivative of 2nd flapwise bending-mode DOF of blade 1 (internal DOF index = DOF_BF(1,2)), m/s
         43    0.000000000000E+000                                                     T               2         ED First time derivative of 2nd flapwise bending-mode DOF of blade 2 (internal DOF index = DOF_BF(2,2)), m/s
         44    0.000000000000E+000                                                     T               2         ED First time derivative of 2nd flapwise bending-mode DOF of blade 3 (internal DOF index = DOF_BF(3,2)), m/s

Order of continuous state derivatives:
   Row/Column Operating Point                                                   Rotating Frame? Derivative Order Description
   ---------- ---------------                                                   --------------- ---------------- -----------
          1    0.000000000000E+000                                                     F               2         First time derivative of ED Platform horizontal surge translation DOF (internal DOF index = DOF_Sg), m/s
          2    0.000000000000E+000                                                     F               2         First time derivative of ED Platform horizontal sway translation DOF (internal DOF index = DOF_Sw), m/s
          3    0.000000000000E+000                                                     F               2         First time derivative of ED Platform vertical heave translation DOF (internal DOF index = DOF_Hv), m/s
          4    0.000000000000E+000                                                     F               2         First time derivative of ED Platform roll tilt rotation DOF (internal DOF index = DOF_R), rad/s
          5    0.000000000000E+000                                                     F               2         First time derivative of ED Platform pitch tilt rotation DOF (internal DOF index = DOF_P), rad/s
          6    0.000000000000E+000                                                     F               2         First time derivative of ED Platform yaw rotation DOF (internal DOF index = DOF_Y), rad/s
          7    0.000000000000E+000                                                     F               2         First time derivative of ED 1st tower fore-aft bending mode DOF (internal DOF index = DOF_TFA1), m/s
          8    0.000000000000E+000                                                     F               2         First time derivative of ED 1st tower side-to-side bending mode DOF (internal DOF index = DOF_TSS1), m/s
          9    0.000000000000E+000                                                     F               2         First time derivative of ED 2nd tower fore-aft bending mode DOF (internal DOF index = DOF_TFA2), m/s
         10    0.000000000000E+000                                                     F               2         First time derivative of ED 2nd tower side-to-side bending mode DOF (internal DOF index = DOF_TSS2), m/s
         11    0.000000000000E+000                                                     F               2         First time derivative of ED Nacelle yaw DOF (internal DOF index = DOF_Yaw), rad/s
         12    1.267109036948E+000                                                     F               2         First time derivative of ED Variable speed generator DOF (internal DOF index = DOF_GeAz), rad/s
         13    0.000000000000E+000                                                     F               2         First time derivative of ED Drivetrain rotational-flexibility DOF (internal DOF index = DOF_DrTr), rad/s
         14    0.000000000000E+000                                                     T               2         First time derivative of ED 1st flapwise bending-mode DOF of blade 1 (internal DOF index = DOF_BF(1,1)), m/s
         15    0.000000000000E+000                                                     T               2         First time derivative of ED 1st flapwise bending-mode DOF of blade 2 (internal DOF index = DOF_BF(2,1)), m/s
         16    0.000000000000E+000                                                     T               2         First time derivative of ED 1st flapwise bending-mode DOF of blade 3 (internal DOF index = DOF_BF(3,1)), m/s
         17    0.000000000000E+000                                                     T               2         First time derivative of ED 1st edgewise bending-mode DOF of blade 1 (internal DOF index = DOF_BE(1,1)), m/s
         18    0.000000000000E+000                                                     T               2         First time derivative of ED 1st edgewise bending-mode DOF of blade 2 (internal DOF index = DOF_BE(2,1)), m/s
         19    0.000000000000E+000                                                     T               2         First time derivative of ED 1st edgewise bending-mode DOF of blade 3 (internal DOF index = DOF_BE(3,1)), m/s
         20    0.000000000000E+000                                                     T               2         First time derivative of ED 2nd flapwise bending-mode DOF of blade 1 (internal DOF index = DOF_BF(1,2)), m/s
         21    0.000000000000E+000                                                     T               2         First time derivative of ED 2nd flapwise bending-mode DOF of blade 2 (internal DOF index = DOF_BF(2,2)), m/s
         22    0.000000000000E+000                                                     T               2         First time derivative of ED 2nd flapwise bending-mode DOF of blade 3 (internal DOF index = DOF_BF(3,2)), m/s
         23   -8.676166058749E-003                                                     F               2         First time derivative of ED First time derivative of Platform horizontal surge translation DOF (internal DOF index = DOF_Sg), m/s/s
         24    2.095351383924E-005                                                     F               2         First time derivative of ED First time derivative of Platform horizontal sway translation DOF (internal DOF index = DOF_Sw), m/s/s
         25    1.366511899968E-002                                                     F               2         First time derivative of ED First time derivative of Platform vertical heave translation DOF (internal DOF index = DOF_Hv), m/s/s
         26   -2.454949019980E-007                                                     F               2         First time derivative of ED First time derivative of Platform roll tilt rotation DOF (internal DOF index = DOF_R), rad/s/s
         27   -1.017828513651E-004                                                     F               2         First time derivative of ED First time derivative of Platform pitch tilt rotation DOF (internal DOF index = DOF_P), rad/s/s
         28   -1.995628149322E-018                                                     F               2         First time derivative of ED First time derivative of Platform yaw rotation DOF (internal DOF index = DOF_Y), rad/s/s
         29   -2.532857044754E-001                                                     F               2         First time derivative of ED First time derivative of 1st tower fore-aft bending mode DOF (internal DOF index = DOF_TFA1), m/s/s
         30    6.838773868183E-004                                                     F               2         First time derivative of ED First time derivative of 1st tower side-to-side bending mode DOF (internal DOF index = DOF_TSS1), m/s/s
         31    5.009669479363E-002                                                     F               2         First time derivative of ED First time derivative of 2nd tower fore-aft bending mode DOF (internal DOF index = DOF_TFA2), m/s/s
         32    5.835340811048E-005                                                     F               2         First time derivative of ED First time derivative of 2nd tower side-to-side bending mode DOF (internal DOF index = DOF_TSS2), m/s/s
         33   -1.019786914156E-002                                                     F               2         First time derivative of ED First time derivative of Nacelle yaw DOF (internal DOF index = DOF_Yaw), rad/s/s
         34   -8.897649798002E-006                                                     F               2         First time derivative of ED First time derivative of Variable speed generator DOF (internal DOF index = DOF_GeAz), rad/s/s
         35   -6.180841946763E-003                                                     F               2         First time derivative of ED First time derivative of Drivetrain rotational-flexibility DOF (internal DOF index = DOF_DrTr), rad/s/s
         36    1.259044239606E+001                                                     T               2         First time derivative of ED First time derivative of 1st flapwise bending-mode DOF of blade 1 (internal DOF index = DOF_BF(1,1)), m/s/s
         37    1.345074766304E+001                                                     T               2         First time derivative of ED First time derivative of 1st flapwise bending-mode DOF of blade 2 (internal DOF index = DOF_BF(2,1)), m/s/s
         38    3.816024927939E+000                                                     T               2         First time derivative of ED First time derivative of 1st flapwise bending-mode DOF of blade 3 (internal DOF index = DOF_BF(3,1)), m/s/s
         39    1.944546914422E+000                                                     T               2         First time derivative of ED First time derivative of 1st edgewise bending-mode DOF of blade 1 (internal DOF index = DOF_BE(1,1)), m/s/s
         40   -1.553401619795E+001                                                     T               2         First time derivative of ED First time derivative of 1st edgewise bending-mode DOF of blade 2 (internal DOF index = DOF_BE(2,1)), m/s/s
         41    1.848040307788E+001                                                     T               2         First time derivative of ED First time derivative of 1st edgewise bending-mode DOF of blade 3 (internal DOF index = DOF_BE(3,1)), m/s/s
         42   -8.187861669906E+000                                                     T               2         First time derivative of ED First time derivative of 2nd flapwise bending-mode DOF of blade 1 (internal DOF index = DOF_BF(1,2)), m/s/s
         43   -9.858101674496E+000                                                     T               2         First time derivative of ED First time derivative of 2nd flapwise bending-mode DOF of blade 2 (internal DOF index = DOF_BF(2,2)), m/s/s
         44   -3.122488497886E+000                                                     T               2         First time derivative of ED First time derivative of 2nd flapwise bending-mode DOF of blade 3 (internal DOF index = DOF_BF(3,2)), m/s/s

Order of inputs:
     Column   Operating Point                                                   Rotating Frame? Derivative Order Description
   ---------- ---------------                                                   --------------- ---------------- -----------
          1    0.000000000000E+000                                                     T               0         ED Blade 1 pitch command, rad
          2    0.000000000000E+000                                                     T               0         ED Blade 2 pitch command, rad
          3    0.000000000000E+000                                                     T               0         ED Blade 3 pitch command, rad
          4    0.000000000000E+000                                                     T               0         ED Blade 1 pitch moment, Nm
          5    0.000000000000E+000                                                     T               0         ED Blade 2 pitch moment, Nm
          6    0.000000000000E+000                                                     T               0         ED Blade 3 pitch moment, Nm
          7    0.000000000000E+000                                                     F               0         ED Yaw moment, Nm
          8    0.000000000000E+000                                                     F               0         ED Generator torque, Nm
          9    0.000000000000E+000                                                     F               0         ED Extended input: collective blade-pitch command, rad
         10    0.000000000000E+000                                                     F               0         HD Extended input: wave elevation at platform ref point, m
         11    0.000000000000E+000                                                     F               0         HD Extended input: horizontal current speed (steady/uniform wind), m/s
         12    0.000000000000E+000                                                     F               0         HD Extended input: vertical power-law shear exponent, -
         13    0.000000000000E+000                                                     F               0         HD Extended input: propagation direction, rad

Order of outputs:
        Row   Operating Point                                                   Rotating Frame? Derivative Order Description
   ---------- ---------------                                                   --------------- ---------------- -----------
          1    0.000000000000E+000                                                     F               0         SEA Wave1Elev, (m)
          2    0.000000000000E+000                                                     T               0         ED BldPitch1, (deg)
          3    0.000000000000E+000                                                     T               0         ED BldPitch2, (deg)
          4    0.000000000000E+000                                                     T               0         ED BldPitch3, (deg)
          5    0.000000000000E+000                                                     F               0         ED Azimuth, (deg)
          6    1.210000000000E+001                                                     F               0         ED RotSpeed, (rpm)
          7    1.173700000000E+003                                                     F               0         ED GenSpeed, (rpm)
          8    0.000000000000E+000                                                     F               0         ED NacYaw, (deg)
          9    0.000000000000E+000                                                     T               0         ED OoPDefl1, (m)
         10    0.000000000000E+000                                                     T               0         ED IPDefl1, (m)
         11    0.000000000000E+000                                                     T               0         ED TwstDefl1, (deg)
         12    0.000000000000E+000                                                     T               0         ED OoPDefl2, (m)
         13    0.000000000000E+000                                                     T               0         ED IPDefl2, (m)
         14    0.000000000000E+000                                                     T               0         ED TwstDefl2, (deg)
         15    0.000000000000E+000                                                     T               0         ED OoPDefl3, (m)
         16    0.000000000000E+000                                                     T               0         ED IPDefl3, (m)
         17    0.000000000000E+000                                                     T               0         ED TwstDefl3, (deg)
         18    6.537883766641E+001                                                     T               0         ED TwrClrnc1, (m)
         19    5.550607343734E+001                                                     T               0         ED TwrClrnc2, (m)
         20    5.550607343734E+001                                                     T               0         ED TwrClrnc3, (m)
         21   -2.897138463438E-001                                                     F               0         ED NcIMUTAxs, (m/s^2)
         22    3.092317418480E-002                                                     F               0         ED NcIMUTAys, (m/s^2)
         23   -1.206219135143E-001                                                     F               0         ED NcIMUTAzs, (m/s^2)
         24    0.000000000000E+000                                                     F               0         ED TTDspFA, (m)
         25    0.000000000000E+000                                                     F               0         ED TTDspSS, (m)
         26    0.000000000000E+000                                                     F               0         ED TTDspTwst, (deg)
         27    0.000000000000E+000                                                     F               0         ED PtfmSurge, (m)
         28    0.000000000000E+000                                                     F               0         ED PtfmSway, (m)
         29    0.000000000000E+000                                                     F               0         ED PtfmHeave, (m)
         30    0.000000000000E+000                                                     F               0         ED PtfmRoll, (deg)
         31    0.000000000000E+000                                                     F               0         ED PtfmPitch, (deg)
         32    0.000000000000E+000                                                     F               0         ED PtfmYaw, (deg)
         33   -8.676166058749E-003                                                     F               0         ED PtfmTAxt, (m/s^2)
         34    2.095351383924E-005                                                     F               0         ED PtfmTAyt, (m/s^2)
         35    1.366511899968E-002                                                     F               0         ED PtfmTAzt, (m/s^2)
         36    1.521928278888E+001                                                     T               0         ED RootFxc1, (kN)
         37   -5.775832932005E-001                                                     T               0         ED RootFyc1, (kN)
         38    4.537302641565E+002                                                     T               0         ED RootFzc1, (kN)
         39    3.843299106812E+000                                                     T               0         ED RootMxc1, (kN-m)
         40    1.390779791161E+002                                                     T               0         ED RootMyc1, (kN-m)
         41    1.459809999542E-015                                                     T               0         ED RootMzc1, (kN-m)
         42    1.580268384109E+001                                                     T               0         ED RootFxc2, (kN)
         43   -8.982586010981E+001                                                     T               0         ED RootFyc2, (kN)
         44    7.062986501597E+002                                                     T               0         ED RootFzc2, (kN)
         45    8.111950419526E+002                                                     T               0         ED RootMxc2, (kN-m)
         46    1.084307290588E+002                                                     T               0         ED RootMyc2, (kN-m)
         47   -1.563194018672E-013                                                     T               0         ED RootMzc2, (kN-m)
         48    1.750159502927E+001                                                     T               0         ED RootFxc3, (kN)
         49    9.021346118129E+001                                                     T               0         ED RootFyc3, (kN)
         50    7.047707117142E+002                                                     T               0         ED RootFzc3, (kN)
         51   -8.159414019387E+002                                                     T               0         ED RootMxc3, (kN-m)
         52    1.657557121653E+002                                                     T               0         ED RootMyc3, (kN-m)