
Predictions were generated on 22-Jun-2018 at 13:09:48 using OpenFAST, compiled as a 64-bit application using double precision at commit v1.0.0-122-g00b9e167
 linked with  NWTC Subroutine Library; ElastoDyn

Description from the FAST input file: FAST Certification Test #14: WindPACT 1.5 MW Baseline with stationary linearization in a vacuum

Time      
(s)       
    0.0000
