
FAST Summary File

Predictions were generated on 08-Jun-2017 at 13:58:08 using OpenFAST (v8.17.01b-dev, 18-Jan-2017), compiled as a 64-bit application using double precision
  compiled with
    NWTC Subroutine Library (v2.11.02, 13-Mar-2017)
    ElastoDyn (v1.04.00a-bjj, 26-Jul-2016)
    BeamDyn (unknown version, unknown date) [not called]
    InflowWind (unknown version, unknown date) [not called]
    AeroDyn14 (unknown version, unknown date) [not called]
    AeroDyn (unknown version, unknown date) [not called]
    ServoDyn (unknown version, unknown date) [not called]
    HydroDyn (unknown version, unknown date) [not called]
    SubDyn (unknown version, unknown date) [not called]
    ExtPtfm_MCKF (unknown version, unknown date) [not called]
    MAP (unknown version, unknown date) [not called]
    FEAMooring (unknown version, unknown date) [not called]
    MoorDyn (unknown version, unknown date) [not called]
    OrcaFlexInterface (unknown version, unknown date) [not called]
    IceFloe (unknown version, unknown date) [not called]
    IceDyn (unknown version, unknown date) [not called]


Modeling a land-based turbine
Description from the FAST input file: 
  FAST Certification Test #14: WindPACT 1.5 MW Baseline with stationary linearization in a vacuum

Interpolation order for input/output time histories: 2 (quadratic)
Number of correction iterations:  0


   Requested Time Steps  
  -------------------------------------------------
  Component          Time Step (s)    Subcycles (-)
  -----------------  ---------------  -------------
  FAST (glue code)    5.000E-03
  ElastoDyn           5.000E-03              1
  FAST output files   5.000E-02             10^-1


   Requested Channels in FAST Output File(s)  
  --------------------------------------------
  Number  Name        Units       Generated by
  ------  ----------  ----------  ------------
       1  Time        (s)         OpenFAST
