
Linearized model: Predictions were generated on 16-Aug-2018 at 12:59:39 using OpenFAST, compiled as a 64-bit application using double precision at commit v1.0.0-189-gd9ea8ab4
 linked with  NWTC Subroutine Library; ElastoDyn; BeamDyn; ServoDyn

Description from the FAST input file: FAST Certification Test #26: NREL 5.0 MW Baseline Wind Turbine (Onshore)

Simulation information:
   Simulation time:                     0.0000 s
   Rotor Speed:                         1.2671 rad/s
   Azimuth:                             0.0000 rad
   Number of continuous states:       194
   Number of discrete states:           0
   Number of constraint states:         0
   Number of inputs:                    6
   Number of outputs:                  60
   Jacobians included in this file?    No

Order of continuous states:
   Row/Column Operating Point                     Rotating Frame? Description
   ---------- ---------------                     --------------- -----------
          1    0.000E+00                                 F        ED 1st tower fore-aft bending mode DOF (internal DOF index = DOF_TFA1), m
          2   -0.000E+00                                 F        ED 1st tower side-to-side bending mode DOF (internal DOF index = DOF_TSS1), m
          3    0.000E+00                                 F        ED 2nd tower fore-aft bending mode DOF (internal DOF index = DOF_TFA2), m
          4    0.000E+00                                 F        ED 2nd tower side-to-side bending mode DOF (internal DOF index = DOF_TSS2), m
          5    0.000E+00                                 F        ED Nacelle yaw DOF (internal DOF index = DOF_Yaw), rad
          6    4.712E+00                                 F        ED Variable speed generator DOF (internal DOF index = DOF_GeAz), rad
          7    0.000E+00                                 F        ED Drivetrain rotational-flexibility DOF (internal DOF index = DOF_DrTr), rad
          8    0.000E+00                                 F        ED First time derivative of 1st tower fore-aft bending mode DOF (internal DOF index = DOF_TFA1), m/s
          9    0.000E+00                                 F        ED First time derivative of 1st tower side-to-side bending mode DOF (internal DOF index = DOF_TSS1), m/s
         10    0.000E+00                                 F        ED First time derivative of 2nd tower fore-aft bending mode DOF (internal DOF index = DOF_TFA2), m/s
         11    0.000E+00                                 F        ED First time derivative of 2nd tower side-to-side bending mode DOF (internal DOF index = DOF_TSS2), m/s
         12    0.000E+00                                 F        ED First time derivative of Nacelle yaw DOF (internal DOF index = DOF_Yaw), rad/s
         13    1.267E+00                                 F        ED First time derivative of Variable speed generator DOF (internal DOF index = DOF_GeAz), rad/s
         14    0.000E+00                                 F        ED First time derivative of Drivetrain rotational-flexibility DOF (internal DOF index = DOF_DrTr), rad/s
         15    1.890E-03                                 T        BD_1 finite element node 2 (number of elements = 1; element order = 5) translational displacement in X, m
         16   -5.428E-05                                 T        BD_1 finite element node 2 (number of elements = 1; element order = 5) translational displacement in Y, m
         17    4.318E-04                                 T        BD_1 finite element node 2 (number of elements = 1; element order = 5) translational displacement in Z, m
         18    2.693E-05                                 T        BD_1 finite element node 2 (number of elements = 1; element order = 5) rotational displacement in X, rad
         19    5.233E-04                                 T        BD_1 finite element node 2 (number of elements = 1; element order = 5) rotational displacement in Y, rad
         20    5.653E-06                                 T        BD_1 finite element node 2 (number of elements = 1; element order = 5) rotational displacement in Z, rad
         21    2.684E-02                                 T        BD_1 finite element node 3 (number of elements = 1; element order = 5) translational displacement in X, m
         22   -1.942E-03                                 T        BD_1 finite element node 3 (number of elements = 1; element order = 5) translational displacement in Y, m
         23    2.294E-03                                 T        BD_1 finite element node 3 (number of elements = 1; element order = 5) translational displacement in Z, m
         24    2.590E-04                                 T        BD_1 finite element node 3 (number of elements = 1; element order = 5) rotational displacement in X, rad
         25    2.975E-03                                 T        BD_1 finite element node 3 (number of elements = 1; element order = 5) rotational displacement in Y, rad
         26    4.841E-05                                 T        BD_1 finite element node 3 (number of elements = 1; element order = 5) rotational displacement in Z, rad
         27    1.196E-01                                 T        BD_1 finite element node 4 (number of elements = 1; element order = 5) translational displacement in X, m
         28   -9.783E-03                                 T        BD_1 finite element node 4 (number of elements = 1; element order = 5) translational displacement in Y, m
         29    5.955E-03                                 T        BD_1 finite element node 4 (number of elements = 1; element order = 5) translational displacement in Z, m
         30    6.276E-04                                 T        BD_1 finite element node 4 (number of elements = 1; element order = 5) rotational displacement in X, rad
         31    7.564E-03                                 T        BD_1 finite element node 4 (number of elements = 1; element order = 5) rotational displacement in Y, rad
         32    1.050E-04                                 T        BD_1 finite element node 4 (number of elements = 1; element order = 5) rotational displacement in Z, rad
         33    2.638E-01                                 T        BD_1 finite element node 5 (number of elements = 1; element order = 5) translational displacement in X, m
         34   -2.049E-02                                 T        BD_1 finite element node 5 (number of elements = 1; element order = 5) translational displacement in Y, m
         35    9.232E-03                                 T        BD_1 finite element node 5 (number of elements = 1; element order = 5) translational displacement in Z, m
         36    7.854E-04                                 T        BD_1 finite element node 5 (number of elements = 1; element order = 5) rotational displacement in X, rad
         37    1.161E-02                                 T        BD_1 finite element node 5 (number of elements = 1; element order = 5) rotational displacement in Y, rad
         38    1.153E-04                                 T        BD_1 finite element node 5 (number of elements = 1; element order = 5) rotational displacement in Z, rad
         39    3.536E-01                                 T        BD_1 finite element node 6 (number of elements = 1; element order = 5) translational displacement in X, m
         40   -2.610E-02                                 T        BD_1 finite element node 6 (number of elements = 1; element order = 5) translational displacement in Y, m
         41    9.751E-03                                 T        BD_1 finite element node 6 (number of elements = 1; element order = 5) translational displacement in Z, m
         42    7.789E-04                                 T        BD_1 finite element node 6 (number of elements = 1; element order = 5) rotational displacement in X, rad
         43    1.267E-02                                 T        BD_1 finite element node 6 (number of elements = 1; element order = 5) rotational displacement in Y, rad
         44    1.310E-04                                 T        BD_1 finite element node 6 (number of elements = 1; element order = 5) rotational displacement in Z, rad
         45   -3.000E-06                                 T        BD_1 First time derivative of finite element node 2 (number of elements = 1; element order = 5) translational displacement in X, m/s
         46   -1.105E+01                                 T        BD_1 First time derivative of finite element node 2 (number of elements = 1; element order = 5) translational displacement in Y, m/s
         47   -6.872E-05                                 T        BD_1 First time derivative of finite element node 2 (number of elements = 1; element order = 5) translational displacement in Z, m/s
         48    1.266E+00                                 T        BD_1 First time derivative of finite element node 2 (number of elements = 1; element order = 5) rotational displacement in X, rad/s
         49   -3.931E-33                                 T        BD_1 First time derivative of finite element node 2 (number of elements = 1; element order = 5) rotational displacement in Y, rad/s
         50   -5.527E-02                                 T        BD_1 First time derivative of finite element node 2 (number of elements = 1; element order = 5) rotational displacement in Z, rad/s
         51   -1.074E-04                                 T        BD_1 First time derivative of finite element node 3 (number of elements = 1; element order = 5) translational displacement in X, m/s
         52   -2.973E+01                                 T        BD_1 First time derivative of finite element node 3 (number of elements = 1; element order = 5) translational displacement in Y, m/s
         53   -2.459E-03                                 T        BD_1 First time derivative of finite element node 3 (number of elements = 1; element order = 5) translational displacement in Z, m/s
         54    1.266E+00                                 T        BD_1 First time derivative of finite element node 3 (number of elements = 1; element order = 5) rotational displacement in X, rad/s
         55   -3.931E-33                                 T        BD_1 First time derivative of finite element node 3 (number of elements = 1; element order = 5) rotational displacement in Y, rad/s
         56   -5.527E-02                                 T        BD_1 First time derivative of finite element node 3 (number of elements = 1; element order = 5) rotational displacement in Z, rad/s
         57   -5.407E-04                                 T        BD_1 First time derivative of finite element node 4 (number of elements = 1; element order = 5) translational displacement in X, m/s
         58   -5.194E+01                                 T        BD_1 First time derivative of finite element node 4 (number of elements = 1; element order = 5) translational displacement in Y, m/s
         59   -1.238E-02                                 T        BD_1 First time derivative of finite element node 4 (number of elements = 1; element order = 5) translational displacement in Z, m/s
         60    1.266E+00                                 T        BD_1 First time derivative of finite element node 4 (number of elements = 1; element order = 5) rotational displacement in X, rad/s
         61   -3.931E-33                                 T        BD_1 First time derivative of finite element node 4 (number of elements = 1; element order = 5) rotational displacement in Y, rad/s
         62   -5.527E-02                                 T        BD_1 First time derivative of finite element node 4 (number of elements = 1; element order = 5) rotational displacement in Z, rad/s
         63   -1.133E-03                                 T        BD_1 First time derivative of finite element node 5 (number of elements = 1; element order = 5) translational displacement in X, m/s
         64   -7.063E+01                                 T        BD_1 First time derivative of finite element node 5 (number of elements = 1; element order = 5) translational displacement in Y, m/s
         65   -2.594E-02                                 T        BD_1 First time derivative of finite element node 5 (number of elements = 1; element order = 5) translational displacement in Z, m/s
         66    1.266E+00                                 T        BD_1 First time derivative of finite element node 5 (number of elements = 1; element order = 5) rotational displacement in X, rad/s
         67   -3.931E-33                                 T        BD_1 First time derivative of finite element node 5 (number of elements = 1; element order = 5) rotational displacement in Y, rad/s
         68   -5.527E-02                                 T        BD_1 First time derivative of finite element node 5 (number of elements = 1; element order = 5) rotational displacement in Z, rad/s
         69   -1.442E-03                                 T        BD_1 First time derivative of finite element node 6 (number of elements = 1; element order = 5) translational displacement in X, m/s
         70   -7.978E+01                                 T        BD_1 First time derivative of finite element node 6 (number of elements = 1; element order = 5) translational displacement in Y, m/s
         71   -3.304E-02                                 T        BD_1 First time derivative of finite element node 6 (number of elements = 1; element order = 5) translational displacement in Z, m/s
         72    1.266E+00                                 T        BD_1 First time derivative of finite element node 6 (number of elements = 1; element order = 5) rotational displacement in X, rad/s
         73   -3.931E-33                                 T        BD_1 First time derivative of finite element node 6 (number of elements = 1; element order = 5) rotational displacement in Y, rad/s
         74   -5.527E-02                                 T        BD_1 First time derivative of finite element node 6 (number of elements = 1; element order = 5) rotational displacement in Z, rad/s
         75    2.444E-03                                 T        BD_2 finite element node 2 (number of elements = 1; element order = 5) translational displacement in X, m
         76   -5.345E-03                                 T        BD_2 finite element node 2 (number of elements = 1; element order = 5) translational displacement in Y, m
         77    6.308E-04                                 T        BD_2 finite element node 2 (number of elements = 1; element order = 5) translational displacement in Z, m
         78    1.299E-03                                 T        BD_2 finite element node 2 (number of elements = 1; element order = 5) rotational displacement in X, rad
         79    7.029E-04                                 T        BD_2 finite element node 2 (number of elements = 1; element order = 5) rotational displacement in Y, rad
         80   -6.443E-06                                 T        BD_2 finite element node 2 (number of elements = 1; element order = 5) rotational displacement in Z, rad
         81    3.699E-02                                 T        BD_2 finite element node 3 (number of elements = 1; element order = 5) translational displacement in X, m
         82   -5.636E-02                                 T        BD_2 finite element node 3 (number of elements = 1; element order = 5) translational displacement in Y, m
         83    3.012E-03                                 T        BD_2 finite element node 3 (number of elements = 1; element order = 5) translational displacement in Z, m
         84    5.146E-03                                 T        BD_2 finite element node 3 (number of elements = 1; element order = 5) rotational displacement in X, rad
         85    4.153E-03                                 T        BD_2 finite element node 3 (number of elements = 1; element order = 5) rotational displacement in Y, rad
         86   -7.767E-05                                 T        BD_2 finite element node 3 (number of elements = 1; element order = 5) rotational displacement in Z, rad
         87    1.629E-01                                 T        BD_2 finite element node 4 (number of elements = 1; element order = 5) translational displacement in X, m
         88   -1.842E-01                                 T        BD_2 finite element node 4 (number of elements = 1; element order = 5) translational displacement in Y, m
         89    6.938E-03                                 T        BD_2 finite element node 4 (number of elements = 1; element order = 5) translational displacement in Z, m
         90    8.409E-03                                 T        BD_2 finite element node 4 (number of elements = 1; element order = 5) rotational displacement in X, rad
         91    1.009E-02                                 T        BD_2 finite element node 4 (number of elements = 1; element order = 5) rotational displacement in Y, rad
         92   -2.178E-04                                 T        BD_2 finite element node 4 (number of elements = 1; element order = 5) rotational displacement in Z, rad
         93    3.500E-01                                 T        BD_2 finite element node 5 (number of elements = 1; element order = 5) translational displacement in X, m
         94   -3.224E-01                                 T        BD_2 finite element node 5 (number of elements = 1; element order = 5) translational displacement in Y, m
         95    9.857E-03                                 T        BD_2 finite element node 5 (number of elements = 1; element order = 5) translational displacement in Z, m
         96    9.630E-03                                 T        BD_2 finite element node 5 (number of elements = 1; element order = 5) rotational displacement in X, rad
         97    1.476E-02                                 T        BD_2 finite element node 5 (number of elements = 1; element order = 5) rotational displacement in Y, rad
         98   -2.596E-04                                 T        BD_2 finite element node 5 (number of elements = 1; element order = 5) rotational displacement in Z, rad
         99    4.628E-01                                 T        BD_2 finite element node 6 (number of elements = 1; element order = 5) translational displacement in X, m
        100   -3.950E-01                                 T        BD_2 finite element node 6 (number of elements = 1; element order = 5) translational displacement in Y, m
        101    9.871E-03                                 T        BD_2 finite element node 6 (number of elements = 1; element order = 5) translational displacement in Z, m
        102    9.839E-03                                 T        BD_2 finite element node 6 (number of elements = 1; element order = 5) rotational displacement in X, rad
        103    1.585E-02                                 T        BD_2 finite element node 6 (number of elements = 1; element order = 5) rotational displacement in Y, rad
        104   -2.392E-04                                 T        BD_2 finite element node 6 (number of elements = 1; element order = 5) rotational displacement in Z, rad
        105   -2.954E-04                                 T        BD_2 First time derivative of finite element node 2 (number of elements = 1; element order = 5) translational displacement in X, m/s
        106   -1.105E+01                                 T        BD_2 First time derivative of finite element node 2 (number of elements = 1; element order = 5) translational displacement in Y, m/s
        107   -6.766E-03                                 T        BD_2 First time derivative of finite element node 2 (number of elements = 1; element order = 5) translational displacement in Z, m/s
        108    1.266E+00                                 T        BD_2 First time derivative of finite element node 2 (number of elements = 1; element order = 5) rotational displacement in X, rad/s
        109   -2.407E-18                                 T        BD_2 First time derivative of finite element node 2 (number of elements = 1; element order = 5) rotational displacement in Y, rad/s
        110   -5.527E-02                                 T        BD_2 First time derivative of finite element node 2 (number of elements = 1; element order = 5) rotational displacement in Z, rad/s
        111   -3.115E-03                                 T        BD_2 First time derivative of finite element node 3 (number of elements = 1; element order = 5) translational displacement in X, m/s
        112   -2.973E+01                                 T        BD_2 First time derivative of finite element node 3 (number of elements = 1; element order = 5) translational displacement in Y, m/s
        113   -7.134E-02                                 T        BD_2 First time derivative of finite element node 3 (number of elements = 1; element order = 5) translational displacement in Z, m/s
        114    1.266E+00                                 T        BD_2 First time derivative of finite element node 3 (number of elements = 1; element order = 5) rotational displacement in X, rad/s
        115   -2.407E-18                                 T        BD_2 First time derivative of finite element node 3 (number of elements = 1; element order = 5) rotational displacement in Y, rad/s
        116   -5.527E-02                                 T        BD_2 First time derivative of finite element node 3 (number of elements = 1; element order = 5) rotational displacement in Z, rad/s
        117   -1.018E-02                                 T        BD_2 First time derivative of finite element node 4 (number of elements = 1; element order = 5) translational displacement in X, m/s
        118   -5.195E+01                                 T        BD_2 First time derivative of finite element node 4 (number of elements = 1; element order = 5) translational displacement in Y, m/s
        119   -2.331E-01                                 T        BD_2 First time derivative of finite element node 4 (number of elements = 1; element order = 5) translational displacement in Z, m/s
        120    1.266E+00                                 T        BD_2 First time derivative of finite element node 4 (number of elements = 1; element order = 5) rotational displacement in X, rad/s
        121   -2.407E-18                                 T        BD_2 First time derivative of finite element node 4 (number of elements = 1; element order = 5) rotational displacement in Y, rad/s
        122   -5.527E-02                                 T        BD_2 First time derivative of finite element node 4 (number of elements = 1; element order = 5) rotational displacement in Z, rad/s
        123   -1.782E-02                                 T        BD_2 First time derivative of finite element node 5 (number of elements = 1; element order = 5) translational displacement in X, m/s
        124   -7.064E+01                                 T        BD_2 First time derivative of finite element node 5 (number of elements = 1; element order = 5) translational displacement in Y, m/s
        125   -4.082E-01                                 T        BD_2 First time derivative of finite element node 5 (number of elements = 1; element order = 5) translational displacement in Z, m/s
        126    1.266E+00                                 T        BD_2 First time derivative of finite element node 5 (number of elements = 1; element order = 5) rotational displacement in X, rad/s
        127   -2.407E-18                                 T        BD_2 First time derivative of finite element node 5 (number of elements = 1; element order = 5) rotational displacement in Y, rad/s
        128   -5.527E-02                                 T        BD_2 First time derivative of finite element node 5 (number of elements = 1; element order = 5) rotational displacement in Z, rad/s
        129   -2.183E-02                                 T        BD_2 First time derivative of finite element node 6 (number of elements = 1; element order = 5) translational displacement in X, m/s
        130   -7.979E+01                                 T        BD_2 First time derivative of finite element node 6 (number of elements = 1; element order = 5) translational displacement in Y, m/s
        131   -5.000E-01                                 T        BD_2 First time derivative of finite element node 6 (number of elements = 1; element order = 5) translational displacement in Z, m/s
        132    1.266E+00                                 T        BD_2 First time derivative of finite element node 6 (number of elements = 1; element order = 5) rotational displacement in X, rad/s
        133   -2.407E-18                                 T        BD_2 First time derivative of finite element node 6 (number of elements = 1; element order = 5) rotational displacement in Y, rad/s
        134   -5.527E-02                                 T        BD_2 First time derivative of finite element node 6 (number of elements = 1; element order = 5) rotational displacement in Z, rad/s
        135    2.153E-03                                 T        BD_3 finite element node 2 (number of elements = 1; element order = 5) translational displacement in X, m
        136    5.218E-03                                 T        BD_3 finite element node 2 (number of elements = 1; element order = 5) translational displacement in Y, m
        137    6.310E-04                                 T        BD_3 finite element node 2 (number of elements = 1; element order = 5) translational displacement in Z, m
        138   -1.236E-03                                 T        BD_3 finite element node 2 (number of elements = 1; element order = 5) rotational displacement in X, rad
        139    5.544E-04                                 T        BD_3 finite element node 2 (number of elements = 1; element order = 5) rotational displacement in Y, rad
        140    1.176E-05                                 T        BD_3 finite element node 2 (number of elements = 1; element order = 5) rotational displacement in Z, rad
        141    2.687E-02                                 T        BD_3 finite element node 3 (number of elements = 1; element order = 5) translational displacement in X, m
        142    5.183E-02                                 T        BD_3 finite element node 3 (number of elements = 1; element order = 5) translational displacement in Y, m
        143    3.053E-03                                 T        BD_3 finite element node 3 (number of elements = 1; element order = 5) translational displacement in Z, m
        144   -4.545E-03                                 T        BD_3 finite element node 3 (number of elements = 1; element order = 5) rotational displacement in X, rad
        145    2.846E-03                                 T        BD_3 finite element node 3 (number of elements = 1; element order = 5) rotational displacement in Y, rad
        146    1.234E-04                                 T        BD_3 finite element node 3 (number of elements = 1; element order = 5) rotational displacement in Z, rad
        147    1.157E-01                                 T        BD_3 finite element node 4 (number of elements = 1; element order = 5) translational displacement in X, m
        148    1.617E-01                                 T        BD_3 finite element node 4 (number of elements = 1; element order = 5) translational displacement in Y, m
        149    7.342E-03                                 T        BD_3 finite element node 4 (number of elements = 1; element order = 5) translational displacement in Z, m
        150   -6.982E-03                                 T        BD_3 finite element node 4 (number of elements = 1; element order = 5) rotational displacement in X, rad
        151    7.256E-03                                 T        BD_3 finite element node 4 (number of elements = 1; element order = 5) rotational displacement in Y, rad
        152    3.277E-04                                 T        BD_3 finite element node 4 (number of elements = 1; element order = 5) rotational displacement in Z, rad
        153    2.565E-01                                 T        BD_3 finite element node 5 (number of elements = 1; element order = 5) translational displacement in X, m
        154    2.757E-01                                 T        BD_3 finite element node 5 (number of elements = 1; element order = 5) translational displacement in Y, m
        155    1.098E-02                                 T        BD_3 finite element node 5 (number of elements = 1; element order = 5) translational displacement in Z, m
        156   -7.860E-03                                 T        BD_3 finite element node 5 (number of elements = 1; element order = 5) rotational displacement in X, rad
        157    1.150E-02                                 T        BD_3 finite element node 5 (number of elements = 1; element order = 5) rotational displacement in Y, rad
        158    3.966E-04                                 T        BD_3 finite element node 5 (number of elements = 1; element order = 5) rotational displacement in Z, rad
        159    3.464E-01                                 T        BD_3 finite element node 6 (number of elements = 1; element order = 5) translational displacement in X, m
        160    3.356E-01                                 T        BD_3 finite element node 6 (number of elements = 1; element order = 5) translational displacement in Y, m
        161    1.143E-02                                 T        BD_3 finite element node 6 (number of elements = 1; element order = 5) translational displacement in Z, m