
Linearized model: Predictions were generated on 19-Feb-2025 at 12:58:51 using OpenFAST, compiled on Feb 19 2025 at 12:19:50 as a 64-bit application using double precision at commit v3.5.3-2303-g72198537-dirty
 linked with  NWTC Subroutine Library; ElastoDyn; ServoDyn; SeaState; HydroDyn; MAP++ (<1.20.10>, <Jan-22-2025>)

Description from the FAST input file: FAST Certification Test #25: NREL 5.0 MW Baseline Wind Turbine with OC4-DeepCwind semi configuration, for use in offshore analysis

Simulation information:
   Simulation time:                     0.0000 s
   Rotor Speed:                         1.2566 rad/s
   Azimuth:                             0.0000 rad
   Wind Speed:                          0.0000 m/s
   Number of continuous states:       138
   Number of discrete states:           0
   Number of constraint states:         0
   Number of inputs:                   10
   Number of outputs:                  15
   Jacobians included in this file?    No

Order of continuous states:
   Row/Column Operating Point                                                   Rotating Frame? Derivative Order Description
   ---------- ---------------                                                   --------------- ---------------- -----------
          1    0.000000000000E+000                                                     F               2         ED Platform horizontal surge translation DOF (internal DOF index = DOF_Sg), m
          2    0.000000000000E+000                                                     F               2         ED Platform horizontal sway translation DOF (internal DOF index = DOF_Sw), m
          3    0.000000000000E+000                                                     F               2         ED Platform vertical heave translation DOF (internal DOF index = DOF_Hv), m
          4    0.000000000000E+000                                                     F               2         ED Platform roll tilt rotation DOF (internal DOF index = DOF_R), rad
          5    0.000000000000E+000                                                     F               2         ED Platform pitch tilt rotation DOF (internal DOF index = DOF_P), rad
          6    0.000000000000E+000                                                     F               2         ED Platform yaw rotation DOF (internal DOF index = DOF_Y), rad
          7    0.000000000000E+000                                                     F               2         ED 1st tower fore-aft bending mode DOF (internal DOF index = DOF_TFA1), m
          8    0.000000000000E+000                                                     F               2         ED 1st tower side-to-side bending mode DOF (internal DOF index = DOF_TSS1), m
          9    0.000000000000E+000                                                     F               2         ED 2nd tower fore-aft bending mode DOF (internal DOF index = DOF_TFA2), m
         10    0.000000000000E+000                                                     F               2         ED 2nd tower side-to-side bending mode DOF (internal DOF index = DOF_TSS2), m
         11    0.000000000000E+000                                                     F               2         ED Nacelle yaw DOF (internal DOF index = DOF_Yaw), rad
         12    4.712388980385E+000                                                     F               2         ED Variable speed generator DOF (internal DOF index = DOF_GeAz), rad
         13    0.000000000000E+000                                                     F               2         ED Drivetrain rotational-flexibility DOF (internal DOF index = DOF_DrTr), rad
         14    0.000000000000E+000                                                     T               2         ED 1st flapwise bending-mode DOF of blade 1 (internal DOF index = DOF_BF(1,1)), m
         15    0.000000000000E+000                                                     T               2         ED 1st flapwise bending-mode DOF of blade 2 (internal DOF index = DOF_BF(2,1)), m
         16    0.000000000000E+000                                                     T               2         ED 1st flapwise bending-mode DOF of blade 3 (internal DOF index = DOF_BF(3,1)), m
         17    0.000000000000E+000                                                     T               2         ED 1st edgewise bending-mode DOF of blade 1 (internal DOF index = DOF_BE(1,1)), m
         18    0.000000000000E+000                                                     T               2         ED 1st edgewise bending-mode DOF of blade 2 (internal DOF index = DOF_BE(2,1)), m
         19    0.000000000000E+000                                                     T               2         ED 1st edgewise bending-mode DOF of blade 3 (internal DOF index = DOF_BE(3,1)), m
         20    0.000000000000E+000                                                     T               2         ED 2nd flapwise bending-mode DOF of blade 1 (internal DOF index = DOF_BF(1,2)), m
         21    0.000000000000E+000                                                     T               2         ED 2nd flapwise bending-mode DOF of blade 2 (internal DOF index = DOF_BF(2,2)), m
         22    0.000000000000E+000                                                     T               2         ED 2nd flapwise bending-mode DOF of blade 3 (internal DOF index = DOF_BF(3,2)), m
         23    0.000000000000E+000                                                     F               2         ED First time derivative of Platform horizontal surge translation DOF (internal DOF index = DOF_Sg), m/s
         24    0.000000000000E+000                                                     F               2         ED First time derivative of Platform horizontal sway translation DOF (internal DOF index = DOF_Sw), m/s
         25    0.000000000000E+000                                                     F               2         ED First time derivative of Platform vertical heave translation DOF (internal DOF index = DOF_Hv), m/s
         26    0.000000000000E+000                                                     F               2         ED First time derivative of Platform roll tilt rotation DOF (internal DOF index = DOF_R), rad/s
         27    0.000000000000E+000                                                     F               2         ED First time derivative of Platform pitch tilt rotation DOF (internal DOF index = DOF_P), rad/s
         28    0.000000000000E+000                                                     F               2         ED First time derivative of Platform yaw rotation DOF (internal DOF index = DOF_Y), rad/s
         29    0.000000000000E+000                                                     F               2         ED First time derivative of 1st tower fore-aft bending mode DOF (internal DOF index = DOF_TFA1), m/s
         30    0.000000000000E+000                                                     F               2         ED First time derivative of 1st tower side-to-side bending mode DOF (internal DOF index = DOF_TSS1), m/s
         31    0.000000000000E+000                                                     F               2         ED First time derivative of 2nd tower fore-aft bending mode DOF (internal DOF index = DOF_TFA2), m/s
         32    0.000000000000E+000                                                     F               2         ED First time derivative of 2nd tower side-to-side bending mode DOF (internal DOF index = DOF_TSS2), m/s
         33    0.000000000000E+000                                                     F               2         ED First time derivative of Nacelle yaw DOF (internal DOF index = DOF_Yaw), rad/s
         34    1.256637061436E+000                                                     F               2         ED First time derivative of Variable speed generator DOF (internal DOF index = DOF_GeAz), rad/s
         35    0.000000000000E+000                                                     F               2         ED First time derivative of Drivetrain rotational-flexibility DOF (internal DOF index = DOF_DrTr), rad/s
         36    0.000000000000E+000                                                     T               2         ED First time derivative of 1st flapwise bending-mode DOF of blade 1 (internal DOF index = DOF_BF(1,1)), m/s
         37    0.000000000000E+000                                                     T               2         ED First time derivative of 1st flapwise bending-mode DOF of blade 2 (internal DOF index = DOF_BF(2,1)), m/s
         38    0.000000000000E+000                                                     T               2         ED First time derivative of 1st flapwise bending-mode DOF of blade 3 (internal DOF index = DOF_BF(3,1)), m/s
         39    0.000000000000E+000                                                     T               2         ED First time derivative of 1st edgewise bending-mode DOF of blade 1 (internal DOF index = DOF_BE(1,1)), m/s
         40    0.000000000000E+000                                                     T               2         ED First time derivative of 1st edgewise bending-mode DOF of blade 2 (internal DOF index = DOF_BE(2,1)), m/s
         41    0.000000000000E+000                                                     T               2         ED First time derivative of 1st edgewise bending-mode DOF of blade 3 (internal DOF index = DOF_BE(3,1)), m/s
         42    0.000000000000E+000                                                     T               2         ED First time derivative of 2nd flapwise bending-mode DOF of blade 1 (internal DOF index = DOF_BF(1,2)), m/s
         43    0.000000000000E+000                                                     T               2         ED First time derivative of 2nd flapwise bending-mode DOF of blade 2 (internal DOF index = DOF_BF(2,2)), m/s
         44    0.000000000000E+000                                                     T               2         ED First time derivative of 2nd flapwise bending-mode DOF of blade 3 (internal DOF index = DOF_BF(3,2)), m/s
         45    0.000000000000E+000                                                     F               1         HD ExctnPtfmSg1
         46    0.000000000000E+000                                                     F               1         HD ExctnPtfmSg2
         47    0.000000000000E+000                                                     F               1         HD ExctnPtfmSg3
         48    0.000000000000E+000                                                     F               1         HD ExctnPtfmSg4
         49    0.000000000000E+000                                                     F               1         HD ExctnPtfmSg5
         50    0.000000000000E+000                                                     F               1         HD ExctnPtfmSg6
         51    0.000000000000E+000                                                     F               1         HD ExctnPtfmSg7
         52    0.000000000000E+000                                                     F               1         HD ExctnPtfmSg8
         53    0.000000000000E+000                                                     F               1         HD ExctnPtfmSw1
         54    0.000000000000E+000                                                     F               1         HD ExctnPtfmSw2
         55    0.000000000000E+000                                                     F               1         HD ExctnPtfmHv1
         56    0.000000000000E+000                                                     F               1         HD ExctnPtfmHv2
         57    0.000000000000E+000                                                     F               1         HD ExctnPtfmHv3
         58    0.000000000000E+000                                                     F               1         HD ExctnPtfmHv4
         59    0.000000000000E+000                                                     F               1         HD ExctnPtfmHv5
         60    0.000000000000E+000                                                     F               1         HD ExctnPtfmHv6
         61    0.000000000000E+000                                                     F               1         HD ExctnPtfmHv7
         62    0.000000000000E+000                                                     F               1         HD ExctnPtfmHv8
         63    0.000000000000E+000                                                     F               1         HD ExctnPtfmR1
         64    0.000000000000E+000                                                     F               1         HD ExctnPtfmR2
         65    0.000000000000E+000                                                     F               1         HD ExctnPtfmR3
         66    0.000000000000E+000                                                     F               1         HD ExctnPtfmR4
         67    0.000000000000E+000                                                     F               1         HD ExctnPtfmR5
         68    0.000000000000E+000                                                     F               1         HD ExctnPtfmR6
         69    0.000000000000E+000                                                     F               1         HD ExctnPtfmR7
         70    0.000000000000E+000                                                     F               1         HD ExctnPtfmR8
         71    0.000000000000E+000                                                     F               1         HD ExctnPtfmP1
         72    0.000000000000E+000                                                     F               1         HD ExctnPtfmP2
         73    0.000000000000E+000                                                     F               1         HD ExctnPtfmP3
         74    0.000000000000E+000                                                     F               1         HD ExctnPtfmP4
         75    0.000000000000E+000                                                     F               1         HD ExctnPtfmP5
         76    0.000000000000E+000                                                     F               1         HD ExctnPtfmP6
         77    0.000000000000E+000                                                     F               1         HD ExctnPtfmP7
         78    0.000000000000E+000                                                     F               1         HD ExctnPtfmP8
         79    0.000000000000E+000                                                     F               1         HD ExctnPtfmY1
         80    0.000000000000E+000                                                     F               1         HD ExctnPtfmY2
         81    0.000000000000E+000                                                     F               1         HD RdtnPtfmSg1
         82    0.000000000000E+000                                                     F               1         HD RdtnPtfmSg2
         83    0.000000000000E+000                                                     F               1         HD RdtnPtfmSg3
         84    0.000000000000E+000                                                     F               1         HD RdtnPtfmSg4
         85    0.000000000000E+000                                                     F               1         HD RdtnPtfmSg5
         86    0.000000000000E+000                                                     F               1         HD RdtnPtfmSg6
         87    0.000000000000E+000                                                     F               1         HD RdtnPtfmSg7
         88    0.000000000000E+000                                                     F               1         HD RdtnPtfmSg8
         89    0.000000000000E+000                                                     F               1         HD RdtnPtfmSg9
         90    0.000000000000E+000                                                     F               1         HD RdtnPtfmSg10
         91    0.000000000000E+000                                                     F               1         HD RdtnPtfmSg11
         92    0.000000000000E+000                                                     F               1         HD RdtnPtfmSg12
         93    0.000000000000E+000                                                     F               1         HD RdtnPtfmSw1
         94    0.000000000000E+000                                                     F               1         HD RdtnPtfmSw2
         95    0.000000000000E+000                                                     F               1         HD RdtnPtfmSw3
         96    0.000000000000E+000                                                     F               1         HD RdtnPtfmSw4
         97    0.000000000000E+000                                                     F               1         HD RdtnPtfmSw5
         98    0.000000000000E+000                                                     F               1         HD RdtnPtfmSw6
         99    0.000000000000E+000                                                     F               1         HD RdtnPtfmSw7
        100    0.000000000000E+000                                                     F               1         HD RdtnPtfmSw8
        101    0.000000000000E+000                                                     F               1         HD RdtnPtfmSw9
        102    0.000000000000E+000                                                     F               1         HD RdtnPtfmSw10
        103    0.000000000000E+000                                                     F               1         HD RdtnPtfmSw11
        104    0.000000000000E+000                                                     F               1         HD RdtnPtfmSw12
        105    0.000000000000E+000                                                     F               1         HD RdtnPtfmHv1
        106    0.000000000000E+000                                                     F               1         HD RdtnPtfmHv2
        107    0.000000000000E+000                                                     F               1         HD RdtnPtfmHv3
        108    0.000000000000E+000                                                     F               1         HD RdtnPtfmHv4
        109    0.000000000000E+000                                                     F               1         HD RdtnPtfmHv5
        110    0.000000000000E+000                                                     F               1         HD RdtnPtfmHv6
        111    0.000000000000E+000                                                     F               1         HD RdtnPtfmHv7
        112    0.000000000000E+000                                                     F               1         HD RdtnPtfmHv8
        113    0.000000000000E+000                                                     F               1         HD RdtnPtfmHv9
        114    0.000000000000E+000                                                     F               1         HD RdtnPtfmR1
        115    0.000000000000E+000                                                     F               1         HD RdtnPtfmR2
        116    0.000000000000E+000                                                     F               1         HD RdtnPtfmR3
        117    0.000000000000E+000                                                     F               1         HD RdtnPtfmR4
        118    0.000000000000E+000                                                     F               1         HD RdtnPtfmR5
        119    0.000000000000E+000                                                     F               1         HD RdtnPtfmR6
        120    0.000000000000E+000                                                     F               1         HD RdtnPtfmR7
        121    0.000000000000E+000                                                     F               1         HD RdtnPtfmR8
        122    0.000000000000E+000                                                     F               1         HD RdtnPtfmR9
        123    0.000000000000E+000                                                     F               1         HD RdtnPtfmR10
        124    0.000000000000E+000                                                     F               1         HD RdtnPtfmP1
        125    0.000000000000E+000                                                     F               1         HD RdtnPtfmP2
        126    0.000000000000E+000                                                     F               1         HD RdtnPtfmP3
        127    0.000000000000E+000                                                     F               1         HD RdtnPtfmP4
        128    0.000000000000E+000                                                     F               1         HD RdtnPtfmP5
        129    0.000000000000E+000                                                     F               1         HD RdtnPtfmP6
        130    0.000000000000E+000                                                     F               1         HD RdtnPtfmP7
        131    0.000000000000E+000                                                     F               1         HD RdtnPtfmP8
        132    0.000000000000E+000                                                     F               1         HD RdtnPtfmP9
        133    0.000000000000E+000                                                     F               1         HD RdtnPtfmP10
        134    0.000000000000E+000                                                     F               1         HD RdtnPtfmY1
        135    0.000000000000E+000                                                     F               1         HD RdtnPtfmY2
        136    0.000000000000E+000                                                     F               1         HD RdtnPtfmY3
        137    0.000000000000E+000                                                     F               1         HD RdtnPtfmY4
        138    0.000000000000E+000                                                     F               1         HD RdtnPtfmY5

Order of continuous state derivatives:
   Row/Column Operating Point                                                   Rotating Frame? Derivative Order Description
   ---------- ---------------                                                   --------------- ---------------- -----------
          1    0.000000000000E+000                                                     F               2         First time derivative of ED Platform horizontal surge translation DOF (internal DOF index = DOF_Sg), m/s
          2    0.000000000000E+000                                                     F               2         First time derivative of ED Platform horizontal sway translation DOF (internal DOF index = DOF_Sw), m/s
          3    0.000000000000E+000                                                     F               2         First time derivative of ED Platform vertical heave translation DOF (internal DOF index = DOF_Hv), m/s
          4    0.000000000000E+000                                                     F               2         First time derivative of ED Platform roll tilt rotation DOF (internal DOF index = DOF_R), rad/s
          5    0.000000000000E+000                                                     F               2         First time derivative of ED Platform pitch tilt rotation DOF (internal DOF index = DOF_P), rad/s
          6    0.000000000000E+000                                                     F               2         First time derivative of ED Platform yaw rotation DOF (internal DOF index = DOF_Y), rad/s
          7    0.000000000000E+000                                                     F               2         First time derivative of ED 1st tower fore-aft bending mode DOF (internal DOF index = DOF_TFA1), m/s
          8    0.000000000000E+000                                                     F               2         First time derivative of ED 1st tower side-to-side bending mode DOF (internal DOF index = DOF_TSS1), m/s
          9    0.000000000000E+000                                                     F               2         First time derivative of ED 2nd tower fore-aft bending mode DOF (internal DOF index = DOF_TFA2), m/s
         10    0.000000000000E+000                                                     F               2         First time derivative of ED 2nd tower side-to-side bending mode DOF (internal DOF index = DOF_TSS2), m/s
         11    0.000000000000E+000                                                     F               2         First time derivative of ED Nacelle yaw DOF (internal DOF index = DOF_Yaw), rad/s
         12    1.256637061436E+000                                                     F               2         First time derivative of ED Variable speed generator DOF (internal DOF index = DOF_GeAz), rad/s
         13    0.000000000000E+000                                                     F               2         First time derivative of ED Drivetrain rotational-flexibility DOF (internal DOF index = DOF_DrTr), rad/s
         14    0.000000000000E+000                                                     T               2         First time derivative of ED 1st flapwise bending-mode DOF of blade 1 (internal DOF index = DOF_BF(1,1)), m/s
         15    0.000000000000E+000                                                     T               2         First time derivative of ED 1st flapwise bending-mode DOF of blade 2 (internal DOF index = DOF_BF(2,1)), m/s
         16    0.000000000000E+000                                                     T               2         First time derivative of ED 1st flapwise bending-mode DOF of blade 3 (internal DOF index = DOF_BF(3,1)), m/s
         17    0.000000000000E+000                                                     T               2         First time derivative of ED 1st edgewise bending-mode DOF of blade 1 (internal DOF index = DOF_BE(1,1)), m/s
         18    0.000000000000E+000                                                     T               2         First time derivative of ED 1st edgewise bending-mode DOF of blade 2 (internal DOF index = DOF_BE(2,1)), m/s
         19    0.000000000000E+000                                                     T               2         First time derivative of ED 1st edgewise bending-mode DOF of blade 3 (internal DOF index = DOF_BE(3,1)), m/s
         20    0.000000000000E+000                                                     T               2         First time derivative of ED 2nd flapwise bending-mode DOF of blade 1 (internal DOF index = DOF_BF(1,2)), m/s
         21    0.000000000000E+000                                                     T               2         First time derivative of ED 2nd flapwise bending-mode DOF of blade 2 (internal DOF index = DOF_BF(2,2)), m/s
         22    0.000000000000E+000                                                     T               2         First time derivative of ED 2nd flapwise bending-mode DOF of blade 3 (internal DOF index = DOF_BF(3,2)), m/s
         23   -1.603910035984E-003                                                     F               2         First time derivative of ED First time derivative of Platform horizontal surge translation DOF (internal DOF index = DOF_Sg), m/s/s
         24    8.708011091720E-006                                                     F               2         First time derivative of ED First time derivative of Platform horizontal sway translation DOF (internal DOF index = DOF_Sw), m/s/s
         25    2.581442323861E-003                                                     F               2         First time derivative of ED First time derivative of Platform vertical heave translation DOF (internal DOF index = DOF_Hv), m/s/s
         26   -3.071930213858E-007                                                     F               2         First time derivative of ED First time derivative of Platform roll tilt rotation DOF (internal DOF index = DOF_R), rad/s/s
         27   -5.624857998381E-005                                                     F               2         First time derivative of ED First time derivative of Platform pitch tilt rotation DOF (internal DOF index = DOF_P), rad/s/s
         28   -1.685803576932E-008                                                     F               2         First time derivative of ED First time derivative of Platform yaw rotation DOF (internal DOF index = DOF_Y), rad/s/s
         29   -2.976986493218E-001                                                     F               2         First time derivative of ED First time derivative of 1st tower fore-aft bending mode DOF (internal DOF index = DOF_TFA1), m/s/s
         30    2.107355549331E-004                                                     F               2         First time derivative of ED First time derivative of 1st tower side-to-side bending mode DOF (internal DOF index = DOF_TSS1), m/s/s
         31    1.031046236413E-001                                                     F               2         First time derivative of ED First time derivative of 2nd tower fore-aft bending mode DOF (internal DOF index = DOF_TFA2), m/s/s
         32    6.185302528984E-004                                                     F               2         First time derivative of ED First time derivative of 2nd tower side-to-side bending mode DOF (internal DOF index = DOF_TSS2), m/s/s
         33   -1.392472076922E-002                                                     F               2         First time derivative of ED First time derivative of Nacelle yaw DOF (internal DOF index = DOF_Yaw), rad/s/s