
Predictions were generated on 18-Sep-2019 at 00:08:08 using OpenFAST, compiled as a 64-bit application using double precision at commit v2.1.0-173-g38fc45a8
 linked with  NWTC Subroutine Library; ElastoDyn; InflowWind; AeroDyn14; ServoDyn

Description from the FAST input file: FAST Certification Test #09: UAE Phase VI (downwind) with many DOFs with yaw ramp and a steady wind.

Time      	Wind1VelX 	Wind1VelY 	Wind1VelZ 	Azimuth   	TipALxb1  	TipALyb1  	TipALxb2  	TipALyb2  	Spn2ALxb1 	Spn2ALyb1 	RotAccel  	LSSGagA   	HSShftA   	NacYaw    	RootMEdg1 	RootMFlp1 	RootMEdg2 	RootMFlp2 	Spn3MLxb1 	Spn3MLyb1 	Spn5MLxb1 	Spn5MLyb1 	YawBrFxp  	YawBrFyp  	YawBrMxn  	YawBrMyn  
(s)       	(m/s)     	(m/s)     	(m/s)     	(deg)     	(m/s^2)   	(m/s^2)   	(m/s^2)   	(m/s^2)   	(m/s^2)   	(m/s^2)   	(deg/s^2) 	(deg/s^2) 	(deg/s^2) 	(deg)     	(kN-m)    	(kN-m)    	(kN-m)    	(kN-m)    	(kN-m)    	(kN-m)    	(kN-m)    	(kN-m)    	(kN)      	(kN)      	(kN-m)    	(kN-m)    
    1.0080	 9.526E+00	-5.500E+00	 0.000E+00	 7.434E+01	-3.594E+00	 5.345E-01	-3.555E+00	-1.808E+00	 5.652E-01	-7.238E-01	 1.629E+01	 7.292E+00	 1.832E+02	 2.962E+01	 9.962E-01	 1.060E+00	-9.432E-01	 2.134E+00	 3.341E-01	 6.584E-01	 2.133E-01	 3.352E-01	 8.678E-01	 4.114E-01	 4.191E-01	 7.794E+00
    1.0560	 9.526E+00	-5.500E+00	 0.000E+00	 9.507E+01	 2.043E+00	-8.394E-01	 5.736E+00	 1.217E+00	-3.034E-01	 3.800E-01	-7.129E-01	 7.284E+00	 1.830E+02	 2.969E+01	 1.011E+00	 6.752E-01	-7.816E-01	 1.729E+00	 3.682E-01	 4.479E-01	 2.124E-01	 2.194E-01	 9.878E-01	 4.590E-01	 5.640E-01	 9.028E+00
    1.1040	 9.526E+00	-5.500E+00	 0.000E+00	 1.158E+02	 4.836E+00	 9.905E-01	 2.632E+00	 4.919E-01	 4.557E-03	 2.674E-01	-1.697E+01	 1.867E+00	 4.691E+01	 2.972E+01	 9.787E-01	 5.904E-01	-6.610E-01	 1.423E+00	 3.772E-01	 4.056E-01	 2.189E-01	 1.934E-01	-9.550E-02	-7.981E-02	 5.827E-01	 8.076E+00
    1.1520	 9.526E+00	-5.500E+00	 0.000E+00	 1.365E+02	-3.790E+00	 2.242E+00	-4.824E-01	 9.635E-01	 5.872E-01	 2.017E-01	-5.614E+00	-3.570E+00	-8.971E+01	 2.974E+01	 7.703E-01	 6.486E-01	-4.618E-01	 1.283E+00	 2.797E-01	 4.536E-01	 1.741E-01	 2.428E-01	-6.822E-01	-3.038E-01	 4.889E-01	 7.653E+00
    1.2000	 9.526E+00	-5.500E+00	 0.000E+00	 1.572E+02	 1.193E+01	 5.610E-02	 7.385E+00	 1.757E+00	 3.819E-01	 7.467E-01	-1.804E+01	-7.279E+00	-1.829E+02	 2.975E+01	 4.242E-01	 4.220E-01	-1.462E-01	 7.780E-01	 1.388E-01	 2.780E-01	 8.553E-02	 1.293E-01	-2.936E-01	-6.299E-02	 3.756E-01	 8.447E+00
    1.2480	 9.526E+00	-5.500E+00	 0.000E+00	 1.778E+02	-4.300E+00	 3.147E-01	 1.096E+00	-2.756E-01	 2.473E-01	 9.551E-02	-2.751E+00	-8.868E+00	-2.229E+02	 2.977E+01	 8.043E-03	 1.180E+00	 7.572E-02	 8.539E-01	-1.403E-01	 7.240E-01	-2.916E-02	 4.416E-01	-8.044E-01	-3.325E-01	 2.115E-01	 6.471E+00
    1.2960	 9.526E+00	-5.500E+00	 0.000E+00	 1.984E+02	-2.410E+00	-2.416E-01	 2.177E+00	-8.705E-01	 2.296E-01	-2.519E-01	 1.656E+01	-3.000E+00	-7.538E+01	 2.981E+01	-3.823E-01	 1.506E+00	 3.642E-01	 8.606E-01	-3.528E-01	 8.809E-01	-1.276E-01	 5.513E-01	 7.969E-02	 1.369E-01	 1.436E-01	 7.379E+00
    1.3440	 9.526E+00	-5.500E+00	 0.000E+00	 2.191E+02	 8.550E+00	-1.480E+00	 5.092E+00	-1.087E+00	 2.920E-01	 5.131E-02	-4.627E-01	 1.121E+00	 2.818E+01	 2.984E+01	-6.997E-01	 1.144E+00	 7.006E-01	 8.451E-01	-4.590E-01	 6.334E-01	-2.004E-01	 4.129E-01	 5.413E-01	 2.925E-01	 2.055E-01	 8.170E+00
    1.3920	 9.526E+00	-5.500E+00	 0.000E+00	 2.398E+02	-2.145E+00	-1.593E+00	-3.222E+00	 7.693E-02	 1.425E-01	 1.172E-02	 2.163E+01	 4.524E+00	 1.137E+02	 2.987E+01	-9.214E-01	 1.777E+00	 8.996E-01	 1.113E+00	-6.321E-01	 9.809E-01	-2.668E-01	 6.385E-01	 7.481E-01	 3.846E-01	 2.780E-01	 7.811E+00
    1.4400	 9.526E+00	-5.500E+00	 0.000E+00	 2.605E+02	 3.030E+00	 9.225E-01	-1.985E+00	-2.278E+00	 4.074E-02	-4.817E-01	 1.780E+00	 7.648E+00	 1.922E+02	 2.988E+01	-8.602E-01	 1.786E+00	 9.411E-01	 1.016E+00	-5.749E-01	 9.731E-01	-2.283E-01	 6.229E-01	 1.849E+00	 9.966E-01	 4.076E-01	 9.526E+00
    1.4880	 9.526E+00	-5.500E+00	 0.000E+00	 2.812E+02	 5.022E+00	-1.454E+00	 3.353E+00	 1.838E+00	-1.212E-01	 1.379E-01	-5.764E+00	 4.953E+00	 1.245E+02	 2.986E+01	-8.807E-01	 1.516E+00	 1.095E+00	 7.506E-01	-5.725E-01	 7.995E-01	-2.459E-01	 5.191E-01	 1.586E+00	 8.524E-01	 5.081E-01	 9.264E+00
    1.5360	 9.526E+00	-5.500E+00	 0.000E+00	 3.019E+02	-2.667E+00	 1.326E+00	-4.221E+00	 7.304E-01	-7.084E-01	-4.179E-01	-1.366E+00	 6.470E-01	 1.626E+01	 2.982E+01	-6.368E-01	 1.692E+00	 8.797E-01	 7.111E-01	-4.606E-01	 9.294E-01	-1.719E-01	 5.913E-01	 1.697E+00	 1.012E+00	 4.878E-01	 9.914E+00
    1.5840	 9.526E+00	-5.500E+00	 0.000E+00	 3.226E+02	 5.435E-01	 7.591E-01	 1.910E+00	 1.221E+00	-1.268E+00	-5.857E-01	-1.709E+01	-2.851E+00	-7.165E+01	 2.975E+01	-4.319E-01	 1.326E+00	 6.977E-01	 5.209E-01	-3.242E-01	 7.249E-01	-1.135E-01	 4.596E-01	 1.679E+00	 1.079E+00	 4.155E-01	 1.046E+01
    1.6320	 9.526E+00	-5.500E+00	 0.000E+00	 3.432E+02	-4.935E-01	 2.135E-02	 1.023E+01	 1.478E+00	-5.215E-01	 9.321E-02	-1.120E+01	-7.467E+00	-1.876E+02	 2.967E+01	-1.465E-01	 1.146E+00	 3.543E-01	 3.714E-01	-1.869E-01	 6.548E-01	-5.022E-02	 4.104E-01	 6.562E-01	 5.020E-01	 3.075E-01	 9.103E+00
    1.6800	 9.526E+00	-5.500E+00	 0.000E+00	 3.871E+00	-3.093E+00	 7.184E-01	-6.064E+00	-8.907E-01	-4.131E-01	-3.095E-01	 1.255E+01	-5.664E+00	-1.423E+02	 2.960E+01	 1.969E-01	 1.179E+00	-1.761E-01	 1.451E+00	-3.096E-02	 6.999E-01	 3.446E-02	 4.218E-01	 7.150E-01	 5.012E-01	 2.108E-01	 8.432E+00
    1.7280	 9.526E+00	-5.500E+00	 0.000E+00	 2.452E+01	 4.318E+00	-2.211E+00	 4.474E+00	-5.963E-03	 3.786E-01	 2.320E-01	-6.021E+00	-1.136E+00	-2.855E+01	 2.956E+01	 4.461E-01	 8.378E-01	-4.240E-01	 1.210E+00	 9.711E-02	 5.138E-01	 7.805E-02	 2.925E-01	-1.408E-02	 2.232E-02	 2.050E-01	 7.436E+00
    1.7760	 9.526E+00	-5.500E+00	 0.000E+00	 4.518E+01	 2.842E+00	 1.310E+00	 5.222E+00	-2.553E+00	 1.255E+00	-2.806E-02	 1.980E+01	 1.755E+00	 4.409E+01	 2.954E+01	 8.589E-01	 8.620E-01	-8.365E-01	 1.338E+00	 3.000E-01	 5.632E-01	 1.909E-01	 2.945E-01	-5.410E-01	-4.524E-01	 3.218E-01	 6.750E+00
    1.8240	 9.526E+00	-5.500E+00	 0.000E+00	 6.586E+01	-1.123E+00	-2.888E+00	-2.294E+00	 7.030E-01	 5.047E-01	 1.000E-01	 9.650E+00	 6.128E+00	 1.540E+02	 2.953E+01	 8.593E-01	 1.017E+00	-8.382E-01	 1.919E+00	 2.475E-01	 6.175E-01	 1.551E-01	 3.167E-01	-1.437E-01	-2.921E-01	 4.383E-01	 7.379E+00
    1.8720	 9.526E+00	-5.500E+00	 0.000E+00	 8.657E+01	 2.361E+00	 7.289E-01	 5.300E+00	-6.879E-01	 6.981E-01	-1.160E-01	 1.045E+00	 6.677E+00	 1.678E+02	 2.950E+01	 1.054E+00	 6.642E-01	-8.699E-01	 1.551E+00	 4.047E-01	 4.494E-01	 2.375E-01	 2.131E-01	-4.821E-01	-5.479E-01	 5.949E-01	 7.021E+00
    1.9200	 9.526E+00	-5.500E+00	 0.000E+00	 1.073E+02	-4.503E-01	 1.090E+00	 4.413E+00	 5.404E-01	 3.519E-01	 1.664E-01	 5.070E-01	 3.143E+00	 7.897E+01	 2.947E+01	 1.016E+00	 6.647E-01	-7.583E-01	 1.489E+00	 3.833E-01	 4.690E-01	 2.266E-01	 2.420E-01	 1.832E-01	-1.688E-01	 6.728E-01	 8.217E+00
    1.9680	 9.526E+00	-5.500E+00	 0.000E+00	 1.280E+02	-7.442E-01	-4.081E-01	-1.713E+00	 1.985E+00	-2.186E-01	 2.238E-01	-1.404E+01	-2.304E-01	-5.789E+00	 2.943E+01	 7.822E-01	 7.578E-01	-5.191E-01	 1.487E+00	 2.574E-01	 4.937E-01	 1.587E-01	 2.609E-01	 8.352E-01	 2.892E-01	 6.342E-01	 9.156E+00
    2.0160	 9.526E+00	-5.500E+00	 0.000E+00	 1.487E+02	 5.243E+00	 2.769E+00	 1.787E+00	-3.410E-01	-1.131E-01	 9.002E-02	-1.474E+01	-5.160E+00	-1.297E+02	 2.939E+01	 6.455E-01	 3.438E-01	-3.650E-01	 1.118E+00	 2.694E-01	 2.426E-01	 1.580E-01	 9.648E-02	 9.650E-01	 4.431E-01	 5.269E-01	 9.298E+00
    2.0640	 9.526E+00	-5.500E+00	 0.000E+00	 1.693E+02	 3.272E+00	-1.009E+00	 1.110E+00	 1.999E+00	-3.207E-01	-3.699E-01	 1.049E+00	-7.647E+00	-1.922E+02	 2.937E+01	 9.660E-02	 9.563E-01	 3.340E-02	 1.093E+00	-7.481E-02	 5.699E-01	-6.895E-03	 3.287E-01	 1.929E+00	 1.007E+00	 3.904E-01	 9.956E+00
    2.1120	 9.526E+00	-5.500E+00	 0.000E+00	 1.900E+02	-7.534E+00	-3.944E-01	-2.072E+00	-1.628E+00	-8.479E-01	-5.815E-01	-6.191E+00	-4.300E+00	-1.081E+02	 2.938E+01	-2.462E-01	 1.672E+00	 2.230E-01	 1.138E+00	-3.106E-01	 9.746E-01	-1.013E-01	 6.002E-01	 1.858E+00	 1.036E+00	 2.486E-01	 8.801E+00
    2.1600	 9.526E+00	-5.500E+00	 0.000E+00	 2.106E+02	 6.943E+00	-1.106E+00	 5.082E+00	 2.307E-01	-6.541E-01	-8.030E-01	 1.950E+01	-1.849E-01	-4.648E+00	 2.943E+01	-6.065E-01	 1.290E+00	 6.247E-01	 8.078E-01	-4.256E-01	 7.112E-01	-1.758E-01	 4.504E-01	 1.716E+00	 8.832E-01	 2.678E-01	 8.756E+00
    2.2080	 9.526E+00	-5.500E+00	 0.000E+00	 2.313E+02	-1.387E+00	-2.082E+00	 5.956E-02	-7.372E-01	-4.516E-01	-6.842E-01	 5.396E+00	 3.565E+00	 8.959E+01	 2.949E+01	-8.869E-01	 1.877E+00	 8.618E-01	 1.006E+00	-6.251E-01	 1.024E+00	-2.608E-01	 6.530E-01	 1.632E+00	 8.121E-01	 3.200E-01	 8.823E+00
    2.2560	 9.526E+00	-5.500E+00	 0.000E+00	 2.520E+02	-3.333E+00	-9.330E-02	-7.462E-01	-1.528E+00	 7.155E-02	 1.185E-01	 1.360E+01	 7.246E+00	 1.821E+02	 2.956E+01	-8.621E-01	 2.084E+00	 9.131E-01	 9.794E-01	-6.248E-01	 1.160E+00	-2.465E-01	 7.440E-01	 6.388E-01	 2.743E-01	 4.091E-01	 7.677E+00
    2.3040	 9.526E+00	-5.500E+00	 0.000E+00	 2.727E+02	 7.443E+00	-3.652E-01	 2.509E+00	 1.098E+00	 3.936E-01	 5.707E-02	 1.770E+00	 6.898E+00	 1.733E+02	 2.959E+01	-8.537E-01	 1.622E+00	 1.088E+00	 5.551E-01	-5.609E-01	 8.680E-01	-2.310E-01	 5.554E-01	 3.223E-01	 1.041E-01	 5.315E-01	 8.247E+00
    2.3520	 9.526E+00	-5.500E+00	 0.000E+00	 2.934E+02	 7.434E-01	 1.304E+00	-3.351E-01	-1.328E-01	 5.677E-01	 5.694E-01	-1.218E+01	 2.359E+00	 5.927E+01	 2.961E+01	-6.550E-01	 1.551E+00	 9.350E-01	 7.408E-01	-4.602E-01	 8.660E-01	-1.771E-01	 5.605E-01	-2.331E-01	-1.403E-01	 5.548E-01	 7.984E+00
    2.4000	 9.526E+00	-5.500E+00	 0.000E+00	 3.141E+02	 2.755E-01	 8.805E-01	-2.316E+00	 1.920E+00	 6.922E-01	 7.510E-01	-1.159E+01	-2.591E+00	-6.511E+01	 2.961E+01	-4.832E-01	 1.288E+00	 7.968E-01	 5.368E-01	-3.541E-01	 7.345E-01	-1.312E-01	 4.777E-01	-7.128E-01	-3.266E-01	 4.913E-01	 7.739E+00
    2.4480	 9.526E+00	-5.500E+00	 0.000E+00	 3.348E+02	 7.488E+00	 1.258E+00	 1.014E+01	 1.166E+00	 2.888E-01	 4.074E-01	-1.244E+01	-7.122E+00	-1.790E+02	 2.961E+01	-2.070E-01	 7.743E-01	 4.972E-01	 3.624E-01	-1.630E-01	 4.453E-01	-4.786E-02	 2.873E-01	-3.138E-01	-9.437E-02	 3.941E-01	 8.296E+00
    2.4960	 9.526E+00	-5.500E+00	 0.000E+00	 3.554E+02	-6.318E-01	 5.319E-01	-5.244E+00	-1.079E+00	 6.929E-01	 5.958E-01	-1.110E+01	-8.434E+00	-2.119E+02	 2.963E+01	 8.431E-02	 9.715E-01	-1.104E-02	 1.256E+00	-6.546E-02	 5.936E-01	 7.795E-03	 3.702E-01	-1.999E-01	-5.484E-02	 2.625E-01	 7.268E+00
    2.5440	 9.526E+00	-5.500E+00	 0.000E+00	 1.607E+01	 2.232E+00	-1.309E+00	-3.031E+00	 7.611E-01	 6.116E-01	-1.462E-01	 2.005E+01	-3.302E+00	-8.298E+01	 2.967E+01	 3.035E-01	 8.580E-01	-3.079E-01	 1.459E+00	 3.798E-02	 5.266E-01	 5.259E-02	 3.121E-01	 4.128E-01	 2.352E-01	 2.073E-01	 7.527E+00
    2.5920	 9.526E+00	-5.500E+00	 0.000E+00	 3.672E+01	 5.118E+00	-2.333E-01	 9.066E+00	-2.321E+00	-1.589E-01	 1.291E-01	-2.274E+00	 9.832E-01	 2.471E+01	 2.972E+01	 7.171E-01	 7.929E-01	-7.127E-01	 1.209E+00	 2.357E-01	 4.948E-01	 1.496E-01	 2.594E-01	 1.054E+00	 4.695E-01	 2.792E-01	 8.474E+00
    2.6400	 9.526E+00	-5.500E+00	 0.000E+00	 5.739E+01	-4.310E+00	-7.363E-01	-3.977E+00	-1.223E+00	-3.635E-02	-6.116E-01	 1.808E+01	 4.321E+00	 1.086E+02	 2.976E+01	 8.589E-01	 1.215E+00	-8.969E-01	 1.859E+00	 2.459E-01	 7.331E-01	 1.680E-01	 3.852E-01	 1.273E+00	 5.625E-01	 3.502E-01	 8.336E+00
    2.6880	 9.526E+00	-5.500E+00	 0.000E+00	 7.810E+01	-8.316E-01	-1.347E+00	 2.824E+00	 3.358E-01	-7.417E-01	-3.071E-01	 8.923E+00	 7.978E+00	 2.005E+02	 2.980E+01	 9.651E-01	 9.391E-01	-8.773E-01	 1.843E+00	 3.197E-01	 5.668E-01	 1.941E-01	 2.780E-01	 1.826E+00	 8.805E-01	 4.712E-01	 9.223E+00
    2.7360	 9.526E+00	-5.500E+00	 0.000E+00	 9.881E+01	 3.502E+00	 1.200E+00	 5.312E+00	-9.827E-01	-9.903E-01	-9.108E-02	-7.446E+00	 5.397E+00	 1.356E+02	 2.980E+01	 1.090E+00	 7.632E-01	-8.712E-01	 1.564E+00	 4.138E-01	 4.888E-01	 2.447E-01	 2.285E-01	 1.683E+00	 8.547E-01	 5.493E-01	 9.432E+00
    2.7840	 9.526E+00	-5.500E+00	 0.000E+00	 1.195E+02	-6.249E+00	 5.677E-01	-2.803E+00	 1.209E+00	-3.221E-01	 2.687E-02	-5.257E+00	 9.647E-01	 2.424E+01	 2.977E+01	 8.920E-01	 7.865E-01	-6.445E-01	 1.714E+00	 3.082E-01	 5.271E-01	 1.894E-01	 2.850E-01	 1.379E+00	 8.216E-01	 5.087E-01	 9.502E+00
    2.8320	 9.526E+00	-5.500E+00	 0.000E+00	 1.402E+02	 2.955E+00	 1.994E+00	 1.244E+00	 7.637E-01	-1.619E-01	 4.885E-01	-9.706E+00	-2.738E+00	-6.879E+01	 2.973E+01	 7.547E-01	 4.414E-01	-4.593E-01	 1.286E+00	 2.983E-01	 3.046E-01	 1.733E-01	 1.353E-01	 1.141E+00	 8.136E-01	 4.099E-01	 9.913E+00
    2.8800	 9.526E+00	-5.500E+00	 0.000E+00	 1.609E+02	 1.153E+01	 6.140E-01	 1.536E+00	 4.715E-01	 3.158E-01	 5.638E-01	-2.091E+01	-7.773E+00	-1.953E+02	 2.967E+01	 3.753E-01	 3.930E-01	-1.499E-01	 1.044E+00	 1.223E-01	 2.706E-01	 7.768E-02	 1.369E-01	 3.525E-01	 4.188E-01	 2.700E-01	 8.886E+00
    2.9280	 9.526E+00	-5.500E+00	 0.000E+00	 1.815E+02	-9.451E+00	-2.950E-02	-2.788E+00	 3.978E-01	 5.601E-01	-2.043E-01	 1.625E+01	-6.768E+00	-1.701E+02	 2.963E+01	-1.058E-01	 1.425E+00	 1.349E-01	 1.138E+00	-2.220E-01	 8.647E-01	-6.230E-02	 5.351E-01	 1.533E-01	 2.890E-01	 1.479E-01	 7.802E+00
    2.9760	 9.526E+00	-5.500E+00	 0.000E+00	 2.022E+02	 5.248E+00	-3.048E-01	 4.855E+00	-1.879E+00	 3.746E-01	 1.885E-01	-5.057E+00	-1.407E+00	-3.536E+01	 2.962E+01	-3.994E-01	 1.227E+00	 4.193E-01	 7.540E-01	-3.280E-01	 7.107E-01	-1.264E-01	 4.431E-01	-1.820E-01	 1.636E-02	 1.418E-01	 7.269E+00
    3.0240	 9.526E+00	-5.500E+00	 0.000E+00	 2.228E+02	 4.069E+00	-2.328E+00	 3.035E+00	 7.192E-01	 6.988E-01	 1.729E-01	 1.330E+01	 9.770E-01	 2.455E+01	 2.962E+01	-7.982E-01	 1.288E+00	 8.074E-01	 8.540E-01	-5.286E-01	 7.174E-01	-2.333E-01	 4.740E-01	-5.142E-01	-3.544E-01	 2.520E-01	 6.882E+00
    3.0720	 9.526E+00	-5.500E+00	 0.000E+00	 2.435E+02	-2.279E+00	 3.106E-01	-2.401E+00	-2.334E+00	 7.674E-01	 2.171E-02	 1.518E+01	 6.069E+00	 1.525E+02	 2.962E+01	-8.473E-01	 1.911E+00	 8.479E-01	 1.056E+00	-5.984E-01	 1.070E+00	-2.381E-01	 6.872E-01	-8.196E-02	-2.236E-01	 3.935E-01	 7.305E+00
    3.1200	 9.526E+00	-5.500E+00	 0.000E+00	 2.642E+02	 5.759E+00	-6.565E-01	 4.598E+00	-3.581E-03	 8.152E-01	 6.131E-01	-3.024E+00	 7.196E+00	 1.808E+02	 2.961E+01	-8.813E-01	 1.547E+00	 1.043E+00	 7.220E-01	-5.752E-01	 8.431E-01	-2.429E-01	 5.516E-01	 3.477E-02	-2.589E-01	 5.783E-01	 7.581E+00
    3.1680	 9.526E+00	-5.500E+00	 0.000E+00	 2.849E+02	 4.461E+00	 2.775E-01	-1.452E+00	 1.073E+00	 3.451E-01	 3.080E-01	-4.008E-01	 3.589E+00	 9.019E+01	 2.959E+01	-7.825E-01	 1.510E+00	 1.025E+00	 7.259E-01	-5.174E-01	 8.124E-01	-2.124E-01	 5.231E-01	 5.431E-01	 1.398E-02	 6.760E-01	 8.397E+00
    3.2160	 9.526E+00	-5.500E+00	 0.000E+00	 3.056E+02	-2.050E+00	 1.817E+00	-1.168E+00	 1.051E-01	-3.395E-01	-8.805E-02	-6.434E+00	 5.226E-01	 1.313E+01	 2.955E+01	-5.653E-01	 1.554E+00	 8.245E-01	 7.783E-01	-4.113E-01	 8.657E-01	-1.499E-01	 5.543E-01	 1.204E+00	 4.603E-01	 6.599E-01	 9.455E+00
    3.2640	 9.526E+00	-5.500E+00	 0.000E+00	 3.263E+02	 2.258E+00	-1.356E-01	 5.388E+00	 2.235E+00	-7.780E-01	 1.973E-01	-2.075E+01	-4.402E+00	-1.106E+02	 2.950E+01	-3.862E-01	 1.146E+00	 6.734E-01	 3.712E-01	-2.957E-01	 6.323E-01	-1.089E-01	 4.058E-01	 1.336E+00	 6.359E-01	 5.543E-01	 9.710E+00
    3.3120	 9.526E+00	-5.500E+00	 0.000E+00	 3.470E+02	-2.047E-01	 1.817E+00	 3.424E+00	-1.335E-01	-1.137E+00	-3.465E-01	 2.390E+00	-7.948E+00	-1.997E+02	 2.947E+01	-2.192E-02	 1.161E+00	 1.774E-01	 7.860E-01	-1.171E-01	 6.644E-01	-8.551E-03	 4.058E-01	 1.800E+00	 9.628E-01	 3.940E-01	 9.987E+00
    3.3600	 9.526E+00	-5.500E+00	 0.000E+00	 7.617E+00	-3.037E+00	-1.315E+00	-5.281E+00	-5.225E-01	-6.528E-01	-9.631E-02	-4.964E+00	-4.411E+00	-1.109E+02	 2.946E+01	 1.931E-01	 1.171E+00	-2.043E-01	 1.639E+00	-4.716E-02	 6.910E-01	 1.922E-02	 4.178E-01	 1.776E+00	 1.032E+00	 2.387E-01	 8.914E+00
    3.4080	 9.526E+00	-5.500E+00	 0.000E+00	 2.827E+01	 6.370E+00	-2.501E-01	 4.831E+00	-9.276E-01	-4.293E-02	-1.480E-01	 1.072E+01	-1.195E+00	-3.002E+01	 2.948E+01	 5.787E-01	 8.073E-01	-5.557E-01	 1.230E+00	 1.766E-01	 4.973E-01	 1.232E-01	 2.703E-01	 1.358E+00	 7.746E-01	 2.145E-01	 8.536E+00
    3.4560	 9.526E+00	-5.500E+00	 0.000E+00	 4.893E+01	 6.071E-01	-3.928E-01	 9.030E-01	-1.927E+00	 1.564E-01	-8.333E-02	 1.257E+01	 2.942E+00	 7.393E+01	 2.952E+01	 8.366E-01	 9.910E-01	-8.569E-01	 1.760E+00	 2.628E-01	 6.171E-01	 1.696E-01	 3.249E-01	 1.092E+00	 6.008E-01	 2.528E-01	 8.331E+00
    3.5040	 9.526E+00	-5.500E+00	 0.000E+00	 6.962E+01	-3.371E-01	-1.947E+00	-3.631E+00	-3.281E-01	 5.482E-01	-2.475E-01	 6.939E+00	 6.843E+00	 1.720E+02	 2.956E+01	 9.024E-01	 9.770E-01	-8.689E-01	 2.054E+00	 2.827E-01	 5.926E-01	 1.752E-01	 2.952E-01	 3.491E-01	 1.754E-01	 3.488E-01	 7.541E+00
    3.5520	 9.526E+00	-5.500E+00	 0.000E+00	 9.034E+01	 1.935E+00	 9.825E-01	 6.838E+00	-1.978E-01	 5.985E-01	 1.470E-01	 5.246E+00	 6.635E+00	 1.667E+02	 2.958E+01	 1.070E+00	 5.452E-01	-8.523E-01	 1.598E+00	 4.226E-01	 3.935E-01	 2.425E-01	 1.886E-01	-7.635E-02	-8.600E-02	 4.851E-01	 7.752E+00
    3.6000	 9.526E+00	-5.500E+00	 0.000E+00	 1.111E+02	-1.380E+00	 2.223E-01	 1.802E+00	 1.112E+00	 4.435E-01	 2.584E-01	-5.479E+00	 2.893E+00	 7.269E+01	 2.958E+01	 9.587E-01	 7.331E-01	-6.918E-01	 1.551E+00	 3.444E-01	 4.970E-01	 2.063E-01	 2.551E-01	-3.263E-01	-2.108E-01	 5.478E-01	 7.890E+00
    3.6480	 9.526E+00	-5.500E+00	 0.000E+00	 1.318E+02	-1.162E+00	 1.206E+00	-4.042E-01	 8.484E-01	 4.967E-01	 3.940E-01	-1.692E+01	-1.578E+00	-3.966E+01	 2.957E+01	 8.053E-01	 5.764E-01	-5.048E-01	 1.330E+00	 2.970E-01	 4.065E-01	 1.771E-01	 2.112E-01	-5.235E-01	-2.921E-01	 5.316E-01	 7.904E+00
    3.6960	 9.526E+00	-5.500E+00	 0.000E+00	 1.524E+02	 8.022E+00	 1.595E+00	 6.645E+00	 1.335E+00	 4.912E-01	 3.820E-01	-6.746E+00	-6.587E+00	-1.655E+02	 2.956E+01	 5.380E-01	 3.271E-01	-2.418E-01	 8.523E-01	 2.130E-01	 2.334E-01	 1.255E-01	 9.747E-02	-1.298E-01	-8.602E-02	 4.612E-01	 8.420E+00
    3.7440	 9.526E+00	-5.500E+00	 0.000E+00	 1.731E+02	-1.532E+00	-9.750E-01	-6.186E-01	 5.470E-01	-7.301E-02	-4.356E-02	-1.306E+01	-7.824E+00	-1.966E+02	 2.956E+01	 4.357E-02	 1.176E+00	 4.920E-02	 1.007E+00	-1.276E-01	 7.022E-01	-2.663E-02	 4.137E-01	 3.214E-01	 1.293E-01	 3.491E-01	 7.935E+00
    3.7920	 9.526E+00	-5.500E+00	 0.000E+00	 1.937E+02	-5.785E+00	 2.880E-01	 2.089E+00	-1.032E+00	-6.827E-02	-4.561E-01	 1.394E+01	-3.958E+00	-9.947E+01	 2.959E+01	-2.949E-01	 1.485E+00	 2.921E-01	 9.457E-01	-3.090E-01	 8.834E-01	-1.041E-01	 5.563E-01	 8.251E-01	 3.621E-01	 2.860E-01	 7.882E+00
    3.8400	 9.526E+00	-5.500E+00	 0.000E+00	 2.144E+02	 9.741E+00	-1.705E+00	 4.194E+00	-1.191E-01	-3.175E-01	-4.622E-01	 5.319E+00	 7.732E-01	 1.943E+01	 2.963E+01	-6.635E-01	 1.216E+00	 6.774E-01	 8.017E-01	-4.472E-01	 6.622E-01	-1.919E-01	 4.195E-01	 1.392E+00	 5.923E-01	 3.291E-01	 8.691E+00
    3.8880	 9.526E+00	-5.500E+00	 0.000E+00	 2.350E+02	-3.525E+00	-1.733E+00	-2.903E+00	-7.169E-01	-2.376E-01	-3.873E-01	 1.115E+01	 3.881E+00	 9.752E+01	 2.968E+01	-9.018E-01	 1.856E+00	 8.649E-01	 1.197E+00	-6.311E-01	 1.024E+00	-2.637E-01	 6.627E-01	 1.568E+00	 6.875E-01	 3.771E-01	 8.647E+00
    3.9360	 9.526E+00	-5.500E+00	 0.000E+00	 2.557E+02	 1.011E+00	 2.494E-01	-8.632E-01	-1.214E+00	-1.227E-01	-3.787E-01	 1.375E+01	 7.619E+00	 1.915E+02	 2.972E+01	-8.784E-01	 1.920E+00	 9.545E-01	 9.629E-01	-6.050E-01	 1.051E+00	-2.407E-01	 6.728E-01	 1.726E+00	 8.217E-01	 4.649E-01	 8.985E+00
    3.9840	 9.526E+00	-5.500E+00	 0.000E+00	 2.765E+02	 6.058E+00	-6.617E-01	 3.048E+00	 9.319E-01	-1.663E-01	-1.034E-01	-5.630E+00	 5.787E+00	 1.454E+02	 2.973E+01	-8.644E-01	 1.604E+00	 1.083E+00	 7.195E-01	-5.661E-01	 8.486E-01	-2.364E-01	 5.440E-01	 1.511E+00	 7.936E-01	 5.241E-01	 9.296E+00
    4.0320	 9.526E+00	-5.500E+00	 0.000E+00	 2.972E+02	-2.533E+00	 6.880E-01	-1.607E+00	 3.793E-01	-2.797E-01	 8.798E-02	-1.289E+01	 1.365E+00	 3.431E+01	 2.971E+01	-6.762E-01	 1.701E+00	 9.261E-01	 7.916E-01	-4.870E-01	 9.396E-01	-1.874E-01	 6.034E-01	 1.031E+00	 6.755E-01	 4.807E-01	 9.190E+00
    4.0800	 9.526E+00	-5.500E+00	 0.000E+00	 3.179E+02	 1.291E+00	 1.216E+00	 1.876E-01	 1.865E+00	-3.818E-01	-2.202E-01	-5.362E+00	-2.684E+00	-6.746E+01	 2.968E+01	-4.617E-01	 1.306E+00	 7.622E-01	 4.534E-01	-3.353E-01	 7.251E-01	-1.186E-01	 4.634E-01	 6.434E-01	 5.783E-01	 3.874E-01	 9.368E+00
    4.1280	 9.526E+00	-5.500E+00	 0.000E+00	 3.385E+02	 2.859E+00	 3.083E-01	 1.359E+01	 8.724E-01	-1.280E-01	 3.413E-01	-2.124E+01	-7.507E+00	-1.887E+02	 2.964E+01	-1.922E-01	 9.651E-01	 4.365E-01	 3.718E-01	-1.855E-01	 5.529E-01	-5.549E-02	 3.530E-01	 6.792E-02	 3.018E-01	 2.556E-01	 8.678E+00
    4.1760	 9.526E+00	-5.500E+00	 0.000E+00	 3.592E+02	-1.452E+00	 5.049E-01	-8.624E+00	-4.860E-01	 4.326E-01	 5.311E-02	 7.766E+00	-7.613E+00	-1.913E+02	 2.962E+01	 1.169E-01	 1.086E+00	-7.498E-02	 1.355E+00	-5.955E-02	 6.531E-01	 1.635E-02	 4.002E-01	-1.362E-01	 1.318E-01	 1.496E-01	 7.508E+00
    4.2240	 9.526E+00	-5.500E+00	 0.000E+00	 1.981E+01	 4.373E+00	-1.603E+00	 3.646E+00	 1.049E-01	 7.749E-01	 1.419E-01	 7.563E+00	-1.806E+00	-4.539E+01	 2.962E+01	 3.766E-01	 7.471E-01	-3.633E-01	 1.316E+00	 8.015E-02	 4.686E-01	 6.906E-02	 2.747E-01	-2.084E-01	-2.284E-02	 1.519E-01	 7.122E+00
    4.2720	 9.526E+00	-5.500E+00	 0.000E+00	 4.047E+01	 3.793E+00	 1.388E-01	 5.645E+00	-2.329E+00	 8.820E-01	 1.908E-01	 3.690E+00	 9.431E-01	 2.370E+01	 2.964E+01	 7.684E-01	 8.157E-01	-7.596E-01	 1.233E+00	 2.567E-01	 5.232E-01	 1.628E-01	 2.740E-01	-2.939E-01	-2.753E-01	 2.737E-01	 7.106E+00
    4.3200	 9.526E+00	-5.500E+00	 0.000E+00	 6.114E+01	-2.703E+00	-1.440E+00	-3.164E+00	-2.378E-01	 5.333E-01	-2.819E-01	 2.113E+01	 5.613E+00	 1.411E+02	 2.966E+01	 8.638E-01	 1.093E+00	-8.730E-01	 1.886E+00	 2.541E-01	 6.702E-01	 1.662E-01	 3.507E-01	 1.649E-01	-1.483E-01	 4.200E-01	 7.457E+00
    4.3680	 9.526E+00	-5.500E+00	 0.000E+00	 8.185E+01	 3.322E+00	-8.606E-01	 5.324E+00	-9.850E-02	-8.270E-02	-7.178E-02	-1.983E+00	 7.688E+00	 1.932E+02	 2.966E+01	 1.003E+00	 7.953E-01	-8.630E-01	 1.621E+00	 3.572E-01	 4.961E-01	 2.109E-01	 2.336E-01	 4.992E-01	-5.015E-02	 6.015E-01	 7.953E+00
    4.4160	 9.526E+00	-5.500E+00	 0.000E+00	 1.026E+02	-2.632E-01	 1.347E+00	 4.825E+00	-4.546E-01	-3.215E-01	 2.390E-03	-5.830E+00	 4.149E+00	 1.043E+02	 2.965E+01	 1.063E+00	 7.510E-01	-8.256E-01	 1.507E+00	 3.996E-01	 5.040E-01	 2.382E-01	 2.515E-01	 9.129E-01	 1.996E-01	 6.901E-01	 8.690E+00
    4.4640	 9.526E+00	-5.500E+00	 0.000E+00	 1.233E+02	-2.657E+00	 2.491E-01	-1.961E+00	 2.024E+00	-4.217E-01	-3.094E-02	-1.035E-01	 6.689E-01	 1.681E+01	 2.962E+01	 8.434E-01	 7.940E-01	-5.844E-01	 1.610E+00	 2.850E-01	 5.241E-01	 1.769E-01	 2.827E-01	 1.418E+00	 5.934E-01	 6.586E-01	 9.584E+00
    4.5120	 9.526E+00	-5.500E+00	 0.000E+00	 1.440E+02	 4.994E+00	 2.013E+00	 1.432E+00	-2.644E-04	-5.544E-01	 3.005E-01	-2.339E+01	-3.729E+00	-9.370E+01	 2.957E+01	 7.071E-01	 4.226E-01	-4.179E-01	 1.199E+00	 2.827E-01	 2.793E-01	 1.644E-01	 1.138E-01	 1.485E+00	 7.810E-01	 5.323E-01	 9.920E+00
    4.5600	 9.526E+00	-5.500E+00	 0.000E+00	 1.646E+02	 4.831E+00	 4.463E-01	 6.250E-01	 1.276E+00	-8.389E-03	 3.577E-02	-4.025E+00	-8.305E+00	-2.087E+02	 2.953E+01	 2.603E-01	 6.333E-01	-7.915E-02	 1.146E+00	 4.101E-02	 4.108E-01	 4.484E-02	 2.367E-01	 1.583E+00	 9.505E-01	 3.443E-01	 9.927E+00
    4.6080	 9.526E+00	-5.500E+00	 0.000E+00	 1.853E+02	-5.439E+00	-6.245E-01	-3.275E+00	-4.727E-01	-5.447E-01	-5.516E-01	 4.027E+00	-5.134E+00	-1.290E+02	 2.952E+01	-1.790E-01	 1.605E+00	 1.769E-01	 1.181E+00	-2.723E-01	 9.333E-01	-8.422E-02	 5.655E-01	 1.495E+00	 9.824E-01	 1.786E-01	 8.783E+00
    4.6560	 9.526E+00	-5.500E+00	 0.000E+00	 2.059E+02	 4.747E+00	-5.983E-01	 6.254E+00	-1.364E+00	-2.819E-01	-2.020E-01	 4.578E-03	-1.634E+00	-4.106E+01	 2.953E+01	-4.860E-01	 1.236E+00	 5.019E-01	 8.021E-01	-3.683E-01	 7.042E-01	-1.477E-01	 4.477E-01	 9.879E-01	 6.877E-01	 1.367E-01	 8.256E+00
    4.7040	 9.526E+00	-5.500E+00	 0.000E+00	 2.266E+02	 2.237E+00	-2.117E+00	 4.497E-01	 4.386E-01	 1.001E-02	-4.783E-01	 2.030E+01	 2.181E+00	 5.482E+01	 2.956E+01	-8.477E-01	 1.622E+00	 8.339E-01	 9.296E-01	-5.807E-01	 8.882E-01	-2.467E-01	 5.712E-01	 6.150E-01	 4.083E-01	 1.912E-01	 7.922E+00
    4.7520	 9.526E+00	-5.500E+00	 0.000E+00	 2.473E+02	-3.017E+00	-2.215E-01	-6.260E-01	-2.435E+00	 3.515E-01	 1.998E-01	 5.715E+00	 6.681E+00	 1.679E+02	 2.959E+01	-8.579E-01	 2.030E+00	 8.724E-01	 9.985E-01	-6.197E-01	 1.132E+00	-2.467E-01	 7.255E-01	 1.075E-01	 5.968E-02	 3.144E-01	 7.364E+00
    4.8000	 9.526E+00	-5.500E+00	 0.000E+00	 2.680E+02	 5.950E+00	-2.627E-01	 3.397E+00	 6.097E-01	 8.074E-01	 4.388E-01	 4.281E+00	 6.970E+00	 1.752E+02	 2.961E+01	-8.604E-01	 1.584E+00	 1.058E+00	 5.812E-01	-5.646E-01	 8.620E-01	-2.342E-01	 5.604E-01	-2.443E-01	-2.157E-01	 4.851E-01	 7.510E+00
    4.8480	 9.526E+00	-5.500E+00	 0.000E+00	 2.887E+02	 3.163E+00	 8.515E-01	-1.820E+00	 6.932E-01	 6.845E-01	 4.401E-01	-1.269E+00	 3.316E+00	 8.333E+01	 2.960E+01	-7.251E-01	 1.528E+00	 9.875E-01	 7.022E-01	-4.907E-01	 8.381E-01	-1.953E-01	 5.405E-01	-2.890E-01	-2.726E-01	 5.860E-01	 7.854E+00
    4.8960	 9.526E+00	-5.500E+00	 0.000E+00	 3.094E+02	-9.728E-01	 1.254E+00	-6.153E-01	 5.015E-01	 4.208E-01	 6.963E-01	-1.749E+01	-5.552E-01	-1.395E+01	 2.958E+01	-5.158E-01	 1.383E+00	 8.056E-01	 6.516E-01	-3.781E-01	 7.858E-01	-1.405E-01	 5.103E-01	-2.191E-01	-2.355E-01	 6.023E-01	 8.115E+00
    4.9440	 9.526E+00	-5.500E+00	 0.000E+00	 3.301E+02	 5.859E+00	 7.266E-01	 5.631E+00	 2.062E+00	-2.706E-02	 3.880E-01	-1.244E+01	-5.942E+00	-1.493E+02	 2.956E+01	-2.967E-01	 9.329E-01	 5.981E-01	 3.145E-01	-2.251E-01	 5.246E-01	-7.648E-02	 3.368E-01	 1.697E-01	-1.276E-02	 5.339E-01	 8.688E+00
    4.9920	 9.526E+00	-5.500E+00	 0.000E+00	 3.507E+02	-3.640E-01	 1.348E+00	 1.985E+00	-7.965E-01	-1.765E-01	 2.307E-01	-3.979E+00	-7.677E+00	-1.929E+02	 2.954E+01	 3.486E-02	 1.041E+00	 8.679E-02	 1.041E+00	-8.663E-02	 6.178E-01	 1.480E-03	 3.832E-01	 7.351E-01	 2.916E-01	 4.130E-01	 8.505E+00
    5.0400	 9.526E+00	-5.500E+00	 0.000E+00	 1.137E+01	 2.482E-01	-1.427E+00	-6.611E+00	-5.001E-02	-1.512E-01	 2.656E-02	 1.876E-01	-4.391E+00	-1.103E+02	 2.955E+01	 2.511E-01	 1.038E+00	-2.565E-01	 1.530E+00	-6.944E-03	 6.192E-01	 3.477E-02	 3.692E-01	 1.173E+00	 5.377E-01	 3.140E-01	 8.243E+00
    5.0880	 9.526E+00	-5.500E+00	 0.000E+00	 3.202E+01	 5.097E+00	 1.403E-01	 8.651E+00	-1.099E+00	-2.786E-01	-2.213E-01	 1.681E+01	 8.206E-04	 2.062E-02	 2.959E+01	 6.440E-01	 8.231E-01	-6.225E-01	 1.197E+00	 2.050E-01	 5.086E-01	 1.381E-01	 2.733E-01	 1.556E+00	 7.176E-01	 3.135E-01	 8.839E+00
    5.1360	 9.526E+00	-5.500E+00	 0.000E+00	 5.268E+01	-1.893E+00	-6.843E-01	-1.644E+00	-2.208E+00	-3.426E-01	-2.383E-01	 4.070E+00	 3.475E+00	 8.733E+01	 2.963E+01	 8.611E-01	 1.151E+00	-8.968E-01	 1.824E+00	 2.531E-01	 6.992E-01	 1.685E-01	 3.679E-01	 1.638E+00	 7.889E-01	 3.353E-01	 8.755E+00
    5.1840	 9.526E+00	-5.500E+00	 0.000E+00	 7.338E+01	-6.160E-01	-1.562E+00	-1.470E+00	 3.642E-01	-3.241E-01	-5.100E-01	 1.594E+01	 7.063E+00	 1.775E+02	 2.966E+01	 9.274E-01	 1.001E+00	-8.720E-01	 1.981E+00	 2.960E-01	 5.980E-01	 1.840E-01	 2.949E-01	 1.531E+00	 7.848E-01	 4.046E-01	 8.746E+00
    5.2320	 9.526E+00	-5.500E+00	 0.000E+00	 9.410E+01	 2.918E+00	 1.123E+00	 6.730E+00	-7.811E-01	-4.073E-01	 5.822E-02	-2.103E+00	 6.253E+00	 1.571E+02	 2.967E+01	 1.091E+00	 6.576E-01	-8.779E-01	 1.628E+00	 4.222E-01	 4.451E-01	 2.457E-01	 2.134E-01	 1.208E+00	 6.890E-01	 4.706E-01	 9.025E+00
    5.2800	 9.526E+00	-5.500E+00	 0.000E+00	 1.148E+02	-6.869E-01	 1.142E-01	-1.723E+00	 8.009E-01	-1.879E-01	 1.301E-01	-1.103E+01	 2.028E+00	 5.097E+01	 2.966E+01	 9.335E-01	 7.881E-01	-6.850E-01	 1.677E+00	 3.277E-01	 5.162E-01	 1.984E-01	 2.644E-01	 6.889E-01	 5.104E-01	 4.588E-01	 8.855E+00
    5.3280	 9.526E+00	-5.500E+00	 0.000E+00	 1.355E+02	-1.812E+00	 1.732E+00	 7.695E-01	 1.034E+00	 3.533E-01	 4.965E-01	-9.476E+00	-2.357E+00	-5.922E+01	 2.963E+01	 7.844E-01	 4.791E-01	-4.865E-01	 1.343E+00	 3.007E-01	 3.505E-01	 1.763E-01	 1.790E-01	 2.625E-01	 3.494E-01	 3.988E-01	 8.956E+00
    5.3760	 9.526E+00	-5.500E+00	 0.000E+00	 1.562E+02	 1.237E+01	 1.223E+00	 4.064E+00	 6.122E-01	 3.842E-01	 5.206E-01	-1.562E+01	-6.945E+00	-1.745E+02	 2.960E+01	 4.823E-01	 3.344E-01	-2.170E-01	 9.167E-01	 1.856E-01	 2.269E-01	 1.100E-01	 9.074E-02	-1.273E-01	 1.402E-01	 3.000E-01	 8.498E+00
    5.4240	 9.526E+00	-5.500E+00	 0.000E+00	 1.768E+02	-7.335E+00	-9.339E-01	-1.240E+00	 5.383E-01	 4.684E-01	 8.190E-02	-4.773E+00	-7.818E+00	-1.965E+02	 2.959E+01	-3.870E-02	 1.281E+00	 9.833E-02	 1.050E+00	-1.826E-01	 7.833E-01	-5.041E-02	 4.836E-01	-2.033E-01	 7.440E-03	 2.161E-01	 7.456E+00
    5.4720	 9.526E+00	-5.500E+00	 0.000E+00	 1.975E+02	-8.686E-02	 6.098E-01	 3.862E+00	-1.341E+00	 3.930E-01	-2.397E-01	 1.728E+01	-2.464E+00	-6.192E+01	 2.960E+01	-3.251E-01	 1.376E+00	 3.375E-01	 7.886E-01	-3.057E-01	 8.118E-01	-1.055E-01	 5.056E-01	-1.010E-01	-6.056E-02	 2.158E-01	 7.129E+00
    5.5200	 9.526E+00	-5.500E+00	 0.000E+00	 2.181E+02	 7.149E+00	-2.457E+00	 4.787E+00	 4.143E-02	 3.456E-01	 1.279E-01	-1.899E+00	 1.009E+00	 2.535E+01	 2.962E+01	-7.311E-01	 1.199E+00	 7.467E-01	 7.802E-01	-4.868E-01	 6.597E-01	-2.160E-01	 4.276E-01	 2.559E-02	-1.806E-01	 3.287E-01	 7.380E+00
    5.5680	 9.526E+00	-5.500E+00	 0.000E+00	 2.388E+02	-4.132E+00	-4.227E-01	-2.075E+00	-1.202E+00	 5.630E-01	-1.925E-01	 2.236E+01	 4.882E+00	 1.227E+02	 2.965E+01	-8.756E-01	 1.855E+00	 8.604E-01	 1.135E+00	-6.117E-01	 1.040E+00	-2.491E-01	 6.746E-01	 4.878E-01	-2.655E-02	 4.511E-01	 7.713E+00
    5.6160	 9.526E+00	-5.500E+00	 0.000E+00	 2.595E+02	 4.542E+00	 1.846E-02	 3.317E-01	-9.013E-01	 3.917E-01	 1.565E-01	 3.618E+00	 7.836E+00	 1.969E+02	 2.967E+01	-8.678E-01	 1.716E+00	 9.888E-01	 8.489E-01	-5.806E-01	 9.363E-01	-2.370E-01	 6.025E-01	 8.748E-01	 1.504E-01	 6.003E-01	 8.240E+00