
Predictions were generated on 12-Feb-2024 at 14:25:23 using HydroDyn Driver, compiled on Dec 20 2023 at 14:52:34 as a 64-bit application using double precision at commit v2.5.0-3665-g13e4c61c-dirty
 linked with  NWTC Subroutine Library

Description from the driver input file: Compatible with HydroDyn v4.00 - Regression test for the MacCamy-Fuchs diffraction correction for strip-theory memebers

Time	Wave1Elev	HydroFxi	HydroMyi
(s)	(m)	(N)	(N-m)
    0.0000	  -4.067737E+00	   1.835019E+07	  -2.457386E+08
    0.1000	  -3.777394E+00	   1.969647E+07	  -2.613251E+08
    0.2000	  -3.468719E+00	   2.099921E+07	  -2.757534E+08
    0.3000	  -3.143669E+00	   2.225164E+07	  -2.889320E+08
    0.4000	  -2.804338E+00	   2.344534E+07	  -3.007824E+08
    0.5000	  -2.452938E+00	   2.457022E+07	  -3.112247E+08
    0.6000	  -2.091788E+00	   2.561658E+07	  -3.201774E+08
    0.7000	  -1.723287E+00	   2.657077E+07	  -3.275864E+08
    0.8000	  -1.349901E+00	   2.742093E+07	  -3.333978E+08
    0.9000	  -9.741340E-01	   2.815348E+07	  -3.375674E+08
    1.0000	  -5.985143E-01	   2.875305E+07	  -3.400996E+08
    1.1000	  -2.255646E-01	   2.920675E+07	  -3.409800E+08
    1.2000	   1.422174E-01	   2.949910E+07	  -3.402391E+08
    1.3000	   5.023844E-01	   2.960533E+07	  -3.379430E+08
    1.4000	   8.525615E-01	   2.951478E+07	  -3.341597E+08
    1.5000	   1.190470E+00	   2.922261E+07	  -3.289832E+08
    1.6000	   1.513949E+00	   2.872740E+07	  -3.225187E+08
    1.7000	   1.820976E+00	   2.803130E+07	  -3.148787E+08
    1.8000	   2.109691E+00	   2.714015E+07	  -3.061786E+08
    1.9000	   2.378410E+00	   2.606339E+07	  -2.965333E+08
    2.0000	   2.625646E+00	   2.481393E+07	  -2.860538E+08
    2.1000	   2.850122E+00	   2.340790E+07	  -2.748447E+08
    2.2000	   3.050783E+00	   2.186424E+07	  -2.630029E+08
    2.3000	   3.226813E+00	   2.020429E+07	  -2.506163E+08
    2.4000	   3.377634E+00	   1.845127E+07	  -2.377643E+08
    2.5000	   3.502920E+00	   1.662967E+07	  -2.245185E+08
    2.6000	   3.602594E+00	   1.476465E+07	  -2.109440E+08
    2.7000	   3.676831E+00	   1.288141E+07	  -1.971014E+08
    2.8000	   3.726053E+00	   1.100460E+07	  -1.830485E+08
    2.9000	   3.750926E+00	   9.157708E+06	  -1.688428E+08
    3.0000	   3.752349E+00	   7.362528E+06	  -1.545424E+08
    3.1000	   3.731442E+00	   5.638714E+06	  -1.402079E+08
    3.2000	   3.689536E+00	   4.003397E+06	  -1.259028E+08
    3.3000	   3.628151E+00	   2.470884E+06	  -1.116932E+08
    3.4000	   3.548980E+00	   1.052505E+06	  -9.764798E+07
    3.5000	   3.453867E+00	  -2.434910E+05	  -8.383718E+07
    3.6000	   3.344783E+00	  -1.411896E+06	  -7.033044E+07
    3.7000	   3.223801E+00	  -2.450436E+06	  -5.719509E+07
    3.8000	   3.093074E+00	  -3.359555E+06	  -4.449424E+07
    3.9000	   2.954800E+00	  -4.142152E+06	  -3.228456E+07
    4.0000	   2.811202E+00	  -4.803234E+06	  -2.061459E+07
    4.1000	   2.664493E+00	  -5.349560E+06	  -9.523113E+06
    4.2000	   2.516853E+00	  -5.789246E+06	   9.618842E+05
    4.3000	   2.370399E+00	  -6.131369E+06	   1.082381E+07
    4.4000	   2.227158E+00	  -6.385610E+06	   2.005767E+07
    4.5000	   2.089042E+00	  -6.561900E+06	   2.866963E+07
    4.6000	   1.957823E+00	  -6.670132E+06	   3.667639E+07
    4.7000	   1.835110E+00	  -6.719925E+06	   4.410406E+07
    4.8000	   1.722333E+00	  -6.720440E+06	   5.098691E+07
    4.9000	   1.620719E+00	  -6.680276E+06	   5.736604E+07
    5.0000	   1.531281E+00	  -6.607410E+06	   6.328795E+07
    5.1000	   1.454808E+00	  -6.509220E+06	   6.880321E+07
    5.2000	   1.391849E+00	  -6.392528E+06	   7.396517E+07
    5.3000	   1.342714E+00	  -6.263705E+06	   7.882891E+07
    5.4000	   1.307470E+00	  -6.128793E+06	   8.345011E+07
    5.5000	   1.285939E+00	  -5.993632E+06	   8.788423E+07
    5.6000	   1.277706E+00	  -5.863996E+06	   9.218555E+07
    5.7000	   1.282127E+00	  -5.745710E+06	   9.640653E+07
    5.8000	   1.298337E+00	  -5.644728E+06	   1.005969E+08
    5.9000	   1.325263E+00	  -5.567188E+06	   1.048028E+08
    6.0000	   1.361647E+00	  -5.519408E+06	   1.090664E+08
    6.1000	   1.406061E+00	  -5.507839E+06	   1.134246E+08
    6.2000	   1.456925E+00	  -5.538964E+06	   1.179088E+08
    6.3000	   1.512540E+00	  -5.619152E+06	   1.225441E+08
    6.4000	   1.571103E+00	  -5.754464E+06	   1.273486E+08
    6.5000	   1.630742E+00	  -5.950432E+06	   1.323338E+08
    6.6000	   1.689540E+00	  -6.211809E+06	   1.375038E+08
    6.7000	   1.745560E+00	  -6.542324E+06	   1.428558E+08
    6.8000	   1.796878E+00	  -6.944422E+06	   1.483804E+08
    6.9000	   1.841609E+00	  -7.419048E+06	   1.540620E+08
    7.0000	   1.877931E+00	  -7.965448E+06	   1.598796E+08
    7.1000	   1.904115E+00	  -8.581024E+06	   1.658076E+08
    7.2000	   1.918546E+00	  -9.261247E+06	   1.718163E+08
    7.3000	   1.919749E+00	  -9.999636E+06	   1.778726E+08
    7.4000	   1.906406E+00	  -1.078780E+07	   1.839405E+08
    7.5000	   1.877376E+00	  -1.161558E+07	   1.899816E+08
    7.6000	   1.831709E+00	  -1.247121E+07	   1.959549E+08
    7.7000	   1.768658E+00	  -1.334158E+07	   2.018169E+08
    7.8000	   1.687695E+00	  -1.421256E+07	   2.075214E+08
    7.9000	   1.588506E+00	  -1.506933E+07	   2.130188E+08
    8.0000	   1.471007E+00	  -1.589679E+07	   2.182562E+08
    8.1000	   1.335332E+00	  -1.667994E+07	   2.231765E+08
    8.2000	   1.181844E+00	  -1.740428E+07	   2.277190E+08
    8.3000	   1.011114E+00	  -1.805621E+07	   2.318188E+08
    8.4000	   8.239301E-01	  -1.862338E+07	   2.354078E+08
    8.5000	   6.212690E-01	  -1.909498E+07	   2.384149E+08
    8.6000	   4.042971E-01	  -1.946202E+07	   2.407677E+08
    8.7000	   1.743445E-01	  -1.971750E+07	   2.423938E+08
    8.8000	  -6.710324E-02	  -1.985650E+07	   2.432248E+08
    8.9000	  -3.184337E-01	  -1.987976E+07	   2.431965E+08
    9.0000	  -5.779171E-01	  -1.978998E+07	   2.422441E+08
    9.1000	  -8.437365E-01	  -1.958919E+07	   2.403187E+08
    9.2000	  -1.114002E+00	  -1.928114E+07	   2.373857E+08
    9.3000	  -1.386780E+00	  -1.887158E+07	   2.334167E+08
    9.4000	  -1.660105E+00	  -1.836621E+07	   2.283889E+08
    9.5000	  -1.932011E+00	  -1.777194E+07	   2.222991E+08
    9.6000	  -2.200547E+00	  -1.709522E+07	   2.151606E+08
    9.7000	  -2.463794E+00	  -1.634342E+07	   2.069832E+08
    9.8000	  -2.719889E+00	  -1.552385E+07	   1.977929E+08
    9.9000	  -2.967040E+00	  -1.464297E+07	   1.876254E+08
   10.0000	  -3.203539E+00	  -1.370692E+07	   1.765288E+08
   10.1000	  -3.427779E+00	  -1.272212E+07	   1.645447E+08
   10.2000	  -3.638265E+00	  -1.169394E+07	   1.517260E+08
   10.3000	  -3.833622E+00	  -1.062716E+07	   1.381293E+08
   10.4000	  -4.012606E+00	  -9.526171E+06	   1.238147E+08
   10.5000	  -4.174109E+00	  -8.394693E+06	   1.088452E+08
   10.6000	  -4.317164E+00	  -7.236286E+06	   9.327944E+07
   10.7000	  -4.440947E+00	  -6.053828E+06	   7.718068E+07
   10.8000	  -4.544778E+00	  -4.849852E+06	   6.061304E+07
   10.9000	  -4.628119E+00	  -3.626601E+06	   4.364108E+07
   11.0000	  -4.690577E+00	  -2.386101E+06	   2.633013E+07
   11.1000	  -4.731893E+00	  -1.130251E+06	   8.746407E+06
   11.2000	  -4.751949E+00	   1.391128E+05	  -9.042666E+06
   11.3000	  -4.750749E+00	   1.420140E+06	  -2.696829E+07
   11.4000	  -4.728425E+00	   2.710878E+06	  -4.495985E+07
   11.5000	  -4.685221E+00	   4.009208E+06	  -6.294490E+07
   11.6000	  -4.621500E+00	   5.312770E+06	  -8.084878E+07
   11.7000	  -4.537720E+00	   6.618906E+06	  -9.859478E+07
   11.8000	  -4.434438E+00	   7.924600E+06	  -1.161039E+08
   11.9000	  -4.312301E+00	   9.226447E+06	  -1.332954E+08
   12.0000	  -4.172042E+00	   1.052060E+07	  -1.500868E+08
   12.1000	  -4.014463E+00	   1.180279E+07	  -1.663941E+08
   12.2000	  -3.840447E+00	   1.306806E+07	  -1.821361E+08
   12.3000	  -3.650932E+00	   1.431122E+07	  -1.972276E+08
   12.4000	  -3.446923E+00	   1.552643E+07	  -2.115848E+08
   12.5000	  -3.229475E+00	   1.670753E+07	  -2.251264E+08
   12.6000	  -2.999695E+00	   1.784796E+07	  -2.377735E+08
   12.7000	  -2.758735E+00	   1.894021E+07	  -2.494585E+08
   12.8000	  -2.507792E+00	   1.997700E+07	  -2.601067E+08
   12.9000	  -2.248098E+00	   2.095087E+07	  -2.696542E+08
   13.0000	  -1.980919E+00	   2.185380E+07	  -2.780435E+08
   13.1000	  -1.707552E+00	   2.267736E+07	  -2.852352E+08
   13.2000	  -1.429320E+00	   2.341407E+07	  -2.911826E+08
   13.3000	  -1.147567E+00	   2.405548E+07	  -2.958527E+08
   13.4000	  -8.636562E-01	   2.459474E+07	  -2.992306E+08
   13.5000	  -5.789591E-01	   2.502374E+07	  -3.013087E+08
   13.6000	  -2.948556E-01	   2.533611E+07	  -3.020811E+08
   13.7000	  -1.272645E-02	   2.552585E+07	  -3.015570E+08
   13.8000	   2.660555E-01	   2.558552E+07	  -2.997700E+08
   13.9000	   5.401316E-01	   2.550667E+07	  -2.967458E+08
   14.0000	   8.081636E-01	   2.528790E+07	  -2.925257E+08
   14.1000	   1.068846E+00	   2.492875E+07	  -2.871582E+08
   14.2000	   1.320909E+00	   2.443033E+07	  -2.806978E+08
   14.3000	   1.563135E+00	   2.379538E+07	  -2.732029E+08
   14.4000	   1.794364E+00	   2.302824E+07	  -2.647358E+08
   14.5000	   2.013502E+00	   2.213480E+07	  -2.553608E+08
   14.6000	   2.219536E+00	   2.112245E+07	  -2.451438E+08
   14.7000	   2.411539E+00	   1.999997E+07	  -2.341515E+08
   14.8000	   2.588681E+00	   1.877738E+07	  -2.224506E+08
   14.9000	   2.750238E+00	   1.746579E+07	  -2.101081E+08
   15.0000	   2.895601E+00	   1.607722E+07	  -1.971905E+08
   15.1000	   3.024282E+00	   1.462439E+07	  -1.837642E+08
   15.2000	   3.135918E+00	   1.312051E+07	  -1.698953E+08
   15.3000	   3.230284E+00	   1.157904E+07	  -1.556500E+08
   15.4000	   3.307284E+00	   1.001349E+07	  -1.410947E+08
   15.5000	   3.366966E+00	   8.437168E+06	  -1.262962E+08
   15.6000	   3.409512E+00	   6.862987E+06	  -1.113217E+08
   15.7000	   3.435242E+00	   5.303265E+06	  -9.623880E+07
   15.8000	   3.444610E+00	   3.769548E+06	  -8.111585E+07
   15.9000	   3.438198E+00	   2.272458E+06	  -6.602109E+07
   16.0000	   3.416709E+00	   8.215816E+05	  -5.102282E+07
   16.1000	   3.380961E+00	  -5.746499E+05	  -3.618852E+07
   16.2000	   3.331871E+00	  -1.908978E+06	  -2.158466E+07
   16.3000	   3.270449E+00	  -3.175374E+06	  -7.275748E+06
   16.4000	   3.197782E+00	  -4.369022E+06	   6.676149E+06
   16.5000	   3.115019E+00	  -5.486288E+06	   2.021222E+07
   16.6000	   3.023358E+00	  -6.524664E+06	   3.327751E+07
   16.7000	   2.924026E+00	  -7.482688E+06	   4.582156E+07
   16.8000	   2.818265E+00	  -8.359844E+06	   5.779884E+07
   16.9000	   2.707315E+00	  -9.156459E+06	   6.916920E+07
   17.0000	   2.592397E+00	  -9.873582E+06	   7.989813E+07
   17.1000	   2.474696E+00	  -1.051288E+07	   8.995687E+07
   17.2000	   2.355345E+00	  -1.107650E+07	   9.932246E+07
   17.3000	   2.235412E+00	  -1.156698E+07	   1.079776E+08
   17.4000	   2.115884E+00	  -1.198716E+07	   1.159105E+08
   17.5000	   1.997656E+00	  -1.234005E+07	   1.231147E+08
   17.6000	   1.881523E+00	  -1.262880E+07	   1.295885E+08
   17.7000	   1.768171E+00	  -1.285663E+07	   1.353348E+08
   17.8000	   1.658165E+00	  -1.302676E+07	   1.403606E+08
   17.9000	   1.551954E+00	  -1.314238E+07	   1.446767E+08
   18.0000	   1.449863E+00	  -1.320664E+07	   1.482974E+08
   18.1000	   1.352096E+00	  -1.322263E+07	   1.512396E+08
   18.2000	   1.258740E+00	  -1.319335E+07	   1.535233E+08
   18.3000	   1.169765E+00	  -1.312170E+07	   1.551703E+08
   18.4000	   1.085040E+00	  -1.301053E+07	   1.562048E+08
   18.5000	   1.004334E+00	  -1.286258E+07	   1.566523E+08
   18.6000	   9.273306E-01	  -1.268048E+07	   1.565400E+08
   18.7000	   8.536434E-01	  -1.246680E+07	   1.558961E+08
   18.8000	   7.828240E-01	  -1.222399E+07	   1.547498E+08
   18.9000	   7.143829E-01	  -1.195442E+07	   1.531308E+08
   19.0000	   6.478016E-01	  -1.166033E+07	   1.510695E+08
   19.1000	   5.825481E-01	  -1.134389E+07	   1.485967E+08
   19.2000	   5.180966E-01	  -1.100716E+07	   1.457431E+08
   19.3000	   4.539405E-01	  -1.065207E+07	   1.425397E+08
   19.4000	   3.896074E-01	  -1.028050E+07	   1.390172E+08
   19.5000	   3.246744E-01	  -9.894204E+06	   1.352061E+08
   19.6000	   2.587797E-01	  -9.494906E+06	   1.311368E+08
   19.7000	   1.916351E-01	  -9.084255E+06	   1.268392E+08
   19.8000	   1.230345E-01	  -8.663875E+06	   1.223428E+08
   19.9000	   5.286006E-02	  -8.235380E+06	   1.176765E+08
   20.0000	  -1.891045E-02	  -7.800401E+06	   1.128689E+08
   20.1000	  -9.220291E-02	  -7.360568E+06	   1.079481E+08
   20.2000	  -1.668447E-01	  -6.917620E+06	   1.029416E+08
   20.3000	  -2.425686E-01	  -6.473358E+06	   9.787654E+07
   20.4000	  -3.190167E-01	  -6.029608E+06	   9.277939E+07
   20.5000	  -3.957460E-01	  -5.588301E+06	   8.767618E+07
   20.6000	  -4.722379E-01	  -5.151388E+06	   8.259250E+07
   20.7000	  -5.479113E-01	  -4.720846E+06	   7.755330E+07
   20.8000	  -6.221324E-01	  -4.298662E+06	   7.258301E+07
   20.9000	  -6.942293E-01	  -3.886808E+06	   6.770532E+07
   21.0000	  -7.635092E-01	  -3.487217E+06	   6.294322E+07
   21.1000	  -8.292722E-01	  -3.101746E+06	   5.831872E+07
   21.2000	  -8.908299E-01	  -2.732168E+06	   5.385288E+07
   21.3000	  -9.475203E-01	  -2.380140E+06	   4.956549E+07
   21.4000	  -9.987270E-01	  -2.047194E+06	   4.547508E+07
   21.5000	  -1.043892E+00	  -1.734719E+06	   4.159846E+07
   21.6000	  -1.082532E+00	  -1.443969E+06	   3.795119E+07
   21.7000	  -1.114256E+00	  -1.176041E+06	   3.454686E+07
   21.8000	  -1.138766E+00	  -9.318896E+05	   3.139729E+07
   21.9000	  -1.155883E+00	  -7.123339E+05	   2.851228E+07
   22.0000	  -1.165540E+00	  -5.180653E+05	   2.589961E+07
   22.1000	  -1.167798E+00	  -3.496567E+05	   2.356496E+07
   22.2000	  -1.162842E+00	  -2.075721E+05	   2.151183E+07
   22.3000	  -1.150988E+00	  -9.217178E+04	   1.974147E+07
   22.4000	  -1.132675E+00	  -3.718036E+03	   1.825292E+07
   22.5000	  -1.108463E+00	   5.762644E+04	   1.704291E+07
   22.6000	  -1.079026E+00	   9.181033E+04	   1.610582E+07
   22.7000	  -1.045139E+00	   9.891099E+04	   1.543357E+07
   22.8000	  -1.007671E+00	   7.914975E+04	   1.501572E+07
   22.9000	  -9.675637E-01	   3.285671E+04	   1.483885E+07
   23.0000	  -9.258226E-01	  -3.931705E+04	   1.488785E+07
   23.1000	  -8.834944E-01	  -1.364819E+05	   1.514490E+07
   23.2000	  -8.416505E-01	  -2.574486E+05	   1.558967E+07
   23.3000	  -8.013664E-01	  -4.006772E+05	   1.619947E+07
   23.4000	  -7.637031E-01	  -5.642397E+05	   1.694936E+07
   23.5000	  -7.296860E-01	  -7.457819E+05	   1.781230E+07
   23.6000	  -7.002846E-01	  -9.425110E+05	   1.875940E+07
   23.7000	  -6.763952E-01	  -1.151186E+06	   1.976014E+07
   23.8000	  -6.588231E-01	  -1.368134E+06	   2.078269E+07
   23.9000	  -6.482651E-01	  -1.589285E+06	   2.179414E+07
   24.0000	  -6.452953E-01	  -1.810232E+06	   2.276093E+07
   24.1000	  -6.503540E-01	  -2.026314E+06	   2.364917E+07
   24.2000	  -6.637372E-01	  -2.232707E+06	   2.442492E+07
   24.3000	  -6.855876E-01	  -2.424544E+06	   2.505463E+07
   24.4000	  -7.158934E-01	  -2.597038E+06	   2.550541E+07
   24.5000	  -7.544820E-01	  -2.745607E+06	   2.574556E+07
   24.6000	  -8.010247E-01	  -2.865990E+06	   2.574476E+07
   24.7000	  -8.550385E-01	  -2.954354E+06	   2.547454E+07
   24.8000	  -9.158938E-01	  -3.007394E+06	   2.490870E+07
   24.9000	  -9.828205E-01	  -3.022391E+06	   2.402360E+07
   25.0000	  -1.054924E+00	  -2.997186E+06	   2.279955E+07
   25.1000	  -1.131197E+00	  -2.930494E+06	   2.121875E+07
   25.2000	  -1.210536E+00	  -2.821637E+06	   1.926724E+07
   25.3000	  -1.291755E+00	  -2.670534E+06	   1.693525E+07
   25.4000	  -1.373611E+00	  -2.477686E+06	   1.421712E+07
   25.5000	  -1.454817E+00	  -2.244124E+06	   1.111140E+07
   25.6000	  -1.534070E+00	  -1.971244E+06	   7.620781E+06
   25.7000	  -1.610066E+00	  -1.661040E+06	   3.752374E+06
   25.8000	  -1.681519E+00	  -1.315683E+06	  -4.827674E+05
   25.9000	  -1.747188E+00	  -9.375477E+05	  -5.069825E+06
   26.0000	  -1.805889E+00	  -5.291481E+05	  -9.990499E+06
   26.1000	  -1.856521E+00	  -9.307064E+04	  -1.522325E+07
   26.2000	  -1.898074E+00	   3.680888E+05	  -2.074376E+07
   26.3000	  -1.929647E+00	   8.517651E+05	  -2.652518E+07
   26.4000	  -1.950464E+00	   1.355464E+06	  -3.253856E+07
   26.5000	  -1.959880E+00	   1.876781E+06	  -3.875310E+07
   26.6000	  -1.957391E+00	   2.413404E+06	  -4.513646E+07
   26.7000	  -1.942639E+00	   2.963112E+06	  -5.165495E+07
   26.8000	  -1.915415E+00	   3.523757E+06	  -5.827375E+07
   26.9000	  -1.875663E+00	   4.093232E+06	  -6.495702E+07
   27.0000	  -1.823472E+00	   4.669440E+06	  -7.166804E+07
   27.1000	  -1.759075E+00	   5.250244E+06	  -7.836919E+07
   27.2000	  -1.682846E+00	   5.833434E+06	  -8.502220E+07
   27.3000	  -1.595285E+00	   6.416674E+06	  -9.158813E+07
   27.4000	  -1.497012E+00	   6.997464E+06	  -9.802758E+07
   27.5000	  -1.388756E+00	   7.573059E+06	  -1.043007E+08
   27.6000	  -1.271339E+00	   8.140496E+06	  -1.103679E+08
   27.7000	  -1.145661E+00	   8.696616E+06	  -1.161895E+08
   27.8000	  -1.012691E+00	   9.238017E+06	  -1.217269E+08
   27.9000	  -8.734421E-01	   9.760714E+06	  -1.269444E+08
   28.0000	  -7.289674E-01	   1.026086E+07	  -1.318053E+08
   28.1000	  -5.803352E-01	   1.073446E+07	  -1.362756E+08
   28.2000	  -4.286202E-01	   1.117716E+07	  -1.403240E+08
   28.3000	  -2.748838E-01	   1.158488E+07	  -1.439228E+08
   28.4000	  -1.201676E-01	   1.195318E+07	  -1.470472E+08
   28.5000	   3.452604E-02	   1.227852E+07	  -1.496774E+08
   28.6000	   1.882388E-01	   1.255561E+07	  -1.517993E+08
   28.7000	   3.400701E-01	   1.278118E+07	  -1.533983E+08
   28.8000	   4.891821E-01	   1.295240E+07	  -1.544659E+08
   28.9000	   6.348089E-01	   1.306702E+07	  -1.549975E+08
   29.0000	   7.762582E-01	   1.312345E+07	  -1.549919E+08
   29.1000	   9.129169E-01	   1.312071E+07	  -1.544509E+08
   29.2000	   1.044251E+00	   1.305852E+07	  -1.533792E+08
   29.3000	   1.169808E+00	   1.293724E+07	  -1.517841E+08
   29.4000	   1.289213E+00	   1.275788E+07	  -1.496746E+08
   29.5000	   1.402168E+00	   1.252204E+07	  -1.470619E+08
   29.6000	   1.508445E+00	   1.223185E+07	  -1.439584E+08
   29.7000	   1.607888E+00	   1.188992E+07	  -1.403778E+08
   29.8000	   1.700402E+00	   1.149929E+07	  -1.363348E+08
   29.9000	   1.785946E+00	   1.106332E+07	  -1.318451E+08
   30.0000	   1.864535E+00	   1.058564E+07	  -1.269250E+08
   30.1000	   1.936223E+00	   1.007002E+07	  -1.215916E+08
   30.2000	   2.001104E+00	   9.520378E+06	  -1.158626E+08
   30.3000	   2.059302E+00	   8.940643E+06	  -1.097563E+08
   30.4000	   2.110965E+00	   8.334714E+06	  -1.032917E+08
   30.5000	   2.156261E+00	   7.706398E+06	  -9.648828E+07
   30.6000	   2.195372E+00	   7.059354E+06	  -8.936627E+07
   30.7000	   2.228487E+00	   6.397058E+06	  -8.194641E+07
   30.8000	   2.255801E+00	   5.722759E+06	  -7.425007E+07
   30.9000	   2.277509E+00	   5.039452E+06	  -6.629916E+07
   31.0000	   2.293804E+00	   4.349863E+06	  -5.811620E+07
   31.1000	   2.304878E+00	   3.656434E+06	  -4.972409E+07
   31.2000	   2.310913E+00	   2.961318E+06	  -4.114627E+07
   31.3000	   2.312087E+00	   2.266384E+06	  -3.240648E+07
   31.4000	   2.308570E+00	   1.573216E+06	  -2.352876E+07
   31.5000	   2.300527E+00	   8.831350E+05	  -1.453735E+07
   31.6000	   2.288113E+00	   1.972144E+05	  -5.456606E+06
   31.7000	   2.271477E+00	  -4.837035E+05	   3.689135E+06
   31.8000	   2.250765E+00	  -1.158970E+06	   1.287553E+07
   31.9000	   2.226111E+00	  -1.828113E+06	   2.207841E+07
   32.0000	   2.197650E+00	  -2.490792E+06	   3.127374E+07
   32.1000	   2.165510E+00	  -3.146785E+06	   4.043783E+07
   32.2000	   2.129814E+00	  -3.795930E+06	   4.954718E+07
   32.3000	   2.090682E+00	  -4.438106E+06	   5.857863E+07
   32.4000	   2.048227E+00	  -5.073192E+06	   6.750930E+07
   32.5000	   2.002556E+00	  -5.701032E+06	   7.631665E+07
   32.6000	   1.953771E+00	  -6.321412E+06	   8.497841E+07
   32.7000	   1.901964E+00	  -6.934010E+06	   9.347254E+07
   32.8000	   1.847218E+00	  -7.538384E+06	   1.017773E+08
   32.9000	   1.789604E+00	  -8.133946E+06	   1.098710E+08
   33.0000	   1.729181E+00	  -8.719922E+06	   1.177323E+08
   33.1000	   1.665988E+00	  -9.295357E+06	   1.253397E+08
   33.2000	   1.600053E+00	  -9.859083E+06	   1.326721E+08
   33.3000	   1.531379E+00	  -1.040971E+07	   1.397082E+08
   33.4000	   1.459953E+00	  -1.094562E+07	   1.464267E+08
   33.5000	   1.385738E+00	  -1.146497E+07	   1.528066E+08
   33.6000	   1.308677E+00	  -1.196569E+07	   1.588265E+08
   33.7000	   1.228691E+00	  -1.244547E+07	   1.644654E+08
   33.8000	   1.145680E+00	  -1.290180E+07	   1.697020E+08
   33.9000	   1.059526E+00	  -1.333196E+07	   1.745152E+08
   34.0000	   9.700952E-01	  -1.373306E+07	   1.788838E+08
   34.1000	   8.772385E-01	  -1.410204E+07	   1.827869E+08
   34.2000	   7.808022E-01	  -1.443575E+07	   1.862035E+08
   34.3000	   6.806266E-01	  -1.473092E+07	   1.891130E+08
   34.4000	   5.765579E-01	  -1.498426E+07	   1.914950E+08
   34.5000	   4.684492E-01	  -1.519247E+07	   1.933294E+08
   34.6000	   3.561736E-01	  -1.535234E+07	   1.945967E+08
   34.7000	   2.396285E-01	  -1.546077E+07	   1.952780E+08
   34.8000	   1.187460E-01	  -1.551488E+07	   1.953552E+08
   34.9000	  -6.500204E-03	  -1.551190E+07	   1.948114E+08
   35.0000	  -1.360837E-01	  -1.545001E+07	   1.936322E+08
   35.1000	  -2.699198E-01	  -1.532759E+07	   1.918022E+08
   35.2000	  -4.078555E-01	  -1.514323E+07	   1.893097E+08
   35.3000	  -5.496635E-01	  -1.489657E+07	   1.861452E+08
   35.4000	  -6.950355E-01	  -1.458731E+07	   1.823020E+08
   35.5000	  -8.435748E-01	  -1.421625E+07	   1.777771E+08
   35.6000	  -9.947950E-01	  -1.378448E+07	   1.725709E+08
   35.7000	  -1.148117E+00	  -1.329361E+07	   1.666907E+08
   35.8000	  -1.302868E+00	  -1.274638E+07	   1.601426E+08
   35.9000	  -1.458279E+00	  -1.214560E+07	   1.529402E+08
   36.0000	  -1.613496E+00	  -1.149436E+07	   1.451016E+08
   36.1000	  -1.767574E+00	  -1.079666E+07	   1.366505E+08
   36.2000	  -1.919493E+00	  -1.005644E+07	   1.276148E+08
   36.3000	  -2.068163E+00	  -9.277818E+06	   1.180281E+08
   36.4000	  -2.212434E+00	  -8.464923E+06	   1.079263E+08
   36.5000	  -2.351110E+00	  -7.622224E+06	   9.734801E+07
   36.6000	  -2.482963E+00	  -6.753868E+06	   8.633665E+07
   36.7000	  -2.606750E+00	  -5.863782E+06	   7.493796E+07
   36.8000	  -2.721226E+00	  -4.955664E+06	   6.319966E+07
   36.9000	  -2.825168E+00	  -4.032930E+06	   5.117080E+07
   37.0000	  -2.917389E+00	  -3.098697E+06	   3.890142E+07
   37.1000	  -2.996758E+00	  -2.155771E+06	   2.644199E+07
   37.2000	  -3.062221E+00	  -1.206611E+06	   1.384354E+07
   37.3000	  -3.112817E+00	  -2.535163E+05	   1.156174E+06
   37.4000	  -3.147701E+00	   7.015022E+05	  -1.156935E+07
   37.5000	  -3.166152E+00	   1.656587E+06	  -2.428223E+07
   37.6000	  -3.167598E+00	   2.609967E+06	  -3.693157E+07
   37.7000	  -3.151627E+00	   3.559876E+06	  -4.946624E+07
   37.8000	  -3.117990E+00	   4.504476E+06	  -6.183467E+07
   37.9000	  -3.066627E+00	   5.441778E+06	  -7.398474E+07
   38.0000	  -2.997656E+00	   6.369572E+06	  -8.586375E+07
   38.1000	  -2.911389E+00	   7.285287E+06	  -9.741925E+07
   38.2000	  -2.808328E+00	   8.186075E+06	  -1.085973E+08
   38.3000	  -2.689162E+00	   9.068642E+06	  -1.193441E+08
   38.4000	  -2.554765E+00	   9.929298E+06	  -1.296062E+08
   38.5000	  -2.406182E+00	   1.076393E+07	  -1.393310E+08
   38.6000	  -2.244623E+00	   1.156799E+07	  -1.484672E+08
   38.7000	  -2.071444E+00	   1.233653E+07	  -1.569656E+08
   38.8000	  -1.888134E+00	   1.306382E+07	  -1.647826E+08
   38.9000	  -1.696293E+00	   1.374437E+07	  -1.718771E+08
   39.0000	  -1.497610E+00	   1.437246E+07	  -1.782101E+08
   39.1000	  -1.293840E+00	   1.494186E+07	  -1.837491E+08
   39.2000	  -1.086784E+00	   1.544694E+07	  -1.884682E+08
   39.3000	  -8.782519E-01	   1.588182E+07	  -1.923519E+08
   39.4000	  -6.700519E-01	   1.624075E+07	  -1.953879E+08
   39.5000	  -4.639508E-01	   1.651935E+07	  -1.975680E+08
   39.6000	  -2.616557E-01	   1.671351E+07	  -1.988932E+08
   39.7000	  -6.478915E-02	   1.682003E+07	  -1.993706E+08
   39.8000	   1.251362E-01	   1.683613E+07	  -1.990178E+08
   39.9000	   3.067380E-01	   1.675970E+07	  -1.978529E+08
   40.0000	   4.787814E-01	   1.659197E+07	  -1.958972E+08
   40.1000	   6.401976E-01	   1.633546E+07	  -1.931768E+08
   40.2000	   7.900972E-01	   1.599397E+07	  -1.897204E+08
   40.3000	   9.277773E-01	   1.557241E+07	  -1.855581E+08
   40.4000	   1.052732E+00	   1.507664E+07	  -1.807218E+08
   40.5000	   1.164651E+00	   1.451326E+07	  -1.752441E+08
   40.6000	   1.263426E+00	   1.388945E+07	  -1.691586E+08
   40.7000	   1.349138E+00	   1.321269E+07	  -1.624999E+08
   40.8000	   1.422057E+00	   1.249056E+07	  -1.553032E+08
   40.9000	   1.482625E+00	   1.173056E+07	  -1.476046E+08
   41.0000	   1.531447E+00	   1.093993E+07	  -1.394412E+08
   41.1000	   1.569270E+00	   1.012545E+07	  -1.308507E+08
   41.2000	   1.596967E+00	   9.293390E+06	  -1.218716E+08
   41.3000	   1.615510E+00	   8.449350E+06	  -1.125429E+08
   41.4000	   1.625952E+00	   7.598262E+06	  -1.029040E+08
   41.5000	   1.629398E+00	   6.744343E+06	  -9.299422E+07
   41.6000	   1.626982E+00	   5.891117E+06	  -8.285290E+07
   41.7000	   1.619842E+00	   5.041435E+06	  -7.251885E+07
   41.8000	   1.609092E+00	   4.197542E+06	  -6.203020E+07
   41.9000	   1.595798E+00	   3.361140E+06	  -5.142422E+07
   42.0000	   1.580958E+00	   2.533460E+06	  -4.073719E+07
   42.1000	   1.565474E+00	   1.715341E+06	  -3.000419E+07
   42.2000	   1.550140E+00	   9.073077E+05	  -1.925923E+07
   42.3000	   1.535621E+00	   1.096459E+05	  -8.535184E+06
   42.4000	   1.522440E+00	  -6.775359E+05	   2.136104E+06
   42.5000	   1.510969E+00	  -1.454246E+06	   1.272371E+07
   42.6000	   1.501420E+00	  -2.220554E+06	   2.319745E+07
   42.7000	   1.493844E+00	  -2.976542E+06	   3.352773E+07
   42.8000	   1.488129E+00	  -3.722266E+06	   4.368541E+07
   42.9000	   1.484003E+00	  -4.457704E+06	   5.364156E+07
   43.0000	   1.481048E+00	  -5.182718E+06	   6.336741E+07
   43.1000	   1.478702E+00	  -5.896996E+06	   7.283414E+07
   43.2000	   1.476279E+00	  -6.600019E+06	   8.201286E+07
   43.3000	   1.472984E+00	  -7.290987E+06	   9.087453E+07
   43.4000	   1.467933E+00	  -7.968781E+06	   9.938999E+07
   43.5000	   1.460176E+00	  -8.631894E+06	   1.075300E+08
   43.6000	   1.448716E+00	  -9.278398E+06	   1.152653E+08
   43.7000	   1.432538E+00	  -9.905881E+06	   1.225668E+08
   43.8000	   1.410632E+00	  -1.051144E+07	   1.294058E+08
   43.9000	   1.382019E+00	  -1.109164E+07	   1.357540E+08
   44.0000	   1.345777E+00	  -1.164256E+07	   1.415838E+08
   44.1000	   1.301064E+00	  -1.215980E+07	   1.468687E+08
   44.2000	   1.247137E+00	  -1.263854E+07	   1.515829E+08
   44.3000	   1.183383E+00	  -1.307366E+07	   1.557019E+08
   44.4000	   1.109328E+00	  -1.345982E+07	   1.592024E+08
   44.5000	   1.024655E+00	  -1.379159E+07	   1.620626E+08
   44.6000	   9.292230E-01	  -1.406365E+07	   1.642619E+08
   44.7000	   8.230669E-01	  -1.427095E+07	   1.657812E+08
   44.8000	   7.064129E-01	  -1.440883E+07	   1.666029E+08
   44.9000	   5.796742E-01	  -1.447326E+07	   1.667113E+08
   45.0000	   4.434544E-01	  -1.446096E+07	   1.660924E+08
   45.1000	   2.985406E-01	  -1.436955E+07	   1.647348E+08
   45.2000	   1.458963E-01	  -1.419766E+07	   1.626296E+08
   45.3000	  -1.335211E-02	  -1.394457E+07	   1.597714E+08
   45.4000	  -1.779275E-01	  -1.361289E+07	   1.561617E+08
   45.5000	  -3.464234E-01	  -1.320502E+07	   1.517988E+08
   45.6000	  -5.173202E-01	  -1.272453E+07	   1.466910E+08
   45.7000	  -6.890112E-01	  -1.217480E+07	   1.408516E+08
   45.8000	  -8.598244E-01	  -1.156089E+07	   1.343001E+08
   45.9000	  -1.028049E+00	  -1.088753E+07	   1.270622E+08
   46.0000	  -1.191963E+00	  -1.016000E+07	   1.191706E+08
   46.1000	  -1.349856E+00	  -9.384345E+06	   1.106573E+08
   46.2000	  -1.500059E+00	  -8.565952E+06	   1.015634E+08
   46.3000	  -1.640967E+00	  -7.710310E+06	   9.193467E+07
   46.4000	  -1.771067E+00	  -6.822988E+06	   8.182108E+07
   46.5000	  -1.888956E+00	  -5.909154E+06	   7.127578E+07
   46.6000	  -1.993369E+00	  -4.973726E+06	   6.035457E+07
   46.7000	  -2.083188E+00	  -4.021325E+06	   4.911640E+07
   46.8000	  -2.157462E+00	  -3.056278E+06	   3.761906E+07
   46.9000	  -2.215424E+00	  -2.082656E+06	   2.592317E+07
   47.0000	  -2.256492E+00	  -1.104148E+06	   1.408974E+07
   47.1000	  -2.280282E+00	  -1.241639E+05	   2.179819E+06
   47.2000	  -2.286607E+00	   8.541205E+05	  -9.745823E+06
   47.3000	  -2.275479E+00	   1.827713E+06	  -2.162690E+07
   47.4000	  -2.247103E+00	   2.793747E+06	  -3.340373E+07
   47.5000	  -2.201874E+00	   3.749421E+06	  -4.501733E+07
   47.6000	  -2.140361E+00	   4.691931E+06	  -5.640947E+07
   47.7000	  -2.063302E+00	   5.618378E+06	  -6.752265E+07
   47.8000	  -1.971586E+00	   6.525684E+06	  -7.830050E+07
   47.9000	  -1.866235E+00	   7.410616E+06	  -8.868855E+07
   48.0000	  -1.748389E+00	   8.269720E+06	  -9.863171E+07
   48.1000	  -1.619282E+00	   9.099256E+06	  -1.080769E+08
   48.2000	  -1.480226E+00	   9.895227E+06	  -1.169730E+08
   48.3000	  -1.332590E+00	   1.065308E+07	  -1.252704E+08
   48.4000	  -1.177774E+00	   1.136835E+07	  -1.329231E+08
   48.5000	  -1.017196E+00	   1.203639E+07	  -1.398880E+08
   48.6000	  -8.522669E-01	   1.265172E+07	  -1.461305E+08
   48.7000	  -6.843740E-01	   1.320944E+07	  -1.516138E+08
   48.8000	  -5.148643E-01	   1.370484E+07	  -1.563086E+08
   48.9000	  -3.450273E-01	   1.413259E+07	  -1.601908E+08
   49.0000	  -1.760846E-01	   1.448874E+07	  -1.632433E+08
   49.1000	  -9.173720E-03	   1.476885E+07	  -1.654546E+08
   49.2000	   1.546556E-01	   1.496920E+07	  -1.668248E+08
   49.3000	   3.144515E-01	   1.508543E+07	  -1.673519E+08
   49.4000	   4.693641E-01	   1.511623E+07	  -1.670426E+08
   49.5000	   6.186468E-01	   1.506077E+07	  -1.659095E+08
   49.6000	   7.616575E-01	   1.491906E+07	  -1.639699E+08
   49.7000	   8.978555E-01	   1.469201E+07	  -1.612454E+08
   49.8000	   1.026799E+00	   1.438135E+07	  -1.577617E+08
   49.9000	   1.148136E+00	   1.398960E+07	  -1.535479E+08