
FAST Summary File

Predictions were generated on 15-Jun-2020 at 13:18:13 using OpenFAST, compiled as a 64-bit application using double precision at commit v2.3.0-260-g5e3b7314-dirty
  compiled with
    NWTC Subroutine Library
    ElastoDyn
    BeamDyn [not called]
    InflowWind
    AeroDyn14 [not called]
    AeroDyn
    ServoDyn [not called]
    HydroDyn [not called]
    SubDyn [not called]
    ExtPtfm_MCKF [not called]
    MAP [not called]
    FEAMooring [not called]
    MoorDyn [not called]
    OrcaFlexInterface [not called]
    IceFloe [not called]
    IceDyn [not called]


Modeling a land-based turbine
Description from the FAST input file: 
  AeroElasticSE FAST driver

Interpolation order for input/output time histories: 1 (linear)
Number of correction iterations:  0


   Requested Time Steps  
  -------------------------------------------------
  Component          Time Step (s)    Subcycles (-)
  -----------------  ---------------  -------------
  FAST (glue code)    1.000E-01
  InflowWind          1.000E-01              1
  ElastoDyn           1.000E-01              1
  AeroDyn             1.000E-01              1
  FAST output files   1.000E-01              1


   Requested Channels in FAST Output File(s)  
  --------------------------------------------
  Number  Name        Units       Generated by
  ------  ----------  ----------  ------------
       1  Time        (s)         OpenFAST
       2  Wind1VelX   (m/s)       InflowWind
       3  Wind1VelY   (m/s)       InflowWind
       4  Wind1VelZ   (m/s)       InflowWind
       5  Wind2VelX   (m/s)       InflowWind
       6  Wind2VelY   (m/s)       InflowWind
       7  Wind2VelZ   (m/s)       InflowWind
       8  Azimuth     (deg)       ElastoDyn
       9  BldPitch1   (deg)       ElastoDyn
      10  GenSpeed    (rpm)       ElastoDyn
      11  IPDefl1     (m)         ElastoDyn
      12  LSSGagMya   (kN-m)      ElastoDyn
      13  LSSGagMza   (kN-m)      ElastoDyn
      14  OoPDefl1    (m)         ElastoDyn
      15  RootFxb1    (kN)        ElastoDyn
      16  RootFyb1    (kN)        ElastoDyn
      17  RootFzb1    (kN)        ElastoDyn
      18  RootMxb1    (kN-m)      ElastoDyn
      19  RootMyb1    (kN-m)      ElastoDyn
      20  RootMzb1    (kN-m)      ElastoDyn
      21  RotSpeed    (rpm)       ElastoDyn
      22  RotTorq     (kN-m)      ElastoDyn
      23  Spn2MLxb1   INVALID     ElastoDyn
      24  Spn2MLyb1   INVALID     ElastoDyn
      25  TTDspFA     (m)         ElastoDyn
      26  TTDspSS     (m)         ElastoDyn
      27  TTDspTwst   (deg)       ElastoDyn
      28  TwrBsFxt    (kN)        ElastoDyn
      29  TwrBsFyt    (kN)        ElastoDyn
      30  TwrBsFzt    (kN)        ElastoDyn
      31  TwrBsMxt    (kN-m)      ElastoDyn
      32  TwrBsMyt    (kN-m)      ElastoDyn
      33  TwrBsMzt    (kN-m)      ElastoDyn
      34  TwstDefl1   (deg)       ElastoDyn
      35  YawBrFxp    (kN)        ElastoDyn
      36  YawBrFyp    (kN)        ElastoDyn
      37  YawBrFzp    (kN)        ElastoDyn
      38  YawBrMxp    (kN-m)      ElastoDyn
      39  YawBrMyp    (kN-m)      ElastoDyn
      40  YawBrMzp    (kN-m)      ElastoDyn
      41  RtTSR       (-)         AeroDyn
      42  RtVAvgxh    (m/s)       AeroDyn
      43  RtVAvgyh    (m/s)       AeroDyn
      44  RtVAvgzh    (m/s)       AeroDyn
      45  RtSkew      (deg)       AeroDyn
      46  RtAeroFxh   (N)         AeroDyn
      47  RtAeroFyh   (N)         AeroDyn
      48  RtAeroFzh   (N)         AeroDyn
      49  RtAeroMxh   (N-m)       AeroDyn
      50  RtAeroMyh   (N-m)       AeroDyn
      51  RtAeroMzh   (N-m)       AeroDyn
      52  RtAeroPwr   (W)         AeroDyn
      53  RtAeroCp    (-)         AeroDyn
      54  RtAeroCq    (-)         AeroDyn
      55  RtAeroCt    (-)         AeroDyn
      56  B1N9Clrnc   INVALID     AeroDyn
      57  B1N1Alpha   (deg)       AeroDyn
      58  B1N1Cl      (-)         AeroDyn
      59  B1N1Cd      (-)         AeroDyn
      60  B1N1Cm      (-)         AeroDyn
      61  B1N1Fl      (N/m)       AeroDyn
      62  B1N1Fd      (N/m)       AeroDyn
      63  B1N1Fn      (N/m)       AeroDyn
      64  B1N1Ft      (N/m)       AeroDyn
      65  B1N1Vrel    (m/s)       AeroDyn
      66  B1N1AxInd   (-)         AeroDyn
      67  B1N1TnInd   (-)         AeroDyn
      68  B1N1Fx      (N/m)       AeroDyn
      69  B1N1Fy      (N/m)       AeroDyn
      70  B1N1Ft      (N/m)       AeroDyn
      71  B1N1Fn      (N/m)       AeroDyn
      72  B1N1Mm      (N-m/m)     AeroDyn
      73  B1N2Alpha   (deg)       AeroDyn
      74  B1N2Cl      (-)         AeroDyn
      75  B1N2Cd      (-)         AeroDyn
      76  B1N2Cm      (-)         AeroDyn
      77  B1N2Fl      (N/m)       AeroDyn
      78  B1N2Fd      (N/m)       AeroDyn
      79  B1N2Fn      (N/m)       AeroDyn
      80  B1N2Ft      (N/m)       AeroDyn
      81  B1N2Vrel    (m/s)       AeroDyn
      82  B1N2AxInd   (-)         AeroDyn
      83  B1N2TnInd   (-)         AeroDyn
      84  B1N2Fx      (N/m)       AeroDyn
      85  B1N2Fy      (N/m)       AeroDyn
      86  B1N2Ft      (N/m)       AeroDyn
      87  B1N2Fn      (N/m)       AeroDyn
      88  B1N2Mm      (N-m/m)     AeroDyn
      89  B1N3Alpha   (deg)       AeroDyn
      90  B1N3Cl      (-)         AeroDyn
      91  B1N3Cd      (-)         AeroDyn
      92  B1N3Cm      (-)         AeroDyn
      93  B1N3Fl      (N/m)       AeroDyn
      94  B1N3Fd      (N/m)       AeroDyn
      95  B1N3Fn      (N/m)       AeroDyn
      96  B1N3Ft      (N/m)       AeroDyn
      97  B1N3Vrel    (m/s)       AeroDyn
      98  B1N3AxInd   (-)         AeroDyn
      99  B1N3TnInd   (-)         AeroDyn
     100  B1N3Fx      (N/m)       AeroDyn
     101  B1N3Fy      (N/m)       AeroDyn
     102  B1N3Ft      (N/m)       AeroDyn
     103  B1N3Fn      (N/m)       AeroDyn
     104  B1N3Mm      (N-m/m)     AeroDyn
     105  B1N4Alpha   (deg)       AeroDyn
     106  B1N4Cl      (-)         AeroDyn
     107  B1N4Cd      (-)         AeroDyn
     108  B1N4Cm      (-)         AeroDyn
     109  B1N4Fl      (N/m)       AeroDyn
     110  B1N4Fd      (N/m)       AeroDyn
     111  B1N4Fn      (N/m)       AeroDyn
     112  B1N4Ft      (N/m)       AeroDyn
     113  B1N4Vrel    (m/s)       AeroDyn
     114  B1N4AxInd   (-)         AeroDyn
     115  B1N4TnInd   (-)         AeroDyn
     116  B1N4Fx      (N/m)       AeroDyn
     117  B1N4Fy      (N/m)       AeroDyn
     118  B1N4Ft      (N/m)       AeroDyn
     119  B1N4Fn      (N/m)       AeroDyn
     120  B1N4Mm      (N-m/m)     AeroDyn
     121  B1N5Alpha   (deg)       AeroDyn
     122  B1N5Cl      (-)         AeroDyn
     123  B1N5Cd      (-)         AeroDyn
     124  B1N5Cm      (-)         AeroDyn
     125  B1N5Fl      (N/m)       AeroDyn
     126  B1N5Fd      (N/m)       AeroDyn
     127  B1N5Fn      (N/m)       AeroDyn
     128  B1N5Ft      (N/m)       AeroDyn
     129  B1N5Vrel    (m/s)       AeroDyn
     130  B1N5AxInd   (-)         AeroDyn
     131  B1N5TnInd   (-)         AeroDyn
     132  B1N5Fx      (N/m)       AeroDyn
     133  B1N5Fy      (N/m)       AeroDyn
     134  B1N5Ft      (N/m)       AeroDyn
     135  B1N5Fn      (N/m)       AeroDyn
     136  B1N5Mm      (N-m/m)     AeroDyn
     137  B1N6Alpha   (deg)       AeroDyn
     138  B1N6Cl      (-)         AeroDyn
     139  B1N6Cd      (-)         AeroDyn
     140  B1N6Cm      (-)         AeroDyn
     141  B1N6Fl      (N/m)       AeroDyn
     142  B1N6Fd      (N/m)       AeroDyn
     143  B1N6Fn      (N/m)       AeroDyn
     144  B1N6Ft      (N/m)       AeroDyn
     145  B1N6Vrel    (m/s)       AeroDyn
     146  B1N6AxInd   (-)         AeroDyn
     147  B1N6TnInd   (-)         AeroDyn
     148  B1N6Fx      (N/m)       AeroDyn
     149  B1N6Fy      (N/m)       AeroDyn
     150  B1N6Ft      (N/m)       AeroDyn
     151  B1N6Fn      (N/m)       AeroDyn
     152  B1N6Mm      (N-m/m)     AeroDyn
     153  B1N7Alpha   (deg)       AeroDyn
     154  B1N7Cl      (-)         AeroDyn
     155  B1N7Cd      (-)         AeroDyn
     156  B1N7Cm      (-)         AeroDyn
     157  B1N7Fl      (N/m)       AeroDyn
     158  B1N7Fd      (N/m)       AeroDyn
     159  B1N7Fn      (N/m)       AeroDyn
     160  B1N7Ft      (N/m)       AeroDyn
     161  B1N7Vrel    (m/s)       AeroDyn
     162  B1N7AxInd   (-)         AeroDyn
     163  B1N7TnInd   (-)         AeroDyn
     164  B1N7Fx      (N/m)       AeroDyn
     165  B1N7Fy      (N/m)       AeroDyn
     166  B1N7Ft      (N/m)       AeroDyn
     167  B1N7Fn      (N/m)       AeroDyn
     168  B1N7Mm      (N-m/m)     AeroDyn
     169  B1N8Alpha   (deg)       AeroDyn
     170  B1N8Cl      (-)         AeroDyn
     171  B1N8Cd      (-)         AeroDyn
     172  B1N8Cm      (-)         AeroDyn
     173  B1N8Fl      (N/m)       AeroDyn
     174  B1N8Fd      (N/m)       AeroDyn
     175  B1N8Fn      (N/m)       AeroDyn
     176  B1N8Ft      (N/m)       AeroDyn
     177  B1N8Vrel    (m/s)       AeroDyn
     178  B1N8AxInd   (-)         AeroDyn
     179  B1N8TnInd   (-)         AeroDyn
     180  B1N8Fx      (N/m)       AeroDyn
     181  B1N8Fy      (N/m)       AeroDyn
     182  B1N8Ft      (N/m)       AeroDyn
     183  B1N8Fn      (N/m)       AeroDyn
     184  B1N8Mm      (N-m/m)     AeroDyn
     185  B1N9Alpha   (deg)       AeroDyn
     186  B1N9Cl      (-)         AeroDyn
     187  B1N9Cd      (-)         AeroDyn
     188  B1N9Cm      (-)         AeroDyn
     189  B1N9Fl      (N/m)       AeroDyn
     190  B1N9Fd      (N/m)       AeroDyn
     191  B1N9Fn      (N/m)       AeroDyn
     192  B1N9Ft      (N/m)       AeroDyn
     193  B1N9Vrel    (m/s)       AeroDyn
     194  B1N9AxInd   (-)         AeroDyn
     195  B1N9TnInd   (-)         AeroDyn
     196  B1N9Fx      (N/m)       AeroDyn
     197  B1N9Fy      (N/m)       AeroDyn
     198  B1N9Ft      (N/m)       AeroDyn
     199  B1N9Fn      (N/m)       AeroDyn
     200  B1N9Mm      (N-m/m)     AeroDyn
     201  B1N1Gam     (m^2/s)     AeroDyn
     202  B1N2Gam     (m^2/s)     AeroDyn
     203  B1N3Gam     (m^2/s)     AeroDyn
     204  B1N4Gam     (m^2/s)     AeroDyn
     205  B1N5Gam     (m^2/s)     AeroDyn
     206  B1N6Gam     (m^2/s)     AeroDyn
     207  B1N7Gam     (m^2/s)     AeroDyn
     208  B1N8Gam     (m^2/s)     AeroDyn
     209  B1N9Gam     (m^2/s)     AeroDyn
     210  B2N1Gam     (m^2/s)     AeroDyn
     211  B2N2Gam     (m^2/s)     AeroDyn
     212  B2N3Gam     (m^2/s)     AeroDyn
     213  B2N4Gam     (m^2/s)     AeroDyn
     214  B2N5Gam     (m^2/s)     AeroDyn
     215  B2N6Gam     (m^2/s)     AeroDyn
     216  B2N7Gam     (m^2/s)     AeroDyn
     217  B2N8Gam     (m^2/s)     AeroDyn
     218  B2N9Gam     (m^2/s)     AeroDyn
     219  B3N1Gam     (m^2/s)     AeroDyn
     220  B3N2Gam     (m^2/s)     AeroDyn
     221  B3N3Gam     (m^2/s)     AeroDyn
     222  B3N4Gam     (m^2/s)     AeroDyn
     223  B3N5Gam     (m^2/s)     AeroDyn
     224  B3N6Gam     (m^2/s)     AeroDyn
     225  B3N7Gam     (m^2/s)     AeroDyn
     226  B3N8Gam     (m^2/s)     AeroDyn
     227  B3N9Gam     (m^2/s)     AeroDyn
