
Predictions were generated on 10-May-2018 at 13:33:47 using BeamDyn




Time        	RootFxr   	RootFyr   	RootFzr   	RootMxr   	RootMyr   	RootMzr   	N1Fxl     	N1Fyl     	N1Fzl     	N1Mxl     	N1Myl     	N1Mzl     	TipTDxr   	TipTDyr   	TipTDzr   	TipRDxr   	TipRDyr   	TipRDzr   
 (s)            	(N)       	(N)       	(N)       	(N-m)     	(N-m)     	(N-m)     	(N)       	(N)       	(N)       	(N-m)     	(N-m)     	(N-m)     	(m)       	(m)       	(m)       	(-)       	(-)       	(-)       
       0.000000	-1.490E-27	-1.044E+04	 1.067E+03	 1.659E-09	-1.004E-11	-2.283E+01	 2.404E+03	-1.016E+04	 1.067E+03	 1.616E-09	 3.720E-10	-2.283E+01	 0.000E+00	 0.000E+00	 0.000E+00	 0.000E+00	 0.000E+00	 0.000E+00
       0.002000	-2.099E+01	-1.736E+04	 2.981E+04	 2.416E+04	 1.523E+01	 9.235E+01	 3.975E+03	-1.690E+04	 2.981E+04	 2.350E+04	 5.575E+03	 9.235E+01	-2.127E-08	-2.612E-05	 1.190E-04	 3.287E-06	-1.953E-08	-1.422E-07
       0.004000	-4.683E+01	-2.867E+04	 7.264E+04	 6.794E+04	-1.355E+01	 2.712E+02	 6.553E+03	-2.791E+04	 7.264E+04	 6.612E+04	 1.562E+04	 2.712E+02	-1.094E-07	-9.689E-05	 4.729E-04	 9.790E-06	-1.120E-07	-5.209E-07
       0.006000	-7.078E+01	-4.181E+04	 1.223E+05	 1.230E+05	-1.297E+02	 4.687E+02	 9.556E+03	-4.071E+04	 1.223E+05	 1.197E+05	 2.818E+04	 4.687E+02	-3.362E-07	-1.940E-04	 1.049E-03	 1.594E-05	-4.012E-07	-9.928E-07
       0.008000	-9.321E+01	-5.439E+04	 1.757E+05	 1.811E+05	-3.457E+02	 6.561E+02	 1.243E+04	-5.295E+04	 1.757E+05	 1.763E+05	 4.135E+04	 6.561E+02	-8.012E-07	-2.999E-04	 1.830E-03	 1.715E-05	-1.057E-06	-1.305E-06
       0.010000	-1.169E+02	-6.453E+04	 2.308E+05	 2.361E+05	-6.803E+02	 8.227E+02	 1.474E+04	-6.282E+04	 2.308E+05	 2.299E+05	 5.369E+04	 8.227E+02	-1.625E-06	-4.022E-04	 2.793E-03	 9.806E-06	-2.244E-06	-1.129E-06
       0.012000	-1.462E+02	-7.118E+04	 2.858E+05	 2.845E+05	-1.159E+03	 9.695E+02	 1.624E+04	-6.930E+04	 2.858E+05	 2.771E+05	 6.436E+04	 9.695E+02	-2.930E-06	-4.968E-04	 3.911E-03	-7.805E-06	-4.079E-06	-1.305E-07
       0.014000	-1.869E+02	-7.423E+04	 3.388E+05	 3.255E+05	-1.797E+03	 1.102E+03	 1.691E+04	-7.228E+04	 3.388E+05	 3.172E+05	 7.317E+04	 1.102E+03	-4.817E-06	-5.896E-04	 5.155E-03	-3.520E-05	-6.607E-06	 1.947E-06
       0.016000	-2.449E+02	-7.441E+04	 3.887E+05	 3.606E+05	-2.594E+03	 1.222E+03	 1.689E+04	-7.247E+04	 3.887E+05	 3.515E+05	 8.049E+04	 1.222E+03	-7.335E-06	-6.955E-04	 6.495E-03	-6.982E-05	-9.797E-06	 5.209E-06
       0.018000	-3.232E+02	-7.296E+04	 4.346E+05	 3.931E+05	-3.526E+03	 1.329E+03	 1.648E+04	-7.107E+04	 4.346E+05	 3.833E+05	 8.705E+04	 1.329E+03	-1.045E-05	-8.363E-04	 7.901E-03	-1.076E-04	-1.354E-05	 9.574E-06
       0.020000	-4.209E+02	-7.132E+04	 4.759E+05	 4.265E+05	-4.553E+03	 1.416E+03	 1.601E+04	-6.950E+04	 4.759E+05	 4.161E+05	 9.374E+04	 1.416E+03	-1.404E-05	-1.037E-03	 9.339E-03	-1.436E-04	-1.768E-05	 1.477E-05
       0.022000	-5.316E+02	-7.080E+04	 5.122E+05	 4.641E+05	-5.624E+03	 1.478E+03	 1.578E+04	-6.902E+04	 5.122E+05	 4.529E+05	 1.014E+05	 1.478E+03	-1.786E-05	-1.320E-03	 1.077E-02	-1.731E-04	-2.199E-05	 2.037E-05
       0.024000	-6.453E+02	-7.227E+04	 5.428E+05	 5.080E+05	-6.684E+03	 1.513E+03	 1.601E+04	-7.048E+04	 5.428E+05	 4.959E+05	 1.104E+05	 1.513E+03	-2.158E-05	-1.707E-03	 1.215E-02	-1.922E-04	-2.625E-05	 2.586E-05
       0.026000	-7.492E+02	-7.606E+04	 5.673E+05	 5.586E+05	-7.683E+03	 1.523E+03	 1.678E+04	-7.419E+04	 5.673E+05	 5.454E+05	 1.211E+05	 1.523E+03	-2.476E-05	-2.211E-03	 1.342E-02	-1.982E-04	-3.021E-05	 3.069E-05
       0.028000	-8.311E+02	-8.192E+04	 5.854E+05	 6.148E+05	-8.584E+03	 1.516E+03	 1.805E+04	-7.991E+04	 5.854E+05	 6.003E+05	 1.332E+05	 1.516E+03	-2.690E-05	-2.835E-03	 1.452E-02	-1.902E-04	-3.367E-05	 3.436E-05
       0.030000	-8.817E+02	-8.916E+04	 5.970E+05	 6.742E+05	-9.372E+03	 1.502E+03	 1.966E+04	-8.696E+04	 5.970E+05	 6.583E+05	 1.461E+05	 1.502E+03	-2.745E-05	-3.580E-03	 1.540E-02	-1.687E-04	-3.643E-05	 3.649E-05
       0.032000	-8.964E+02	-9.681E+04	 6.020E+05	 7.337E+05	-1.005E+04	 1.491E+03	 2.141E+04	-9.441E+04	 6.020E+05	 7.163E+05	 1.591E+05	 1.491E+03	-2.585E-05	-4.435E-03	 1.600E-02	-1.356E-04	-3.833E-05	 3.681E-05
       0.034000	-8.765E+02	-1.039E+05	 6.008E+05	 7.901E+05	-1.065E+04	 1.491E+03	 2.306E+04	-1.013E+05	 6.008E+05	 7.713E+05	 1.715E+05	 1.491E+03	-2.150E-05	-5.388E-03	 1.629E-02	-9.324E-05	-3.924E-05	 3.527E-05
       0.036000	-8.291E+02	-1.095E+05	 5.935E+05	 8.407E+05	-1.120E+04	 1.507E+03	 2.440E+04	-1.068E+05	 5.935E+05	 8.207E+05	 1.826E+05	 1.507E+03	-1.383E-05	-6.426E-03	 1.625E-02	-4.442E-05	-3.902E-05	 3.200E-05
       0.038000	-7.651E+02	-1.132E+05	 5.806E+05	 8.841E+05	-1.177E+04	 1.539E+03	 2.532E+04	-1.104E+05	 5.806E+05	 8.631E+05	 1.921E+05	 1.539E+03	-2.241E-06	-7.531E-03	 1.589E-02	 8.286E-06	-3.757E-05	 2.729E-05
       0.040000	-6.977E+02	-1.149E+05	 5.623E+05	 9.199E+05	-1.239E+04	 1.585E+03	 2.577E+04	-1.120E+05	 5.623E+05	 8.980E+05	 1.997E+05	 1.585E+03	 1.385E-05	-8.692E-03	 1.523E-02	 6.275E-05	-3.473E-05	 2.165E-05
       0.042000	-6.393E+02	-1.147E+05	 5.391E+05	 9.488E+05	-1.311E+04	 1.640E+03	 2.579E+04	-1.118E+05	 5.391E+05	 9.263E+05	 2.056E+05	 1.640E+03	 3.505E-05	-9.893E-03	 1.431E-02	 1.174E-04	-3.034E-05	 1.568E-05
       0.044000	-5.999E+02	-1.133E+05	 5.115E+05	 9.724E+05	-1.397E+04	 1.698E+03	 2.549E+04	-1.104E+05	 5.115E+05	 9.495E+05	 2.102E+05	 1.698E+03	 6.196E-05	-1.113E-02	 1.320E-02	 1.710E-04	-2.422E-05	 1.009E-05
       0.046000	-5.849E+02	-1.111E+05	 4.801E+05	 9.930E+05	-1.497E+04	 1.755E+03	 2.501E+04	-1.083E+05	 4.801E+05	 9.697E+05	 2.140E+05	 1.755E+03	 9.518E-05	-1.238E-02	 1.194E-02	 2.228E-04	-1.617E-05	 5.594E-06
       0.048000	-5.952E+02	-1.090E+05	 4.455E+05	 1.013E+06	-1.611E+04	 1.806E+03	 2.451E+04	-1.062E+05	 4.455E+05	 9.890E+05	 2.174E+05	 1.806E+03	 1.353E-04	-1.364E-02	 1.060E-02	 2.720E-04	-5.957E-06	 2.887E-06
       0.050000	-6.274E+02	-1.074E+05	 4.084E+05	 1.033E+06	-1.739E+04	 1.847E+03	 2.411E+04	-1.046E+05	 4.084E+05	 1.009E+06	 2.208E+05	 1.847E+03	 1.828E-04	-1.490E-02	 9.229E-03	 3.177E-04	 6.620E-06	 2.562E-06
       0.052000	-6.753E+02	-1.066E+05	 3.700E+05	 1.055E+06	-1.877E+04	 1.876E+03	 2.389E+04	-1.039E+05	 3.700E+05	 1.031E+06	 2.247E+05	 1.876E+03	 2.383E-04	-1.614E-02	 7.889E-03	 3.585E-04	 2.175E-05	 5.068E-06
       0.054000	-7.318E+02	-1.068E+05	 3.312E+05	 1.081E+06	-2.024E+04	 1.890E+03	 2.388E+04	-1.041E+05	 3.312E+05	 1.056E+06	 2.290E+05	 1.890E+03	 3.020E-04	-1.736E-02	 6.623E-03	 3.928E-04	 3.957E-05	 1.068E-05
       0.056000	-7.907E+02	-1.079E+05	 2.932E+05	 1.108E+06	-2.178E+04	 1.891E+03	 2.407E+04	-1.052E+05	 2.932E+05	 1.084E+06	 2.339E+05	 1.891E+03	 3.740E-04	-1.853E-02	 5.470E-03	 4.186E-04	 6.017E-05	 1.947E-05
       0.058000	-8.482E+02	-1.095E+05	 2.576E+05	 1.138E+06	-2.339E+04	 1.878E+03	 2.439E+04	-1.068E+05	 2.576E+05	 1.113E+06	 2.392E+05	 1.878E+03	 4.546E-04	-1.965E-02	 4.458E-03	 4.338E-04	 8.357E-05	 3.131E-05
       0.060000	-9.038E+02	-1.114E+05	 2.256E+05	 1.169E+06	-2.508E+04	 1.855E+03	 2.477E+04	-1.087E+05	 2.256E+05	 1.143E+06	 2.447E+05	 1.855E+03	 5.433E-04	-2.070E-02	 3.613E-03	 4.362E-04	 1.097E-04	 4.589E-05
       0.062000	-9.603E+02	-1.133E+05	 1.988E+05	 1.200E+06	-2.684E+04	 1.824E+03	 2.514E+04	-1.105E+05	 1.988E+05	 1.174E+06	 2.502E+05	 1.824E+03	 6.399E-04	-2.167E-02	 2.952E-03	 4.242E-04	 1.385E-04	 6.276E-05
       0.064000	-1.023E+03	-1.148E+05	 1.784E+05	 1.232E+06	-2.870E+04	 1.790E+03	 2.544E+04	-1.120E+05	 1.784E+05	 1.205E+06	 2.555E+05	 1.790E+03	 7.437E-04	-2.255E-02	 2.486E-03	 3.964E-04	 1.698E-04	 8.133E-05
       0.066000	-1.098E+03	-1.160E+05	 1.657E+05	 1.262E+06	-3.067E+04	 1.755E+03	 2.563E+04	-1.131E+05	 1.657E+05	 1.236E+06	 2.607E+05	 1.755E+03	 8.539E-04	-2.335E-02	 2.220E-03	 3.522E-04	 2.033E-04	 1.010E-04
       0.068000	-1.191E+03	-1.168E+05	 1.613E+05	 1.293E+06	-3.276E+04	 1.723E+03	 2.572E+04	-1.139E+05	 1.613E+05	 1.266E+06	 2.658E+05	 1.723E+03	 9.695E-04	-2.406E-02	 2.156E-03	 2.918E-04	 2.388E-04	 1.210E-04
       0.070000	-1.306E+03	-1.174E+05	 1.657E+05	 1.324E+06	-3.495E+04	 1.697E+03	 2.574E+04	-1.145E+05	 1.657E+05	 1.296E+06	 2.707E+05	 1.697E+03	 1.089E-03	-2.470E-02	 2.287E-03	 2.161E-04	 2.760E-04	 1.407E-04
       0.072000	-1.444E+03	-1.179E+05	 1.786E+05	 1.355E+06	-3.724E+04	 1.677E+03	 2.574E+04	-1.151E+05	 1.786E+05	 1.328E+06	 2.758E+05	 1.677E+03	 1.212E-03	-2.528E-02	 2.605E-03	 1.264E-04	 3.146E-04	 1.596E-04
       0.074000	-1.603E+03	-1.187E+05	 1.994E+05	 1.388E+06	-3.959E+04	 1.665E+03	 2.576E+04	-1.159E+05	 1.994E+05	 1.360E+06	 2.810E+05	 1.665E+03	 1.337E-03	-2.580E-02	 3.097E-03	 2.467E-05	 3.542E-04	 1.771E-04
       0.076000	-1.775E+03	-1.198E+05	 2.273E+05	 1.422E+06	-4.197E+04	 1.657E+03	 2.585E+04	-1.170E+05	 2.273E+05	 1.394E+06	 2.865E+05	 1.657E+03	 1.461E-03	-2.630E-02	 3.744E-03	-8.678E-05	 3.946E-04	 1.929E-04
       0.078000	-1.954E+03	-1.214E+05	 2.608E+05	 1.458E+06	-4.433E+04	 1.653E+03	 2.604E+04	-1.186E+05	 2.608E+05	 1.429E+06	 2.925E+05	 1.653E+03	 1.585E-03	-2.678E-02	 4.527E-03	-2.055E-04	 4.353E-04	 2.067E-04
       0.080000	-2.130E+03	-1.235E+05	 2.982E+05	 1.495E+06	-4.663E+04	 1.648E+03	 2.635E+04	-1.206E+05	 2.982E+05	 1.466E+06	 2.988E+05	 1.648E+03	 1.705E-03	-2.728E-02	 5.420E-03	-3.291E-04	 4.761E-04	 2.183E-04
       0.082000	-2.294E+03	-1.259E+05	 3.380E+05	 1.534E+06	-4.882E+04	 1.641E+03	 2.675E+04	-1.230E+05	 3.380E+05	 1.504E+06	 3.055E+05	 1.641E+03	 1.821E-03	-2.781E-02	 6.398E-03	-4.551E-04	 5.164E-04	 2.277E-04
       0.084000	-2.439E+03	-1.285E+05	 3.783E+05	 1.572E+06	-5.087E+04	 1.628E+03	 2.722E+04	-1.257E+05	 3.783E+05	 1.541E+06	 3.123E+05	 1.628E+03	 1.930E-03	-2.840E-02	 7.432E-03	-5.810E-04	 5.560E-04	 2.350E-04
       0.086000	-2.558E+03	-1.312E+05	 4.176E+05	 1.610E+06	-5.274E+04	 1.607E+03	 2.771E+04	-1.283E+05	 4.176E+05	 1.579E+06	 3.193E+05	 1.607E+03	 2.032E-03	-2.907E-02	 8.491E-03	-7.045E-04	 5.944E-04	 2.403E-04
       0.088000	-2.651E+03	-1.337E+05	 4.545E+05	 1.647E+06	-5.443E+04	 1.576E+03	 2.820E+04	-1.307E+05	 4.545E+05	 1.615E+06	 3.261E+05	 1.576E+03	 2.123E-03	-2.984E-02	 9.544E-03	-8.235E-04	 6.312E-04	 2.437E-04
       0.090000	-2.715E+03	-1.358E+05	 4.876E+05	 1.681E+06	-5.592E+04	 1.534E+03	 2.863E+04	-1.328E+05	 4.876E+05	 1.649E+06	 3.326E+05	 1.534E+03	 2.204E-03	-3.073E-02	 1.056E-02	-9.357E-04	 6.661E-04	 2.455E-04
       0.092000	-2.753E+03	-1.375E+05	 5.160E+05	 1.714E+06	-5.721E+04	 1.483E+03	 2.897E+04	-1.345E+05	 5.160E+05	 1.681E+06	 3.388E+05	 1.483E+03	 2.272E-03	-3.177E-02	 1.150E-02	-1.039E-03	 6.985E-04	 2.458E-04
       0.094000	-2.768E+03	-1.387E+05	 5.390E+05	 1.743E+06	-5.831E+04	 1.425E+03	 2.923E+04	-1.356E+05	 5.390E+05	 1.710E+06	 3.446E+05	 1.425E+03	 2.325E-03	-3.297E-02	 1.234E-02	-1.131E-03	 7.283E-04	 2.449E-04
       0.096000	-2.763E+03	-1.393E+05	 5.563E+05	 1.771E+06	-5.923E+04	 1.361E+03	 2.939E+04	-1.362E+05	 5.563E+05	 1.737E+06	 3.499E+05	 1.361E+03	 2.363E-03	-3.436E-02	 1.306E-02	-1.210E-03	 7.550E-04	 2.428E-04
       0.098000	-2.740E+03	-1.396E+05	 5.674E+05	 1.795E+06	-5.997E+04	 1.295E+03	 2.947E+04	-1.365E+05	 5.674E+05	 1.761E+06	 3.549E+05	 1.295E+03	 2.384E-03	-3.595E-02	 1.361E-02	-1.275E-03	 7.784E-04	 2.398E-04
       0.100000	-2.702E+03	-1.395E+05	 5.725E+05	 1.818E+06	-6.055E+04	 1.231E+03	 2.949E+04	-1.364E+05	 5.725E+05	 1.783E+06	 3.595E+05	 1.231E+03	 2.388E-03	-3.775E-02	 1.400E-02	-1.323E-03	 7.982E-04	 2.359E-04
       0.102000	-2.647E+03	-1.392E+05	 5.718E+05	 1.838E+06	-6.096E+04	 1.173E+03	 2.947E+04	-1.361E+05	 5.718E+05	 1.803E+06	 3.639E+05	 1.173E+03	 2.373E-03	-3.979E-02	 1.419E-02	-1.354E-03	 8.144E-04	 2.313E-04
       0.104000	-2.578E+03	-1.387E+05	 5.654E+05	 1.858E+06	-6.122E+04	 1.124E+03	 2.943E+04	-1.356E+05	 5.654E+05	 1.822E+06	 3.681E+05	 1.124E+03	 2.339E-03	-4.206E-02	 1.419E-02	-1.366E-03	 8.268E-04	 2.259E-04
       0.106000	-2.492E+03	-1.382E+05	 5.539E+05	 1.876E+06	-6.133E+04	 1.088E+03	 2.939E+04	-1.351E+05	 5.539E+05	 1.840E+06	 3.722E+05	 1.088E+03	 2.286E-03	-4.458E-02	 1.399E-02	-1.359E-03	 8.353E-04	 2.200E-04
       0.108000	-2.390E+03	-1.377E+05	 5.378E+05	 1.894E+06	-6.132E+04	 1.065E+03	 2.936E+04	-1.345E+05	 5.378E+05	 1.858E+06	 3.764E+05	 1.065E+03	 2.212E-03	-4.735E-02	 1.360E-02	-1.333E-03	 8.399E-04	 2.134E-04
       0.110000	-2.272E+03	-1.371E+05	 5.177E+05	 1.912E+06	-6.119E+04	 1.056E+03	 2.935E+04	-1.339E+05	 5.177E+05	 1.874E+06	 3.805E+05	 1.056E+03	 2.119E-03	-5.037E-02	 1.304E-02	-1.289E-03	 8.406E-04	 2.063E-04
       0.112000	-2.140E+03	-1.365E+05	 4.943E+05	 1.929E+06	-6.098E+04	 1.063E+03	 2.934E+04	-1.333E+05	 4.943E+05	 1.891E+06	 3.847E+05	 1.063E+03	 2.006E-03	-5.364E-02	 1.233E-02	-1.226E-03	 8.374E-04	 1.988E-04
       0.114000	-1.998E+03	-1.359E+05	 4.683E+05	 1.947E+06	-6.070E+04	 1.082E+03	 2.934E+04	-1.327E+05	 4.683E+05	 1.908E+06	 3.890E+05	 1.082E+03	 1.874E-03	-5.715E-02	 1.150E-02	-1.146E-03	 8.305E-04	 1.908E-04
       0.116000	-1.850E+03	-1.353E+05	 4.406E+05	 1.964E+06	-6.040E+04	 1.112E+03	 2.935E+04	-1.321E+05	 4.406E+05	 1.926E+06	 3.934E+05	 1.112E+03	 1.722E-03	-6.089E-02	 1.059E-02	-1.050E-03	 8.198E-04	 1.824E-04
       0.118000	-1.702E+03	-1.347E+05	 4.118E+05	 1.983E+06	-6.011E+04	 1.151E+03	 2.935E+04	-1.315E+05	 4.118E+05	 1.944E+06	 3.980E+05	 1.151E+03	 1.550E-03	-6.486E-02	 9.622E-03	-9.391E-04	 8.055E-04	 1.737E-04
       0.120000	-1.559E+03	-1.342E+05	 3.829E+05	 2.003E+06	-5.986E+04	 1.194E+03	 2.937E+04	-1.309E+05	 3.829E+05	 1.963E+06	 4.028E+05	 1.194E+03	 1.361E-03	-6.905E-02	 8.641E-03	-8.147E-04	 7.877E-04	 1.647E-04
       0.122000	-1.427E+03	-1.338E+05	 3.547E+05	 2.024E+06	-5.969E+04	 1.239E+03	 2.940E+04	-1.305E+05	 3.547E+05	 1.983E+06	 4.078E+05	 1.239E+03	 1.153E-03	-7.344E-02	 7.683E-03	-6.781E-04	 7.665E-04	 1.554E-04
       0.124000	-1.312E+03	-1.335E+05	 3.281E+05	 2.047E+06	-5.962E+04	 1.283E+03	 2.945E+04	-1.302E+05	 3.281E+05	 2.006E+06	 4.132E+05	 1.283E+03	 9.279E-04	-7.802E-02	 6.782E-03	-5.306E-04	 7.421E-04	 1.459E-04
       0.126000	-1.217E+03	-1.335E+05	 3.038E+05	 2.073E+06	-5.968E+04	 1.322E+03	 2.955E+04	-1.302E+05	 3.038E+05	 2.031E+06	 4.190E+05	 1.322E+03	 6.858E-04	-8.279E-02	 5.969E-03	-3.735E-04	 7.146E-04	 1.360E-04
       0.128000	-1.145E+03	-1.339E+05	 2.827E+05	 2.101E+06	-5.989E+04	 1.355E+03	 2.970E+04	-1.305E+05	 2.827E+05	 2.058E+06	 4.252E+05	 1.355E+03	 4.274E-04	-8.773E-02	 5.270E-03	-2.081E-04	 6.841E-04	 1.258E-04
       0.130000	-1.096E+03	-1.346E+05	 2.655E+05	 2.131E+06	-6.026E+04	 1.380E+03	 2.991E+04	-1.312E+05	 2.655E+05	 2.088E+06	 4.319E+05	 1.380E+03	 1.532E-04	-9.283E-02	 4.706E-03	-3.527E-05	 6.508E-04	 1.152E-04
       0.132000	-1.071E+03	-1.357E+05	 2.528E+05	 2.165E+06	-6.078E+04	 1.395E+03	 3.019E+04	-1.323E+05	 2.528E+05	 2.121E+06	 4.391E+05	 1.395E+03	-1.360E-04	-9.808E-02	 4.293E-03	 1.438E-04	 6.148E-04	 1.042E-04
       0.134000	-1.069E+03	-1.372E+05	 2.451E+05	 2.201E+06	-6.146E+04	 1.402E+03	 3.055E+04	-1.338E+05	 2.451E+05	 2.156E+06	 4.469E+05	 1.402E+03	-4.398E-04	-1.035E-01	 4.039E-03	 3.283E-04	 5.763E-04	 9.276E-05
       0.136000	-1.086E+03	-1.392E+05	 2.426E+05	 2.240E+06	-6.228E+04	 1.399E+03	 3.098E+04	-1.357E+05	 2.426E+05	 2.194E+06	 4.550E+05	 1.399E+03	-7.575E-04	-1.090E-01	 3.948E-03	 5.174E-04	 5.353E-04	 8.080E-05
       0.138000	-1.123E+03	-1.415E+05	 2.456E+05	 2.281E+06	-6.324E+04	 1.389E+03	 3.147E+04	-1.379E+05	 2.456E+05	 2.235E+06	 4.636E+05	 1.389E+03	-1.089E-03	-1.146E-01	 4.017E-03	 7.106E-04	 4.920E-04	 6.833E-05
       0.140000	-1.175E+03	-1.441E+05	 2.539E+05	 2.325E+06	-6.433E+04	 1.371E+03	 3.202E+04	-1.405E+05	 2.539E+05	 2.277E+06	 4.725E+05	 1.371E+03	-1.433E-03	-1.204E-01	 4.240E-03	 9.073E-04	 4.464E-04	 5.539E-05
       0.142000	-1.241E+03	-1.469E+05	 2.673E+05	 2.370E+06	-6.552E+04	 1.348E+03	 3.260E+04	-1.432E+05	 2.673E+05	 2.321E+06	 4.817E+05	 1.348E+03	-1.789E-03	-1.263E-01	 4.604E-03	 1.107E-03	 3.985E-04	 4.204E-05
       0.144000	-1.319E+03	-1.499E+05	 2.853E+05	 2.416E+06	-6.680E+04	 1.320E+03	 3.321E+04	-1.462E+05	 2.853E+05	 2.366E+06	 4.910E+05	 1.320E+03	-2.158E-03	-1.323E-01	 5.094E-03	 1.311E-03	 3.485E-04	 2.841E-05
       0.146000	-1.406E+03	-1.530E+05	 3.072E+05	 2.462E+06	-6.815E+04	 1.289E+03	 3.384E+04	-1.492E+05	 3.072E+05	 2.412E+06	 5.004E+05	 1.289E+03	-2.538E-03	-1.384E-01	 5.691E-03	 1.517E-03	 2.964E-04	 1.466E-05
       0.148000	-1.500E+03	-1.561E+05	 3.322E+05	 2.509E+06	-6.954E+04	 1.255E+03	 3.447E+04	-1.523E+05	 3.322E+05	 2.457E+06	 5.098E+05	 1.255E+03	-2.929E-03	-1.445E-01	 6.373E-03	 1.726E-03	 2.421E-04	 9.848E-07
       0.150000	-1.600E+03	-1.592E+05	 3.593E+05	 2.555E+06	-7.096E+04	 1.220E+03	 3.509E+04	-1.553E+05	 3.593E+05	 2.503E+06	 5.190E+05	 1.220E+03	-3.331E-03	-1.508E-01	 7.117E-03	 1.939E-03	 1.858E-04	-1.237E-05
       0.152000	-1.701E+03	-1.623E+05	 3.876E+05	 2.600E+06	-7.239E+04	 1.184E+03	 3.569E+04	-1.583E+05	 3.876E+05	 2.547E+06	 5.280E+05	 1.184E+03	-3.744E-03	-1.572E-01	 7.897E-03	 2.156E-03	 1.274E-04	-2.513E-05
       0.154000	-1.802E+03	-1.652E+05	 4.159E+05	 2.644E+06	-7.378E+04	 1.147E+03	 3.627E+04	-1.612E+05	 4.159E+05	 2.590E+06	 5.367E+05	 1.147E+03	-4.166E-03	-1.637E-01	 8.688E-03	 2.377E-03	 6.686E-05	-3.703E-05
       0.156000	-1.898E+03	-1.679E+05	 4.432E+05	 2.685E+06	-7.513E+04	 1.109E+03	 3.681E+04	-1.639E+05	 4.432E+05	 2.631E+06	 5.450E+05	 1.109E+03	-4.599E-03	-1.702E-01	 9.465E-03	 2.602E-03	 4.317E-06	-4.780E-05
       0.158000	-1.985E+03	-1.705E+05	 4.685E+05	 2.725E+06	-7.640E+04	 1.070E+03	 3.730E+04	-1.663E+05	 4.685E+05	 2.669E+06	 5.528E+05	 1.070E+03	-5.040E-03	-1.769E-01	 1.020E-02	 2.832E-03	-6.022E-05	-5.720E-05
       0.160000	-2.061E+03	-1.727E+05	 4.911E+05	 2.761E+06	-7.757E+04	 1.031E+03	 3.775E+04	-1.685E+05	 4.911E+05	 2.705E+06	 5.601E+05	 1.031E+03	-5.490E-03	-1.836E-01	 1.088E-02	 3.067E-03	-1.267E-04	-6.500E-05
       0.162000	-2.122E+03	-1.746E+05	 5.101E+05	 2.795E+06	-7.863E+04	 9.898E+02	 3.814E+04	-1.704E+05	 5.101E+05	 2.738E+06	 5.668E+05	 9.898E+02	-5.947E-03	-1.905E-01	 1.147E-02	 3.307E-03	-1.951E-04	-7.104E-05
       0.164000	-2.166E+03	-1.762E+05	 5.250E+05	 2.825E+06	-7.955E+04	 9.483E+02	 3.846E+04	-1.720E+05	 5.250E+05	 2.767E+06	 5.728E+05	 9.483E+02	-6.412E-03	-1.974E-01	 1.197E-02	 3.551E-03	-2.653E-04	-7.523E-05
       0.166000	-2.190E+03	-1.774E+05	 5.354E+05	 2.851E+06	-8.032E+04	 9.062E+02	 3.871E+04	-1.731E+05	 5.354E+05	 2.793E+06	 5.781E+05	 9.062E+02	-6.884E-03	-2.043E-01	 1.234E-02	 3.800E-03	-3.373E-04	-7.751E-05
       0.168000	-2.192E+03	-1.782E+05	 5.411E+05	 2.874E+06	-8.094E+04	 8.639E+02	 3.888E+04	-1.739E+05	 5.411E+05	 2.815E+06	 5.827E+05	 8.639E+02	-7.361E-03	-2.114E-01	 1.258E-02	 4.054E-03	-4.108E-04	-7.792E-05
       0.170000	-2.174E+03	-1.785E+05	 5.420E+05	 2.892E+06	-8.140E+04	 8.220E+02	 3.897E+04	-1.742E+05	 5.420E+05	 2.833E+06	 5.865E+05	 8.220E+02	-7.843E-03	-2.185E-01	 1.269E-02	 4.311E-03	-4.859E-04	-7.654E-05
       0.172000	-2.135E+03	-1.784E+05	 5.384E+05	 2.907E+06	-8.170E+04	 7.810E+02	 3.898E+04	-1.741E+05	 5.384E+05	 2.847E+06	 5.895E+05	 7.810E+02	-8.329E-03	-2.257E-01	 1.266E-02	 4.572E-03	-5.623E-04	-7.353E-05
       0.174000	-2.076E+03	-1.778E+05	 5.304E+05	 2.917E+06	-8.187E+04	 7.415E+02	 3.891E+04	-1.735E+05	 5.304E+05	 2.858E+06	 5.918E+05	 7.415E+02	-8.818E-03	-2.329E-01	 1.249E-02	 4.835E-03	-6.399E-04	-6.907E-05
       0.176000	-1.999E+03	-1.769E+05	 5.186E+05	 2.924E+06	-8.190E+04	 7.041E+02	 3.876E+04	-1.726E+05	 5.186E+05	 2.864E+06	 5.934E+05	 7.041E+02	-9.309E-03	-2.402E-01	 1.218E-02	 5.100E-03	-7.185E-04	-6.340E-05
       0.178000	-1.907E+03	-1.755E+05	 5.033E+05	 2.928E+06	-8.181E+04	 6.691E+02	 3.855E+04	-1.712E+05	 5.033E+05	 2.868E+06	 5.943E+05	 6.691E+02	-9.801E-03	-2.475E-01	 1.176E-02	 5.366E-03	-7.980E-04	-5.677E-05
       0.180000	-1.801E+03	-1.738E+05	 4.853E+05	 2.928E+06	-8.163E+04	 6.369E+02	 3.826E+04	-1.696E+05	 4.853E+05	 2.868E+06	 5.946E+05	 6.369E+02	-1.029E-02	-2.548E-01	 1.122E-02	 5.632E-03	-8.781E-04	-4.945E-05
       0.182000	-1.686E+03	-1.719E+05	 4.651E+05	 2.926E+06	-8.137E+04	 6.075E+02	 3.793E+04	-1.677E+05	 4.651E+05	 2.866E+06	 5.943E+05	 6.075E+02	-1.078E-02	-2.621E-01	 1.060E-02	 5.897E-03	-9.587E-04	-4.168E-05
       0.184000	-1.562E+03	-1.697E+05	 4.435E+05	 2.921E+06	-8.105E+04	 5.809E+02	 3.755E+04	-1.655E+05	 4.435E+05	 2.861E+06	 5.935E+05	 5.809E+02	-1.127E-02	-2.694E-01	 9.915E-03	 6.160E-03	-1.039E-03	-3.369E-05
       0.186000	-1.434E+03	-1.674E+05	 4.213E+05	 2.914E+06	-8.071E+04	 5.567E+02	 3.713E+04	-1.632E+05	 4.213E+05	 2.855E+06	 5.923E+05	 5.567E+02	-1.176E-02	-2.768E-01	 9.183E-03	 6.420E-03	-1.120E-03	-2.571E-05
       0.188000	-1.304E+03	-1.649E+05	 3.991E+05	 2.906E+06	-8.036E+04	 5.346E+02	 3.668E+04	-1.608E+05	 3.991E+05	 2.847E+06	 5.908E+05	 5.346E+02	-1.224E-02	-2.841E-01	 8.432E-03	 6.676E-03	-1.201E-03	-1.789E-05
       0.190000	-1.176E+03	-1.623E+05	 3.776E+05	 2.897E+06	-8.003E+04	 5.139E+02	 3.622E+04	-1.582E+05	 3.776E+05	 2.838E+06	 5.890E+05	 5.139E+02	-1.271E-02	-2.913E-01	 7.688E-03	 6.928E-03	-1.281E-03	-1.037E-05
       0.192000	-1.051E+03	-1.597E+05	 3.576E+05	 2.887E+06	-7.975E+04	 4.943E+02	 3.575E+04	-1.557E+05	 3.576E+05	 2.828E+06	 5.870E+05	 4.943E+02	-1.318E-02	-2.986E-01	 6.976E-03	 7.173E-03	-1.361E-03	-3.219E-06
       0.194000	-9.324E+02	-1.572E+05	 3.396E+05	 2.877E+06	-7.953E+04	 4.752E+02	 3.527E+04	-1.532E+05	 3.396E+05	 2.818E+06	 5.849E+05	 4.752E+02	-1.364E-02	-3.058E-01	 6.318E-03	 7.413E-03	-1.440E-03	 3.504E-06
       0.196000	-8.234E+02	-1.547E+05	 3.241E+05	 2.867E+06	-7.941E+04	 4.563E+02	 3.480E+04	-1.507E+05	 3.241E+05	 2.808E+06	 5.827E+05	 4.563E+02	-1.409E-02	-3.130E-01	 5.735E-03	 7.646E-03	-1.519E-03	 9.800E-06
       0.198000	-7.263E+02	-1.522E+05	 3.118E+05	 2.857E+06	-7.940E+04	 4.375E+02	 3.434E+04	-1.483E+05	 3.118E+05	 2.799E+06	 5.805E+05	 4.375E+02	-1.453E-02	-3.201E-01	 5.244E-03	 7.872E-03	-1.596E-03	 1.570E-05
       0.200000	-6.432E+02	-1.500E+05	 3.028E+05	 2.849E+06	-7.951E+04	 4.189E+02	 3.389E+04	-1.461E+05	 3.028E+05	 2.791E+06	 5.784E+05	 4.189E+02	-1.497E-02	-3.271E-01	 4.859E-03	 8.090E-03	-1.672E-03	 2.126E-05
       0.202000	-5.760E+02	-1.478E+05	 2.976E+05	 2.841E+06	-7.978E+04	 4.007E+02	 3.346E+04	-1.440E+05	 2.976E+05	 2.783E+06	 5.763E+05	 4.007E+02	-1.539E-02	-3.342E-01	 4.589E-03	 8.302E-03	-1.747E-03	 2.656E-05
       0.204000	-5.261E+02	-1.458E+05	 2.961E+05	 2.835E+06	-8.020E+04	 3.834E+02	 3.306E+04	-1.421E+05	 2.961E+05	 2.777E+06	 5.744E+05	 3.834E+02	-1.580E-02	-3.411E-01	 4.440E-03	 8.507E-03	-1.821E-03	 3.169E-05
       0.206000	-4.944E+02	-1.441E+05	 2.985E+05	 2.830E+06	-8.078E+04	 3.678E+02	 3.268E+04	-1.403E+05	 2.985E+05	 2.772E+06	 5.727E+05	 3.678E+02	-1.620E-02	-3.481E-01	 4.412E-03	 8.705E-03	-1.893E-03	 3.675E-05
       0.208000	-4.813E+02	-1.425E+05	 3.047E+05	 2.826E+06	-8.154E+04	 3.546E+02	 3.233E+04	-1.388E+05	 3.047E+05	 2.769E+06	 5.712E+05	 3.546E+02	-1.659E-02	-3.549E-01	 4.502E-03	 8.898E-03	-1.964E-03	 4.186E-05
       0.210000	-4.868E+02	-1.411E+05	 3.144E+05	 2.825E+06	-8.247E+04	 3.447E+02	 3.201E+04	-1.374E+05	 3.144E+05	 2.768E+06	 5.699E+05	 3.447E+02	-1.696E-02	-3.618E-01	 4.702E-03	 9.086E-03	-2.034E-03	 4.709E-05
       0.212000	-5.101E+02	-1.399E+05	 3.274E+05	 2.825E+06	-8.356E+04	 3.390E+02	 3.171E+04	-1.363E+05	 3.274E+05	 2.768E+06	 5.689E+05	 3.390E+02	-1.732E-02	-3.686E-01	 5.001E-03	 9.270E-03	-2.102E-03	 5.255E-05
       0.214000	-5.503E+02	-1.389E+05	 3.430E+05	 2.826E+06	-8.483E+04	 3.382E+02	 3.145E+04	-1.353E+05	 3.430E+05	 2.770E+06	 5.680E+05	 3.382E+02	-1.767E-02	-3.754E-01	 5.385E-03	 9.450E-03	-2.169E-03	 5.831E-05
       0.216000	-6.059E+02	-1.381E+05	 3.608E+05	 2.830E+06	-8.624E+04	 3.429E+02	 3.120E+04	-1.346E+05	 3.608E+05	 2.774E+06	 5.675E+05	 3.429E+02	-1.800E-02	-3.821E-01	 5.837E-03	 9.629E-03	-2.235E-03	 6.443E-05
       0.218000	-6.751E+02	-1.375E+05	 3.802E+05	 2.835E+06	-8.780E+04	 3.534E+02	 3.098E+04	-1.339E+05	 3.802E+05	 2.779E+06	 5.671E+05	 3.534E+02	-1.833E-02	-3.889E-01	 6.340E-03	 9.807E-03	-2.300E-03	 7.096E-05
       0.220000	-7.561E+02	-1.369E+05	 4.005E+05	 2.842E+06	-8.949E+04	 3.699E+02	 3.078E+04	-1.334E+05	 4.005E+05	 2.786E+06	 5.670E+05	 3.699E+02	-1.863E-02	-3.957E-01	 6.872E-03	 9.986E-03	-2.363E-03	 7.792E-05
       0.222000	-8.467E+02	-1.365E+05	 4.210E+05	 2.850E+06	-9.130E+04	 3.921E+02	 3.060E+04	-1.330E+05	 4.210E+05	 2.794E+06	 5.672E+05	 3.921E+02	-1.893E-02	-4.024E-01	 7.415E-03	 1.017E-02	-2.426E-03	 8.530E-05
       0.224000	-9.449E+02	-1.362E+05	 4.410E+05	 2.860E+06	-9.321E+04	 4.195E+02	 3.043E+04	-1.328E+05	 4.410E+05	 2.804E+06	 5.675E+05	 4.195E+02	-1.921E-02	-4.092E-01	 7.948E-03	 1.035E-02	-2.487E-03	 9.311E-05
       0.226000	-1.049E+03	-1.359E+05	 4.598E+05	 2.870E+06	-9.520E+04	 4.515E+02	 3.027E+04	-1.325E+05	 4.598E+05	 2.815E+06	 5.681E+05	 4.515E+02	-1.947E-02	-4.160E-01	 8.452E-03	 1.053E-02	-2.548E-03	 1.013E-04
       0.228000	-1.156E+03	-1.357E+05	 4.768E+05	 2.883E+06	-9.726E+04	 4.868E+02	 3.012E+04	-1.324E+05	 4.768E+05	 2.828E+06	 5.689E+05	 4.868E+02	-1.972E-02	-4.228E-01	 8.908E-03	 1.073E-02	-2.607E-03	 1.098E-04
       0.230000	-1.264E+03	-1.356E+05	 4.914E+05	 2.896E+06	-9.938E+04	 5.245E+02	 2.998E+04	-1.322E+05	 4.914E+05	 2.841E+06	 5.699E+05	 5.245E+02	-1.996E-02	-4.297E-01	 9.301E-03	 1.092E-02	-2.665E-03	 1.187E-04
       0.232000	-1.373E+03	-1.355E+05	 5.032E+05	 2.910E+06	-1.015E+05	 5.632E+02	 2.985E+04	-1.321E+05	 5.032E+05	 2.856E+06	 5.711E+05	 5.632E+02	-2.018E-02	-4.366E-01	 9.616E-03	 1.112E-02	-2.723E-03	 1.277E-04
       0.234000	-1.479E+03	-1.354E+05	 5.119E+05	 2.926E+06	-1.037E+05	 6.014E+02	 2.972E+04	-1.321E+05	 5.119E+05	 2.871E+06	 5.726E+05	 6.014E+02	-2.038E-02	-4.435E-01	 9.843E-03	 1.133E-02	-2.780E-03	 1.368E-04
       0.236000	-1.582E+03	-1.353E+05	 5.172E+05	 2.943E+06	-1.059E+05	 6.379E+02	 2.960E+04	-1.320E+05	 5.172E+05	 2.888E+06	 5.743E+05	 6.379E+02	-2.057E-02	-4.505E-01	 9.973E-03	 1.155E-02	-2.835E-03	 1.459E-04
       0.238000	-1.680E+03	-1.352E+05	 5.190E+05	 2.961E+06	-1.081E+05	 6.715E+02	 2.949E+04	-1.320E+05	 5.190E+05	 2.906E+06	 5.763E+05	 6.715E+02	-2.074E-02	-4.575E-01	 1.000E-02	 1.177E-02	-2.890E-03	 1.550E-04
       0.240000	-1.773E+03	-1.352E+05	 5.173E+05	 2.980E+06	-1.103E+05	 7.009E+02	 2.940E+04	-1.320E+05	 5.173E+05	 2.925E+06	 5.786E+05	 7.009E+02	-2.090E-02	-4.645E-01	 9.926E-03	 1.199E-02	-2.944E-03	 1.640E-04
       0.242000	-1.859E+03	-1.352E+05	 5.123E+05	 3.000E+06	-1.125E+05	 7.251E+02	 2.931E+04	-1.320E+05	 5.123E+05	 2.946E+06	 5.812E+05	 7.251E+02	-2.103E-02	-4.716E-01	 9.748E-03	 1.223E-02	-2.996E-03	 1.727E-04
       0.244000	-1.939E+03	-1.353E+05	 5.043E+05	 3.022E+06	-1.146E+05	 7.434E+02	 2.925E+04	-1.321E+05	 5.043E+05	 2.967E+06	 5.841E+05	 7.434E+02	-2.115E-02	-4.786E-01	 9.474E-03	 1.247E-02	-3.048E-03	 1.812E-04
       0.246000	-2.012E+03	-1.354E+05	 4.936E+05	 3.045E+06	-1.167E+05	 7.552E+02	 2.921E+04	-1.322E+05	 4.936E+05	 2.991E+06	 5.874E+05	 7.552E+02	-2.125E-02	-4.857E-01	 9.112E-03	 1.271E-02	-3.098E-03	 1.893E-04
       0.248000	-2.079E+03	-1.356E+05	 4.807E+05	 3.070E+06	-1.188E+05	 7.600E+02	 2.919E+04	-1.324E+05	 4.807E+05	 3.015E+06	 5.911E+05	 7.600E+02	-2.133E-02	-4.928E-01	 8.671E-03	 1.296E-02	-3.146E-03	 1.971E-04
       0.250000	-2.139E+03	-1.359E+05	 4.660E+05	 3.097E+06	-1.209E+05	 7.577E+02	 2.920E+04	-1.328E+05	 4.660E+05	 3.042E+06	 5.952E+05	 7.577E+02	-2.139E-02	-4.999E-01	 8.166E-03	 1.321E-02	-3.193E-03	 2.045E-04
       0.252000	-2.194E+03	-1.363E+05	 4.500E+05	 3.126E+06	-1.230E+05	 7.482E+02	 2.925E+04	-1.332E+05	 4.500E+05	 3.070E+06	 5.998E+05	 7.482E+02	-2.142E-02	-5.069E-01	 7.612E-03	 1.346E-02	-3.238E-03	 2.117E-04
       0.254000	-2.245E+03	-1.369E+05	 4.335E+05	 3.156E+06	-1.250E+05	 7.316E+02	 2.933E+04	-1.338E+05	 4.335E+05	 3.100E+06	 6.048E+05	 7.316E+02	-2.143E-02	-5.140E-01	 7.026E-03	 1.371E-02	-3.281E-03	 2.185E-04
       0.256000	-2.292E+03	-1.376E+05	 4.169E+05	 3.188E+06	-1.270E+05	 7.082E+02	 2.945E+04	-1.345E+05	 4.169E+05	 3.132E+06	 6.103E+05	 7.082E+02	-2.142E-02	-5.210E-01	 6.425E-03	 1.396E-02	-3.321E-03	 2.251E-04
       0.258000	-2.337E+03	-1.385E+05	 4.008E+05	 3.223E+06	-1.290E+05	 6.784E+02	 2.962E+04	-1.354E+05	 4.008E+05	 3.166E+06	 6.163E+05	 6.784E+02	-2.138E-02	-5.279E-01	 5.828E-03	 1.421E-02	-3.359E-03	 2.316E-04
       0.260000	-2.380E+03	-1.396E+05	 3.857E+05	 3.260E+06	-1.310E+05	 6.424E+02	 2.983E+04	-1.364E+05	 3.857E+05	 3.202E+06	 6.228E+05	 6.424E+02	-2.132E-02	-5.348E-01	 5.252E-03	 1.445E-02	-3.394E-03	 2.381E-04
       0.262000	-2.424E+03	-1.409E+05	 3.722E+05	 3.299E+06	-1.330E+05	 6.009E+02	 3.008E+04	-1.377E+05	 3.722E+05	 3.241E+06	 6.298E+05	 6.009E+02	-2.123E-02	-5.416E-01	 4.714E-03	 1.469E-02	-3.427E-03	 2.446E-04
       0.264000	-2.468E+03	-1.424E+05	 3.606E+05	 3.340E+06	-1.351E+05	 5.544E+02	 3.038E+04	-1.392E+05	 3.606E+05	 3.281E+06	 6.373E+05	 5.544E+02	-2.111E-02	-5.482E-01	 4.229E-03	 1.493E-02	-3.456E-03	 2.513E-04
       0.266000	-2.513E+03	-1.441E+05	 3.514E+05	 3.383E+06	-1.371E+05	 5.034E+02	 3.073E+04	-1.408E+05	 3.514E+05	 3.323E+06	 6.453E+05	 5.034E+02	-2.097E-02	-5.548E-01	 3.810E-03	 1.515E-02	-3.481E-03	 2.583E-04
       0.268000	-2.562E+03	-1.460E+05	 3.447E+05	 3.428E+06	-1.391E+05	 4.485E+02	 3.112E+04	-1.427E+05	 3.447E+05	 3.368E+06	 6.537E+05	 4.485E+02	-2.079E-02	-5.613E-01	 3.469E-03	 1.537E-02	-3.503E-03	 2.655E-04
       0.270000	-2.613E+03	-1.481E+05	 3.408E+05	 3.475E+06	-1.412E+05	 3.903E+02	 3.156E+04	-1.448E+05	 3.408E+05	 3.414E+06	 6.625E+05	 3.903E+02	-2.058E-02	-5.677E-01	 3.212E-03	 1.558E-02	-3.521E-03	 2.732E-04
       0.272000	-2.668E+03	-1.504E+05	 3.397E+05	 3.524E+06	-1.433E+05	 3.294E+02	 3.203E+04	-1.470E+05	 3.397E+05	 3.462E+06	 6.717E+05	 3.294E+02	-2.034E-02	-5.739E-01	 3.044E-03	 1.578E-02	-3.535E-03	 2.813E-04