
Linearized model: Predictions were generated on 17-Apr-2024 at 16:54:56 using OpenFAST, compiled on Apr 17 2024 at 16:41:44 as a 64-bit application using double precision at commit -128-NOTFOUND
 linked with  NWTC Subroutine Library; ElastoDyn; InflowWind; AeroDyn

Description from the FAST input file: One Blade, 4 aero-stations, Linearization with continuous States AeroDynamic modules

Simulation information:
   Simulation time:                     1.1000 s
   Rotor Speed:                         1.2671 rad/s
   Azimuth:                             1.3938 rad
   Wind Speed:                         13.0000 m/s
   Number of continuous states:        15
   Number of discrete states:           0
   Number of constraint states:         0
   Number of inputs:                  351
   Number of outputs:                  20
   Jacobians included in this file?    No

Order of continuous states:
   Row/Column Operating Point                                                   Rotating Frame? Derivative Order Description
   ---------- ---------------                                                   --------------- ---------------- -----------
          1    5.898182494568E+000                                                     T               2         ED 1st flapwise bending-mode DOF of blade 1 (internal DOF index = DOF_BF(1,1)), m
          2    4.783926384325E+000                                                     T               2         ED 1st flapwise bending-mode DOF of blade 2 (internal DOF index = DOF_BF(2,1)), m
          3    5.328495072275E+000                                                     T               2         ED 1st flapwise bending-mode DOF of blade 3 (internal DOF index = DOF_BF(3,1)), m
          4   -6.409575969029E+000                                                     T               2         ED First time derivative of 1st flapwise bending-mode DOF of blade 1 (internal DOF index = DOF_BF(1,1)), m/s
          5   -6.958898354381E+000                                                     T               2         ED First time derivative of 1st flapwise bending-mode DOF of blade 2 (internal DOF index = DOF_BF(2,1)), m/s
          6   -5.040871428527E+000                                                     T               2         ED First time derivative of 1st flapwise bending-mode DOF of blade 3 (internal DOF index = DOF_BF(3,1)), m/s
          7    5.092706438286E-001                                                     T               1         AD x4 blade 1, node 2, -
          8    5.643786533829E-001                                                     T               1         AD x4 blade 1, node 3, -
          9    5.181655012006E-001                                                     T               1         AD x4 blade 1, node 4, -
         10    5.611177768645E-001                                                     T               1         AD x4 blade 2, node 2, -
         11    5.786146812180E-001                                                     T               1         AD x4 blade 2, node 3, -
         12    5.194819661896E-001                                                     T               1         AD x4 blade 2, node 4, -
         13    5.115141243550E-001                                                     T               1         AD x4 blade 3, node 2, -
         14    5.715877374362E-001                                                     T               1         AD x4 blade 3, node 3, -
         15    5.194013718460E-001                                                     T               1         AD x4 blade 3, node 4, -

Order of continuous state derivatives:
   Row/Column Operating Point                                                   Rotating Frame? Derivative Order Description
   ---------- ---------------                                                   --------------- ---------------- -----------
          1   -6.409575969029E+000                                                     T               2         First time derivative of ED 1st flapwise bending-mode DOF of blade 1 (internal DOF index = DOF_BF(1,1)), m/s
          2   -6.958898354381E+000                                                     T               2         First time derivative of ED 1st flapwise bending-mode DOF of blade 2 (internal DOF index = DOF_BF(2,1)), m/s
          3   -5.040871428527E+000                                                     T               2         First time derivative of ED 1st flapwise bending-mode DOF of blade 3 (internal DOF index = DOF_BF(3,1)), m/s
          4   -6.502072332500E+000                                                     T               2         First time derivative of ED First time derivative of 1st flapwise bending-mode DOF of blade 1 (internal DOF index = DOF_BF(1,1)), m/s/s
          5   -1.037500704440E+000                                                     T               2         First time derivative of ED First time derivative of 1st flapwise bending-mode DOF of blade 2 (internal DOF index = DOF_BF(2,1)), m/s/s
          6   -4.145331582712E+000                                                     T               2         First time derivative of ED First time derivative of 1st flapwise bending-mode DOF of blade 3 (internal DOF index = DOF_BF(3,1)), m/s/s
          7   -1.180681431040E-003                                                     T               1         First time derivative of AD x4 blade 1, node 2, -/s
          8   -7.860283815772E-002                                                     T               1         First time derivative of AD x4 blade 1, node 3, -/s
          9    2.808012971116E-003                                                     T               1         First time derivative of AD x4 blade 1, node 4, -/s
         10   -2.558442440774E-002                                                     T               1         First time derivative of AD x4 blade 2, node 2, -/s
         11   -6.026297597236E-002                                                     T               1         First time derivative of AD x4 blade 2, node 3, -/s
         12    3.287494769552E-003                                                     T               1         First time derivative of AD x4 blade 2, node 4, -/s
         13   -4.359809318748E-002                                                     T               1         First time derivative of AD x4 blade 3, node 2, -/s
         14   -1.090079465796E-001                                                     T               1         First time derivative of AD x4 blade 3, node 3, -/s
         15    1.650799101756E-003                                                     T               1         First time derivative of AD x4 blade 3, node 4, -/s

Order of inputs:
     Column   Operating Point                                                   Rotating Frame? Derivative Order Description
   ---------- ---------------                                                   --------------- ---------------- -----------
          1   -5.000000809192E+000                                                     F               0         IfW X-component position of moving hub, m
          2    0.000000000000E+000                                                     F               0         IfW Y-component position of moving hub, m
          3    9.000000338842E+001                                                     F               0         IfW Z-component position of moving hub, m
          4    1.394479492847E+000                                                     F               0         IfW X orientation of moving hub, rad
          5    1.534471897260E-002                                                     F               0         IfW Y orientation of moving hub, rad
          6   -8.591015460785E-002                                                     F               0         IfW Z orientation of moving hub, rad
          7    1.300000000000E+001                                                     F               0         IfW Extended input: horizontal wind speed (steady/uniform wind), m/s
          8    2.000000000000E-001                                                     F               0         IfW Extended input: vertical power-law shear exponent, -
          9    0.000000000000E+000                                                     F               0         IfW Extended input: propagation direction, rad
         10    2.341645474228E+004                                                     F               0         ED Blade 1 X force, node 1, N
         11   -9.800721153929E+002                                                     F               0         ED Blade 1 Y force, node 1, N
         12   -9.567907543289E+003                                                     F               0         ED Blade 1 Z force, node 1, N
         13    9.845102902478E+004                                                     F               0         ED Blade 1 X force, node 2, N
         14    8.832696590235E+002                                                     F               0         ED Blade 1 Y force, node 2, N
         15   -3.627215020428E+004                                                     F               0         ED Blade 1 Z force, node 2, N
         16    1.471011905981E+005                                                     F               0         ED Blade 1 X force, node 3, N
         17    1.243022308330E+004                                                     F               0         ED Blade 1 Y force, node 3, N
         18   -4.278168753765E+004                                                     F               0         ED Blade 1 Z force, node 3, N
         19    1.637597022534E+004                                                     F               0         ED Blade 1 X moment, node 1, Nm
         20    8.972141293744E+003                                                     F               0         ED Blade 1 Y moment, node 1, Nm
         21    3.780159165150E+004                                                     F               0         ED Blade 1 Z moment, node 1, Nm
         22   -9.077854900478E+004                                                     F               0         ED Blade 1 X moment, node 2, Nm
         23   -4.916636959859E+004                                                     F               0         ED Blade 1 Y moment, node 2, Nm
         24   -1.861483103695E+005                                                     F               0         ED Blade 1 Z moment, node 2, Nm
         25   -2.179930060812E+005                                                     F               0         ED Blade 1 X moment, node 3, Nm
         26   -1.340300527030E+005                                                     F               0         ED Blade 1 Y moment, node 3, Nm
         27   -6.285147554357E+005                                                     F               0         ED Blade 1 Z moment, node 3, Nm
         28    2.268084740223E+004                                                     F               0         ED Blade 2 X force, node 1, N
         29    6.642279645034E+003                                                     F               0         ED Blade 2 Y force, node 1, N
         30    5.113953355244E+002                                                     F               0         ED Blade 2 Z force, node 1, N
         31    9.356385671631E+004                                                     F               0         ED Blade 2 X force, node 2, N
         32    2.157284818054E+004                                                     F               0         ED Blade 2 Y force, node 2, N
         33    3.306364266833E+003                                                     F               0         ED Blade 2 Z force, node 2, N
         34    1.382360050500E+005                                                     F               0         ED Blade 2 X force, node 3, N
         35    1.737513181452E+004                                                     F               0         ED Blade 2 Y force, node 3, N
         36    6.958885052498E+003                                                     F               0         ED Blade 2 Z force, node 3, N
         37    1.086592545887E+004                                                     F               0         ED Blade 2 X moment, node 1, Nm
         38   -3.569856398342E+004                                                     F               0         ED Blade 2 Y moment, node 1, Nm
         39   -1.225163202740E+004                                                     F               0         ED Blade 2 Z moment, node 1, Nm
         40   -6.697461225364E+004                                                     F               0         ED Blade 2 X moment, node 2, Nm
         41    1.826219559538E+005                                                     F               0         ED Blade 2 Y moment, node 2, Nm
         42    5.857634768388E+004                                                     F               0         ED Blade 2 Z moment, node 2, Nm
         43   -1.213739523145E+005                                                     F               0         ED Blade 2 X moment, node 3, Nm
         44    5.560485508713E+005                                                     F               0         ED Blade 2 Y moment, node 3, Nm
         45    2.000475605803E+005                                                     F               0         ED Blade 2 Z moment, node 3, Nm
         46    2.506215494841E+004                                                     F               0         ED Blade 3 X force, node 1, N
         47   -6.466689576219E+003                                                     F               0         ED Blade 3 Y force, node 1, N
         48    2.988837427660E+003                                                     F               0         ED Blade 3 Z force, node 1, N
         49    1.024572318851E+005                                                     F               0         ED Blade 3 X force, node 2, N
         50   -2.490861545673E+004                                                     F               0         ED Blade 3 Y force, node 2, N
         51    5.983560480995E+003                                                     F               0         ED Blade 3 Z force, node 2, N
         52    1.472736968893E+005                                                     F               0         ED Blade 3 X force, node 3, N
         53   -3.087352501156E+004                                                     F               0         ED Blade 3 Y force, node 3, N
         54   -6.231809604633E+003                                                     F               0         ED Blade 3 Z force, node 3, N
         55    1.138057573986E+004                                                     F               0         ED Blade 3 X moment, node 1, Nm
         56    3.080140106769E+004                                                     F               0         ED Blade 3 Y moment, node 1, Nm
         57   -2.812107892470E+004                                                     F               0         ED Blade 3 Z moment, node 1, Nm
         58   -6.905682494089E+004                                                     F               0         ED Blade 3 X moment, node 2, Nm
         59   -1.481316037499E+005                                                     F               0         ED Blade 3 Y moment, node 2, Nm
         60    1.541605940961E+005                                                     F               0         ED Blade 3 Z moment, node 2, Nm
         61   -1.290505469693E+005                                                     F               0         ED Blade 3 X moment, node 3, Nm
         62   -4.840756604945E+005                                                     F               0         ED Blade 3 Y moment, node 3, Nm
         63    4.460095586146E+005                                                     F               0         ED Blade 3 Z moment, node 3, Nm
         64    0.000000000000E+000                                                     F               0         ED Platform X force, node 1, N
         65    0.000000000000E+000                                                     F               0         ED Platform Y force, node 1, N
         66    0.000000000000E+000                                                     F               0         ED Platform Z force, node 1, N
         67    0.000000000000E+000                                                     F               0         ED Platform X moment, node 1, Nm
         68    0.000000000000E+000                                                     F               0         ED Platform Y moment, node 1, Nm
         69    0.000000000000E+000                                                     F               0         ED Platform Z moment, node 1, Nm
         70    0.000000000000E+000                                                     F               0         ED Tower X force, node 1, N
         71    0.000000000000E+000                                                     F               0         ED Tower Y force, node 1, N
         72    0.000000000000E+000                                                     F               0         ED Tower Z force, node 1, N
         73    0.000000000000E+000                                                     F               0         ED Tower X force, node 2, N
         74    0.000000000000E+000                                                     F               0         ED Tower Y force, node 2, N
         75    0.000000000000E+000                                                     F               0         ED Tower Z force, node 2, N
         76    0.000000000000E+000                                                     F               0         ED Tower X force, node 3, N
         77    0.000000000000E+000                                                     F               0         ED Tower Y force, node 3, N
         78    0.000000000000E+000                                                     F               0         ED Tower Z force, node 3, N
         79    0.000000000000E+000                                                     F               0         ED Tower X moment, node 1, Nm
         80    0.000000000000E+000                                                     F               0         ED Tower Y moment, node 1, Nm
         81    0.000000000000E+000                                                     F               0         ED Tower Z moment, node 1, Nm
         82    0.000000000000E+000                                                     F               0         ED Tower X moment, node 2, Nm
         83    0.000000000000E+000                                                     F               0         ED Tower Y moment, node 2, Nm
         84    0.000000000000E+000                                                     F               0         ED Tower Z moment, node 2, Nm
         85    0.000000000000E+000                                                     F               0         ED Tower X moment, node 3, Nm
         86    0.000000000000E+000                                                     F               0         ED Tower Y moment, node 3, Nm
         87    0.000000000000E+000                                                     F               0         ED Tower Z moment, node 3, Nm
         88    0.000000000000E+000                                                     F               0         ED Hub X force, node 1, N
         89    0.000000000000E+000                                                     F               0         ED Hub Y force, node 1, N
         90    0.000000000000E+000                                                     F               0         ED Hub Z force, node 1, N
         91    0.000000000000E+000                                                     F               0         ED Hub X moment, node 1, Nm
         92    0.000000000000E+000                                                     F               0         ED Hub Y moment, node 1, Nm
         93    0.000000000000E+000                                                     F               0         ED Hub Z moment, node 1, Nm
         94    0.000000000000E+000                                                     F               0         ED Nacelle X force, node 1, N
         95    0.000000000000E+000                                                     F               0         ED Nacelle Y force, node 1, N
         96    0.000000000000E+000                                                     F               0         ED Nacelle Z force, node 1, N
         97    0.000000000000E+000                                                     F               0         ED Nacelle X moment, node 1, Nm
         98    0.000000000000E+000                                                     F               0         ED Nacelle Y moment, node 1, Nm
         99    0.000000000000E+000                                                     F               0         ED Nacelle Z moment, node 1, Nm
        100    0.000000000000E+000                                                     T               0         ED Blade 1 pitch command, rad
        101    0.000000000000E+000                                                     T               0         ED Blade 2 pitch command, rad
        102    0.000000000000E+000                                                     T               0         ED Blade 3 pitch command, rad
        103    0.000000000000E+000                                                     F               0         ED Yaw moment, Nm
        104    0.000000000000E+000                                                     F               0         ED Generator torque, Nm
        105    0.000000000000E+000                                                     F               0         ED Extended input: collective blade-pitch command, rad
        106    0.000000000000E+000                                                     F               0         AD Hub X translation displacement, node 1, m
        107    0.000000000000E+000                                                     F               0         AD Hub Y translation displacement, node 1, m
        108    0.000000000000E+000                                                     F               0         AD Hub Z translation displacement, node 1, m
        109    9.961946980917E-001,  0.000000000000E+000, -8.715574274766E-002         F               0         AD Hub X orientation angle, node 1, rad
        110    8.579441458219E-002,  1.760539961798E-001,  9.806346459592E-001         F               0         AD Hub Y orientation angle, node 1, rad
        111    1.534411680074E-002, -9.843805109962E-001,  1.753840575722E-001         F               0         AD Hub Z orientation angle, node 1, rad
        112    1.262287304512E+000                                                     F               0         AD Hub X rotation velocity, node 1, rad/s
        113   -0.000000000000E+000                                                     F               0         AD Hub Y rotation velocity, node 1, rad/s
        114   -1.104358292575E-001                                                     F               0         AD Hub Z rotation velocity, node 1, rad/s
        115    9.959158424523E-001, -4.293807482403E-002, -7.942264464775E-002         F               0         AD Blade root 1 X orientation angle, node 1, rad
        116    8.579441458219E-002,  1.760539961798E-001,  9.806346459592E-001         F               0         AD Blade root 1 Y orientation angle, node 1, rad
        117   -2.812388982583E-002, -9.834435988706E-001,  1.790188109153E-001         F               0         AD Blade root 1 Z orientation angle, node 1, rad
        118    9.916709642922E-001,  1.481851010962E-002, -1.279418240368E-001         F               0         AD Blade root 2 X orientation angle, node 1, rad
        119   -2.960881234302E-002, -9.405255276029E-001, -3.384302737033E-001         F               0         AD Blade root 2 Y orientation angle, node 1, rad
        120   -1.253475839870E-001,  3.393996813278E-001, -9.322530984144E-001         F               0         AD Blade root 2 Z orientation angle, node 1, rad
        121    9.981528176889E-001,  2.811956471441E-002, -5.385390069351E-002         F               0         AD Blade root 3 X orientation angle, node 1, rad
        122   -5.618560223918E-002,  7.644715314231E-001, -6.422043722559E-001         F               0         AD Blade root 3 Y orientation angle, node 1, rad
        123    2.311126653075E-002,  6.440439175428E-001,  7.646393278111E-001         F               0         AD Blade root 3 Z orientation angle, node 1, rad
        124   -1.076149157867E-001                                                     F               0         AD Blade 1 X translation displacement, node 1, m
        125   -1.475165398306E+000                                                     F               0         AD Blade 1 Y translation displacement, node 1, m
        126   -1.230044116000E+000                                                     F               0         AD Blade 1 Z translation displacement, node 1, m
        127   -1.292504521048E+000                                                     F               0         AD Blade 1 X translation displacement, node 2, m
        128   -2.324736265179E+001                                                     F               0         AD Blade 1 Y translation displacement, node 2, m
        129   -2.037945448494E+001                                                     F               0         AD Blade 1 Z translation displacement, node 2, m
        130   -8.306028719736E-001                                                     F               0         AD Blade 1 X translation displacement, node 3, m
        131   -4.356927640411E+001                                                     F               0         AD Blade 1 Y translation displacement, node 3, m
        132   -3.752262947815E+001                                                     F               0         AD Blade 1 Z translation displacement, node 3, m
        133    1.453653296789E+000                                                     F               0         AD Blade 1 X translation displacement, node 4, m
        134   -6.175275351993E+001                                                     F               0         AD Blade 1 Y translation displacement, node 4, m
        135   -5.320176325985E+001                                                     F               0         AD Blade 1 Z translation displacement, node 4, m
        136    9.494236174756E-001, -8.231014525657E-002, -3.030178782967E-001         F               0         AD Blade 1 X orientation angle, node 1, rad
        137    3.127360570843E-001,  1.614426456309E-001,  9.360194606797E-001         F               0         AD Blade 1 Y orientation angle, node 1, rad
        138   -2.812388982583E-002, -9.834435988706E-001,  1.790188109153E-001         F               0         AD Blade 1 Z orientation angle, node 1, rad
        139    9.701641642449E-001, -1.172914366398E-002, -2.421650709823E-001         F               0         AD Blade 1 X orientation angle, node 2, rad
        140    2.406989796374E-001,  1.663872805033E-001,  9.562318098078E-001         F               0         AD Blade 1 Y orientation angle, node 2, rad
        141    2.907740732034E-002, -9.859907200758E-001,  1.642461698424E-001         F               0         AD Blade 1 Z orientation angle, node 2, rad
        142    9.830585914637E-001,  9.435711454824E-002, -1.571386034162E-001         F               0         AD Blade 1 X orientation angle, node 3, rad
        143    1.403704664423E-001,  1.637237287100E-001,  9.764684699508E-001         F               0         AD Blade 1 Y orientation angle, node 3, rad
        144    1.178640653475E-001, -9.819833377361E-001,  1.477050659536E-001         F               0         AD Blade 1 Z orientation angle, node 3, rad
        145    9.729249114790E-001,  1.977089276155E-001, -1.197008628403E-001         F               0         AD Blade 1 X orientation angle, node 4, rad
        146    8.968204875923E-002,  1.543865275288E-001,  9.839318727676E-001         F               0         AD Blade 1 Y orientation angle, node 4, rad
        147    2.130123159677E-001, -9.680268488315E-001,  1.324755569430E-001         F               0         AD Blade 1 Z orientation angle, node 4, rad
        148   -1.629111140538E-001                                                     F               0         AD Blade 1 X translation velocity, node 1, m/s
        149   -3.343009307885E-001                                                     F               0         AD Blade 1 Y translation velocity, node 1, m/s
        150   -1.862082554336E+000                                                     F               0         AD Blade 1 Z translation velocity, node 1, m/s
        151   -3.144646455813E+000                                                     F               0         AD Blade 1 X translation velocity, node 2, m/s
        152   -4.545179638535E+000                                                     F               0         AD Blade 1 Y translation velocity, node 2, m/s
        153   -2.984683125320E+001                                                     F               0         AD Blade 1 Z translation velocity, node 2, m/s