
Linearized model: Predictions were generated on 11-Mar-2026 at 17:04:02 using OpenFAST, compiled on Mar 11 2026 at 16:48:05 as a 64-bit application using double precision at commit -128-NOTFOUND
 linked with  NWTC Subroutine Library; ElastoDyn; InflowWind; AeroDyn

Description from the FAST input file: Three blades, 4 aero-stations, Linearization with continuous-state aerodynamic modules

Simulation information:
   Simulation time:                     1.1000 s
   Rotor Speed:                         1.2671 rad/s
   Azimuth:                             1.3938 rad
   Wind Speed:                         13.0000 m/s
   Number of continuous states:         6
   Number of discrete states:           0
   Number of constraint states:         0
   Number of inputs:                  105
   Number of outputs:                   4
   Jacobians included in this file?    No

Order of continuous states:
   Row/Column Operating Point                                                   Rotating Frame? Derivative Order Description
   ---------- ---------------                                                   --------------- ---------------- -----------
          1    5.876125679412E+000                                                     T               2         1st flapwise bending-mode DOF of blade 1 (internal DOF index = DOF_BF(1,1)), m
          2    4.770612632331E+000                                                     T               2         1st flapwise bending-mode DOF of blade 2 (internal DOF index = DOF_BF(2,1)), m
          3    5.314182083548E+000                                                     T               2         1st flapwise bending-mode DOF of blade 3 (internal DOF index = DOF_BF(3,1)), m
          4   -6.420238583848E+000                                                     T               2         First time derivative of 1st flapwise bending-mode DOF of blade 1 (internal DOF index = DOF_BF(1,1)), m/s
          5   -6.962388994760E+000                                                     T               2         First time derivative of 1st flapwise bending-mode DOF of blade 2 (internal DOF index = DOF_BF(2,1)), m/s
          6   -5.047635330067E+000                                                     T               2         First time derivative of 1st flapwise bending-mode DOF of blade 3 (internal DOF index = DOF_BF(3,1)), m/s

Order of continuous state derivatives:
   Row/Column Operating Point                                                   Rotating Frame? Derivative Order Description
   ---------- ---------------                                                   --------------- ---------------- -----------
          1   -6.420238583848E+000                                                     T               2         First time derivative of 1st flapwise bending-mode DOF of blade 1 (internal DOF index = DOF_BF(1,1)), m/s
          2   -6.962388994760E+000                                                     T               2         First time derivative of 1st flapwise bending-mode DOF of blade 2 (internal DOF index = DOF_BF(2,1)), m/s
          3   -5.047635330067E+000                                                     T               2         First time derivative of 1st flapwise bending-mode DOF of blade 3 (internal DOF index = DOF_BF(3,1)), m/s
          4   -6.226009857179E+000                                                     T               2         First time derivative of First time derivative of 1st flapwise bending-mode DOF of blade 1 (internal DOF index = DOF_BF(1,1)), m/s/s
          5   -8.185158821072E-001                                                     T               2         First time derivative of First time derivative of 1st flapwise bending-mode DOF of blade 2 (internal DOF index = DOF_BF(2,1)), m/s/s
          6   -3.961341758449E+000                                                     T               2         First time derivative of First time derivative of 1st flapwise bending-mode DOF of blade 3 (internal DOF index = DOF_BF(3,1)), m/s/s

Order of inputs:
     Column   Operating Point                                                   Rotating Frame? Derivative Order Description
   ---------- ---------------                                                   --------------- ---------------- -----------
          1    2.341063139505E+004                                                     F               0         Blade 1 X force, node 1, N
          2   -9.811043590686E+002                                                     F               0         Blade 1 Y force, node 1, N
          3   -9.562855330720E+003                                                     F               0         Blade 1 Z force, node 1, N
          4    9.839234512754E+004                                                     F               0         Blade 1 X force, node 2, N
          5    9.336994813543E+002                                                     F               0         Blade 1 Y force, node 2, N
          6   -3.624109700041E+004                                                     F               0         Blade 1 Z force, node 2, N
          7    1.469377834008E+005                                                     F               0         Blade 1 X force, node 3, N
          8    1.266732240882E+004                                                     F               0         Blade 1 Y force, node 3, N
          9   -4.274228627129E+004                                                     F               0         Blade 1 Z force, node 3, N
         10    1.636843376520E+004                                                     F               0         Blade 1 X moment, node 1, Nm
         11    8.969572040842E+003                                                     F               0         Blade 1 Y moment, node 1, Nm
         12    3.779278483993E+004                                                     F               0         Blade 1 Z moment, node 1, Nm
         13   -9.076122401915E+004                                                     F               0         Blade 1 X moment, node 2, Nm
         14   -4.918979768272E+004                                                     F               0         Blade 1 Y moment, node 2, Nm
         15   -1.861437014501E+005                                                     F               0         Blade 1 Z moment, node 2, Nm
         16   -2.175836345883E+005                                                     F               0         Blade 1 X moment, node 3, Nm
         17   -1.339006116826E+005                                                     F               0         Blade 1 Y moment, node 3, Nm
         18   -6.280485823557E+005                                                     F               0         Blade 1 Z moment, node 3, Nm
         19    2.268540573509E+004                                                     F               0         Blade 2 X force, node 1, N
         20    6.643995296493E+003                                                     F               0         Blade 2 Y force, node 1, N
         21    5.103268951176E+002                                                     F               0         Blade 2 Z force, node 1, N
         22    9.357850295119E+004                                                     F               0         Blade 2 X force, node 2, N
         23    2.156800672591E+004                                                     F               0         Blade 2 Y force, node 2, N
         24    3.326515202344E+003                                                     F               0         Blade 2 Z force, node 2, N
         25    1.382372352858E+005                                                     F               0         Blade 2 X force, node 3, N
         26    1.733473068316E+004                                                     F               0         Blade 2 Y force, node 3, N
         27    7.068514065281E+003                                                     F               0         Blade 2 Z force, node 3, N
         28    1.086792244312E+004                                                     F               0         Blade 2 X moment, node 1, Nm
         29   -3.570505453366E+004                                                     F               0         Blade 2 Y moment, node 1, Nm
         30   -1.225735369015E+004                                                     F               0         Blade 2 Z moment, node 1, Nm
         31   -6.698545119272E+004                                                     F               0         Blade 2 X moment, node 2, Nm
         32    1.826700434335E+005                                                     F               0         Blade 2 Y moment, node 2, Nm
         33    5.856365186636E+004                                                     F               0         Blade 2 Z moment, node 2, Nm
         34   -1.213689189673E+005                                                     F               0         Blade 2 X moment, node 3, Nm
         35    5.561638311897E+005                                                     F               0         Blade 2 Y moment, node 3, Nm
         36    2.000721414727E+005                                                     F               0         Blade 2 Z moment, node 3, Nm
         37    2.505258027725E+004                                                     F               0         Blade 3 X force, node 1, N
         38   -6.463325647172E+003                                                     F               0         Blade 3 Y force, node 1, N
         39    2.988024034497E+003                                                     F               0         Blade 3 Z force, node 1, N
         40    1.024075003386E+005                                                     F               0         Blade 3 X force, node 2, N
         41   -2.491418347478E+004                                                     F               0         Blade 3 Y force, node 2, N
         42    5.943844254514E+003                                                     F               0         Blade 3 Z force, node 2, N
         43    1.471679822323E+005                                                     F               0         Blade 3 X force, node 3, N
         44   -3.095518791623E+004                                                     F               0         Blade 3 Y force, node 3, N
         45   -6.386483134792E+003                                                     F               0         Blade 3 Z force, node 3, N
         46    1.137560564394E+004                                                     F               0         Blade 3 X moment, node 1, Nm
         47    3.078978558216E+004                                                     F               0         Blade 3 Y moment, node 1, Nm
         48   -2.811065180356E+004                                                     F               0         Blade 3 Z moment, node 1, Nm
         49   -6.903493498714E+004                                                     F               0         Blade 3 X moment, node 2, Nm
         50   -1.480501781473E+005                                                     F               0         Blade 3 Y moment, node 2, Nm
         51    1.541213558664E+005                                                     F               0         Blade 3 Z moment, node 2, Nm
         52   -1.288240709967E+005                                                     F               0         Blade 3 X moment, node 3, Nm
         53   -4.838707748311E+005                                                     F               0         Blade 3 Y moment, node 3, Nm
         54    4.458123105140E+005                                                     F               0         Blade 3 Z moment, node 3, Nm
         55    0.000000000000E+000                                                     F               0         Platform X force, node 1, N
         56    0.000000000000E+000                                                     F               0         Platform Y force, node 1, N
         57    0.000000000000E+000                                                     F               0         Platform Z force, node 1, N
         58    0.000000000000E+000                                                     F               0         Platform X moment, node 1, Nm
         59    0.000000000000E+000                                                     F               0         Platform Y moment, node 1, Nm
         60    0.000000000000E+000                                                     F               0         Platform Z moment, node 1, Nm
         61    0.000000000000E+000                                                     F               0         Tower X force, node 1, N
         62    0.000000000000E+000                                                     F               0         Tower Y force, node 1, N
         63    0.000000000000E+000                                                     F               0         Tower Z force, node 1, N
         64    0.000000000000E+000                                                     F               0         Tower X force, node 2, N
         65    0.000000000000E+000                                                     F               0         Tower Y force, node 2, N
         66    0.000000000000E+000                                                     F               0         Tower Z force, node 2, N
         67    0.000000000000E+000                                                     F               0         Tower X force, node 3, N
         68    0.000000000000E+000                                                     F               0         Tower Y force, node 3, N
         69    0.000000000000E+000                                                     F               0         Tower Z force, node 3, N
         70    0.000000000000E+000                                                     F               0         Tower X moment, node 1, Nm
         71    0.000000000000E+000                                                     F               0         Tower Y moment, node 1, Nm
         72    0.000000000000E+000                                                     F               0         Tower Z moment, node 1, Nm
         73    0.000000000000E+000                                                     F               0         Tower X moment, node 2, Nm
         74    0.000000000000E+000                                                     F               0         Tower Y moment, node 2, Nm
         75    0.000000000000E+000                                                     F               0         Tower Z moment, node 2, Nm
         76    0.000000000000E+000                                                     F               0         Tower X moment, node 3, Nm
         77    0.000000000000E+000                                                     F               0         Tower Y moment, node 3, Nm
         78    0.000000000000E+000                                                     F               0         Tower Z moment, node 3, Nm
         79    0.000000000000E+000                                                     F               0         Hub X force, node 1, N
         80    0.000000000000E+000                                                     F               0         Hub Y force, node 1, N
         81    0.000000000000E+000                                                     F               0         Hub Z force, node 1, N
         82    0.000000000000E+000                                                     F               0         Hub X moment, node 1, Nm
         83    0.000000000000E+000                                                     F               0         Hub Y moment, node 1, Nm
         84    0.000000000000E+000                                                     F               0         Hub Z moment, node 1, Nm
         85    0.000000000000E+000                                                     F               0         Nacelle X force, node 1, N
         86    0.000000000000E+000                                                     F               0         Nacelle Y force, node 1, N
         87    0.000000000000E+000                                                     F               0         Nacelle Z force, node 1, N
         88    0.000000000000E+000                                                     F               0         Nacelle X moment, node 1, Nm
         89    0.000000000000E+000                                                     F               0         Nacelle Y moment, node 1, Nm
         90    0.000000000000E+000                                                     F               0         Nacelle Z moment, node 1, Nm
         91    0.000000000000E+000                                                     F               0         Tailfin X force, node 1, N
         92    0.000000000000E+000                                                     F               0         Tailfin Y force, node 1, N
         93    0.000000000000E+000                                                     F               0         Tailfin Z force, node 1, N
         94    0.000000000000E+000                                                     F               0         Tailfin X moment, node 1, Nm
         95    0.000000000000E+000                                                     F               0         Tailfin Y moment, node 1, Nm
         96    0.000000000000E+000                                                     F               0         Tailfin Z moment, node 1, Nm
         97    0.000000000000E+000                                                     T               0         Blade 1 pitch command, rad
         98    0.000000000000E+000                                                     T               0         Blade 2 pitch command, rad
         99    0.000000000000E+000                                                     T               0         Blade 3 pitch command, rad
        100    0.000000000000E+000                                                     T               0         Blade 1 pitch moment, Nm
        101    0.000000000000E+000                                                     T               0         Blade 2 pitch moment, Nm
        102    0.000000000000E+000                                                     T               0         Blade 3 pitch moment, Nm
        103    0.000000000000E+000                                                     F               0         Yaw moment, Nm
        104    0.000000000000E+000                                                     F               0         Generator torque, Nm
        105    0.000000000000E+000                                                     F               0         Extended input: collective blade-pitch command, rad

Order of outputs:
        Row   Operating Point                                                   Rotating Frame? Derivative Order Description
   ---------- ---------------                                                   --------------- ---------------- -----------
          1    7.986000000000E+001                                                     F               0         Azimuth, (deg)
          2    1.210000000000E+001                                                     F               0         RotSpeed, (rpm)
          3    8.304206467748E+002                                                     F               0         TwrBsFxt, (kN)
          4    7.452553712611E+004                                                     F               0         TwrBsMyt, (kN-m)


Linearized state matrices:

A: 6 x 6
    0.000000000000E+000  0.000000000000E+000  0.000000000000E+000  1.000000000000E+000  0.000000000000E+000  0.000000000000E+000
    0.000000000000E+000  0.000000000000E+000  0.000000000000E+000  0.000000000000E+000  1.000000000000E+000  0.000000000000E+000
    0.000000000000E+000  0.000000000000E+000  0.000000000000E+000  0.000000000000E+000  0.000000000000E+000  1.000000000000E+000
   -1.597573267443E+001  0.000000000000E+000  0.000000000000E+000  2.310126483565E-003  0.000000000000E+000  0.000000000000E+000
    0.000000000000E+000 -1.656083067199E+001  0.000000000000E+000  0.000000000000E+000 -1.489929949523E-003  0.000000000000E+000
    0.000000000000E+000  0.000000000000E+000 -1.585710287135E+001  0.000000000000E+000  0.000000000000E+000 -6.873567082031E-003
B: 6 x 105
    0.000000000000E+000  0.000000000000E+000  0.000000000000E+000  0.000000000000E+000  0.000000000000E+000  0.000000000000E+000  0.000000000000E+000  0.000000000000E+000  0.000000000000E+000  0.000000000000E+000  0.000000000000E+000  0.000000000000E+000  0.000000000000E+000  0.000000000000E+000  0.000000000000E+000  0.000000000000E+000  0.000000000000E+000  0.000000000000E+000  0.000000000000E+000  0.000000000000E+000  0.000000000000E+000  0.000000000000E+000  0.000000000000E+000  0.000000000000E+000  0.000000000000E+000  0.000000000000E+000  0.000000000000E+000  0.000000000000E+000  0.000000000000E+000  0.000000000000E+000  0.000000000000E+000  0.000000000000E+000  0.000000000000E+000  0.000000000000E+000  0.000000000000E+000  0.000000000000E+000  0.000000000000E+000  0.000000000000E+000  0.000000000000E+000  0.000000000000E+000  0.000000000000E+000  0.000000000000E+000  0.000000000000E+000  0.000000000000E+000  0.000000000000E+000  0.000000000000E+000  0.000000000000E+000  0.000000000000E+000  0.000000000000E+000  0.000000000000E+000  0.000000000000E+000  0.000000000000E+000  0.000000000000E+000  0.000000000000E+000  0.000000000000E+000  0.000000000000E+000  0.000000000000E+000  0.000000000000E+000  0.000000000000E+000  0.000000000000E+000  0.000000000000E+000  0.000000000000E+000  0.000000000000E+000  0.000000000000E+000  0.000000000000E+000  0.000000000000E+000  0.000000000000E+000  0.000000000000E+000  0.000000000000E+000  0.000000000000E+000  0.000000000000E+000  0.000000000000E+000  0.000000000000E+000  0.000000000000E+000  0.000000000000E+000  0.000000000000E+000  0.000000000000E+000  0.000000000000E+000  0.000000000000E+000  0.000000000000E+000  0.000000000000E+000  0.000000000000E+000  0.000000000000E+000  0.000000000000E+000  0.000000000000E+000  0.000000000000E+000  0.000000000000E+000  0.000000000000E+000  0.000000000000E+000  0.000000000000E+000  0.000000000000E+000  0.000000000000E+000  0.000000000000E+000  0.000000000000E+000  0.000000000000E+000  0.000000000000E+000  0.000000000000E+000  0.000000000000E+000  0.000000000000E+000  0.000000000000E+000  0.000000000000E+000  0.000000000000E+000  0.000000000000E+000  0.000000000000E+000  0.000000000000E+000
    0.000000000000E+000  0.000000000000E+000  0.000000000000E+000  0.000000000000E+000  0.000000000000E+000  0.000000000000E+000  0.000000000000E+000  0.000000000000E+000  0.000000000000E+000  0.000000000000E+000  0.000000000000E+000  0.000000000000E+000  0.000000000000E+000  0.000000000000E+000  0.000000000000E+000  0.000000000000E+000  0.000000000000E+000  0.000000000000E+000  0.000000000000E+000  0.000000000000E+000  0.000000000000E+000  0.000000000000E+000  0.000000000000E+000  0.000000000000E+000  0.000000000000E+000  0.000000000000E+000  0.000000000000E+000  0.000000000000E+000  0.000000000000E+000  0.000000000000E+000  0.000000000000E+000  0.000000000000E+000  0.000000000000E+000  0.000000000000E+000  0.000000000000E+000  0.000000000000E+000  0.000000000000E+000  0.000000000000E+000  0.000000000000E+000  0.000000000000E+000  0.000000000000E+000  0.000000000000E+000  0.000000000000E+000  0.000000000000E+000  0.000000000000E+000  0.000000000000E+000  0.000000000000E+000  0.000000000000E+000  0.000000000000E+000  0.000000000000E+000  0.000000000000E+000  0.000000000000E+000  0.000000000000E+000  0.000000000000E+000  0.000000000000E+000  0.000000000000E+000  0.000000000000E+000  0.000000000000E+000  0.000000000000E+000  0.000000000000E+000  0.000000000000E+000  0.000000000000E+000  0.000000000000E+000  0.000000000000E+000  0.000000000000E+000  0.000000000000E+000  0.000000000000E+000  0.000000000000E+000  0.000000000000E+000  0.000000000000E+000  0.000000000000E+000  0.000000000000E+000  0.000000000000E+000  0.000000000000E+000  0.000000000000E+000  0.000000000000E+000  0.000000000000E+000  0.000000000000E+000  0.000000000000E+000  0.000000000000E+000  0.000000000000E+000  0.000000000000E+000  0.000000000000E+000  0.000000000000E+000  0.000000000000E+000  0.000000000000E+000  0.000000000000E+000  0.000000000000E+000  0.000000000000E+000  0.000000000000E+000  0.000000000000E+000  0.000000000000E+000  0.000000000000E+000  0.000000000000E+000  0.000000000000E+000  0.000000000000E+000  0.000000000000E+000  0.000000000000E+000  0.000000000000E+000  0.000000000000E+000  0.000000000000E+000  0.000000000000E+000  0.000000000000E+000  0.000000000000E+000  0.000000000000E+000
    0.000000000000E+000  0.000000000000E+000  0.000000000000E+000  0.000000000000E+000  0.000000000000E+000  0.000000000000E+000  0.000000000000E+000  0.000000000000E+000  0.000000000000E+000  0.000000000000E+000  0.000000000000E+000  0.000000000000E+000  0.000000000000E+000  0.000000000000E+000  0.000000000000E+000  0.000000000000E+000  0.000000000000E+000  0.000000000000E+000  0.000000000000E+000  0.000000000000E+000  0.000000000000E+000  0.000000000000E+000  0.000000000000E+000  0.000000000000E+000  0.000000000000E+000  0.000000000000E+000  0.000000000000E+000  0.000000000000E+000  0.000000000000E+000  0.000000000000E+000  0.000000000000E+000  0.000000000000E+000  0.000000000000E+000  0.000000000000E+000  0.000000000000E+000  0.000000000000E+000  0.000000000000E+000  0.000000000000E+000  0.000000000000E+000  0.000000000000E+000  0.000000000000E+000  0.000000000000E+000  0.000000000000E+000  0.000000000000E+000  0.000000000000E+000  0.000000000000E+000  0.000000000000E+000  0.000000000000E+000  0.000000000000E+000  0.000000000000E+000  0.000000000000E+000  0.000000000000E+000  0.000000000000E+000  0.000000000000E+000  0.000000000000E+000  0.000000000000E+000  0.000000000000E+000  0.000000000000E+000  0.000000000000E+000  0.000000000000E+000  0.000000000000E+000  0.000000000000E+000  0.000000000000E+000  0.000000000000E+000  0.000000000000E+000  0.000000000000E+000  0.000000000000E+000  0.000000000000E+000  0.000000000000E+000  0.000000000000E+000  0.000000000000E+000  0.000000000000E+000  0.000000000000E+000  0.000000000000E+000  0.000000000000E+000  0.000000000000E+000  0.000000000000E+000  0.000000000000E+000  0.000000000000E+000  0.000000000000E+000  0.000000000000E+000  0.000000000000E+000  0.000000000000E+000  0.000000000000E+000  0.000000000000E+000  0.000000000000E+000  0.000000000000E+000  0.000000000000E+000  0.000000000000E+000  0.000000000000E+000  0.000000000000E+000  0.000000000000E+000  0.000000000000E+000  0.000000000000E+000  0.000000000000E+000  0.000000000000E+000  0.000000000000E+000  0.000000000000E+000  0.000000000000E+000  0.000000000000E+000  0.000000000000E+000  0.000000000000E+000  0.000000000000E+000  0.000000000000E+000  0.000000000000E+000
    2.219850841091E-005 -1.501289016216E-006 -7.155086773090E-006  1.509942657051E-004 -1.507198915391E-006 -4.222564956983E-005  5.002626721084E-004  3.149900849103E-005 -1.247036107984E-004  7.127203181341E-007  3.680704105082E-007  2.133971032982E-006  2.652253191561E-006  1.785153265346E-006  1.022344645794E-005  4.684692273361E-006  4.088604169771E-006  2.319679896883E-005  0.000000000000E+000  0.000000000000E+000  0.000000000000E+000  0.000000000000E+000  0.000000000000E+000  0.000000000000E+000  0.000000000000E+000  0.000000000000E+000  0.000000000000E+000  0.000000000000E+000  0.000000000000E+000  0.000000000000E+000  0.000000000000E+000  0.000000000000E+000  0.000000000000E+000  0.000000000000E+000  0.000000000000E+000  0.000000000000E+000  0.000000000000E+000  0.000000000000E+000  0.000000000000E+000  0.000000000000E+000  0.000000000000E+000  0.000000000000E+000  0.000000000000E+000  0.000000000000E+000  0.000000000000E+000  0.000000000000E+000  0.000000000000E+000  0.000000000000E+000  0.000000000000E+000  0.000000000000E+000  0.000000000000E+000  0.000000000000E+000  0.000000000000E+000  0.000000000000E+000  0.000000000000E+000  0.000000000000E+000  0.000000000000E+000  0.000000000000E+000  0.000000000000E+000  0.000000000000E+000  0.000000000000E+000  0.000000000000E+000  0.000000000000E+000  0.000000000000E+000  0.000000000000E+000  0.000000000000E+000  0.000000000000E+000  0.000000000000E+000  0.000000000000E+000  0.000000000000E+000  0.000000000000E+000  0.000000000000E+000  0.000000000000E+000  0.000000000000E+000  0.000000000000E+000  0.000000000000E+000  0.000000000000E+000  0.000000000000E+000  0.000000000000E+000  0.000000000000E+000  0.000000000000E+000  0.000000000000E+000  0.000000000000E+000  0.000000000000E+000  0.000000000000E+000  0.000000000000E+000  0.000000000000E+000  0.000000000000E+000  0.000000000000E+000  0.000000000000E+000  0.000000000000E+000  0.000000000000E+000  0.000000000000E+000  0.000000000000E+000  0.000000000000E+000  0.000000000000E+000  2.396915312637E+001  0.000000000000E+000  0.000000000000E+000  0.000000000000E+000  0.000000000000E+000  0.000000000000E+000  0.000000000000E+000  0.000000000000E+000  2.396915312637E+001