
Linearized model: Predictions were generated on 11-Mar-2026 at 17:04:02 using OpenFAST, compiled on Mar 11 2026 at 16:48:05 as a 64-bit application using double precision at commit -128-NOTFOUND
 linked with  NWTC Subroutine Library; ElastoDyn; InflowWind; AeroDyn

Description from the FAST input file: Three blades, 4 aero-stations, Linearization with continuous-state aerodynamic modules

Simulation information:
   Simulation time:                     1.1000 s
   Rotor Speed:                         1.2671 rad/s
   Azimuth:                             1.3938 rad
   Wind Speed:                         13.0000 m/s
   Number of continuous states:        15
   Number of discrete states:           0
   Number of constraint states:         0
   Number of inputs:                  363
   Number of outputs:                  20
   Jacobians included in this file?    No

Order of continuous states:
   Row/Column Operating Point                                                   Rotating Frame? Derivative Order Description
   ---------- ---------------                                                   --------------- ---------------- -----------
          1    5.876125679412E+000                                                     T               2         ED 1st flapwise bending-mode DOF of blade 1 (internal DOF index = DOF_BF(1,1)), m
          2    4.770612632331E+000                                                     T               2         ED 1st flapwise bending-mode DOF of blade 2 (internal DOF index = DOF_BF(2,1)), m
          3    5.314182083548E+000                                                     T               2         ED 1st flapwise bending-mode DOF of blade 3 (internal DOF index = DOF_BF(3,1)), m
          4   -6.420238583848E+000                                                     T               2         ED First time derivative of 1st flapwise bending-mode DOF of blade 1 (internal DOF index = DOF_BF(1,1)), m/s
          5   -6.962388994760E+000                                                     T               2         ED First time derivative of 1st flapwise bending-mode DOF of blade 2 (internal DOF index = DOF_BF(2,1)), m/s
          6   -5.047635330067E+000                                                     T               2         ED First time derivative of 1st flapwise bending-mode DOF of blade 3 (internal DOF index = DOF_BF(3,1)), m/s
          7    5.094357755592E-001                                                     T               1         AD x4 blade 1, node 2, -
          8    5.648199979972E-001                                                     T               1         AD x4 blade 1, node 3, -
          9    5.178594012399E-001                                                     T               1         AD x4 blade 1, node 4, -
         10    5.614634515791E-001                                                     T               1         AD x4 blade 2, node 2, -
         11    5.788426909335E-001                                                     T               1         AD x4 blade 2, node 3, -
         12    5.193298950913E-001                                                     T               1         AD x4 blade 2, node 4, -
         13    5.113634631249E-001                                                     T               1         AD x4 blade 3, node 2, -
         14    5.721188850144E-001                                                     T               1         AD x4 blade 3, node 3, -
         15    5.192341690291E-001                                                     T               1         AD x4 blade 3, node 4, -

Order of continuous state derivatives:
   Row/Column Operating Point                                                   Rotating Frame? Derivative Order Description
   ---------- ---------------                                                   --------------- ---------------- -----------
          1   -6.420238583848E+000                                                     T               2         First time derivative of ED 1st flapwise bending-mode DOF of blade 1 (internal DOF index = DOF_BF(1,1)), m/s
          2   -6.962388994760E+000                                                     T               2         First time derivative of ED 1st flapwise bending-mode DOF of blade 2 (internal DOF index = DOF_BF(2,1)), m/s
          3   -5.047635330067E+000                                                     T               2         First time derivative of ED 1st flapwise bending-mode DOF of blade 3 (internal DOF index = DOF_BF(3,1)), m/s
          4   -6.226009857179E+000                                                     T               2         First time derivative of ED First time derivative of 1st flapwise bending-mode DOF of blade 1 (internal DOF index = DOF_BF(1,1)), m/s/s
          5   -8.185158821072E-001                                                     T               2         First time derivative of ED First time derivative of 1st flapwise bending-mode DOF of blade 2 (internal DOF index = DOF_BF(2,1)), m/s/s
          6   -3.961341758449E+000                                                     T               2         First time derivative of ED First time derivative of 1st flapwise bending-mode DOF of blade 3 (internal DOF index = DOF_BF(3,1)), m/s/s
          7   -1.169746221159E-003                                                     T               1         First time derivative of AD x4 blade 1, node 2, -/s
          8   -7.836184353425E-002                                                     T               1         First time derivative of AD x4 blade 1, node 3, -/s
          9    3.259801174897E-003                                                     T               1         First time derivative of AD x4 blade 1, node 4, -/s
         10   -2.575061113444E-002                                                     T               1         First time derivative of AD x4 blade 2, node 2, -/s
         11   -6.050750034322E-002                                                     T               1         First time derivative of AD x4 blade 2, node 3, -/s
         12    3.628234773646E-003                                                     T               1         First time derivative of AD x4 blade 2, node 4, -/s
         13   -4.340880376952E-002                                                     T               1         First time derivative of AD x4 blade 3, node 2, -/s
         14   -1.090451859170E-001                                                     T               1         First time derivative of AD x4 blade 3, node 3, -/s
         15    1.858801379662E-003                                                     T               1         First time derivative of AD x4 blade 3, node 4, -/s

Order of inputs:
     Column   Operating Point                                                   Rotating Frame? Derivative Order Description
   ---------- ---------------                                                   --------------- ---------------- -----------
          1    1.300000000000E+001                                                     F               0         IfW Extended input: horizontal wind speed (steady/uniform wind) (hub), m/s
          2    2.000000000000E-001                                                     F               0         IfW Extended input: vertical power-law shear exponent (hub), -
          3    0.000000000000E+000                                                     F               0         IfW Extended input: propagation direction (hub), rad
          4    2.341063139505E+004                                                     F               0         ED Blade 1 X force, node 1, N
          5   -9.811043590686E+002                                                     F               0         ED Blade 1 Y force, node 1, N
          6   -9.562855330720E+003                                                     F               0         ED Blade 1 Z force, node 1, N
          7    9.839234512754E+004                                                     F               0         ED Blade 1 X force, node 2, N
          8    9.336994813543E+002                                                     F               0         ED Blade 1 Y force, node 2, N
          9   -3.624109700041E+004                                                     F               0         ED Blade 1 Z force, node 2, N
         10    1.469377834008E+005                                                     F               0         ED Blade 1 X force, node 3, N
         11    1.266732240882E+004                                                     F               0         ED Blade 1 Y force, node 3, N
         12   -4.274228627129E+004                                                     F               0         ED Blade 1 Z force, node 3, N
         13    1.636843376520E+004                                                     F               0         ED Blade 1 X moment, node 1, Nm
         14    8.969572040842E+003                                                     F               0         ED Blade 1 Y moment, node 1, Nm
         15    3.779278483993E+004                                                     F               0         ED Blade 1 Z moment, node 1, Nm
         16   -9.076122401915E+004                                                     F               0         ED Blade 1 X moment, node 2, Nm
         17   -4.918979768272E+004                                                     F               0         ED Blade 1 Y moment, node 2, Nm
         18   -1.861437014501E+005                                                     F               0         ED Blade 1 Z moment, node 2, Nm
         19   -2.175836345883E+005                                                     F               0         ED Blade 1 X moment, node 3, Nm
         20   -1.339006116826E+005                                                     F               0         ED Blade 1 Y moment, node 3, Nm
         21   -6.280485823557E+005                                                     F               0         ED Blade 1 Z moment, node 3, Nm
         22    2.268540573509E+004                                                     F               0         ED Blade 2 X force, node 1, N
         23    6.643995296493E+003                                                     F               0         ED Blade 2 Y force, node 1, N
         24    5.103268951176E+002                                                     F               0         ED Blade 2 Z force, node 1, N
         25    9.357850295119E+004                                                     F               0         ED Blade 2 X force, node 2, N
         26    2.156800672591E+004                                                     F               0         ED Blade 2 Y force, node 2, N
         27    3.326515202344E+003                                                     F               0         ED Blade 2 Z force, node 2, N
         28    1.382372352858E+005                                                     F               0         ED Blade 2 X force, node 3, N
         29    1.733473068316E+004                                                     F               0         ED Blade 2 Y force, node 3, N
         30    7.068514065281E+003                                                     F               0         ED Blade 2 Z force, node 3, N
         31    1.086792244312E+004                                                     F               0         ED Blade 2 X moment, node 1, Nm
         32   -3.570505453366E+004                                                     F               0         ED Blade 2 Y moment, node 1, Nm
         33   -1.225735369015E+004                                                     F               0         ED Blade 2 Z moment, node 1, Nm
         34   -6.698545119272E+004                                                     F               0         ED Blade 2 X moment, node 2, Nm
         35    1.826700434335E+005                                                     F               0         ED Blade 2 Y moment, node 2, Nm
         36    5.856365186636E+004                                                     F               0         ED Blade 2 Z moment, node 2, Nm
         37   -1.213689189673E+005                                                     F               0         ED Blade 2 X moment, node 3, Nm
         38    5.561638311897E+005                                                     F               0         ED Blade 2 Y moment, node 3, Nm
         39    2.000721414727E+005                                                     F               0         ED Blade 2 Z moment, node 3, Nm
         40    2.505258027725E+004                                                     F               0         ED Blade 3 X force, node 1, N
         41   -6.463325647172E+003                                                     F               0         ED Blade 3 Y force, node 1, N
         42    2.988024034497E+003                                                     F               0         ED Blade 3 Z force, node 1, N
         43    1.024075003386E+005                                                     F               0         ED Blade 3 X force, node 2, N
         44   -2.491418347478E+004                                                     F               0         ED Blade 3 Y force, node 2, N
         45    5.943844254514E+003                                                     F               0         ED Blade 3 Z force, node 2, N
         46    1.471679822323E+005                                                     F               0         ED Blade 3 X force, node 3, N
         47   -3.095518791623E+004                                                     F               0         ED Blade 3 Y force, node 3, N
         48   -6.386483134792E+003                                                     F               0         ED Blade 3 Z force, node 3, N
         49    1.137560564394E+004                                                     F               0         ED Blade 3 X moment, node 1, Nm
         50    3.078978558216E+004                                                     F               0         ED Blade 3 Y moment, node 1, Nm
         51   -2.811065180356E+004                                                     F               0         ED Blade 3 Z moment, node 1, Nm
         52   -6.903493498714E+004                                                     F               0         ED Blade 3 X moment, node 2, Nm
         53   -1.480501781473E+005                                                     F               0         ED Blade 3 Y moment, node 2, Nm
         54    1.541213558664E+005                                                     F               0         ED Blade 3 Z moment, node 2, Nm
         55   -1.288240709967E+005                                                     F               0         ED Blade 3 X moment, node 3, Nm
         56   -4.838707748311E+005                                                     F               0         ED Blade 3 Y moment, node 3, Nm
         57    4.458123105140E+005                                                     F               0         ED Blade 3 Z moment, node 3, Nm
         58    0.000000000000E+000                                                     F               0         ED Platform X force, node 1, N
         59    0.000000000000E+000                                                     F               0         ED Platform Y force, node 1, N
         60    0.000000000000E+000                                                     F               0         ED Platform Z force, node 1, N
         61    0.000000000000E+000                                                     F               0         ED Platform X moment, node 1, Nm
         62    0.000000000000E+000                                                     F               0         ED Platform Y moment, node 1, Nm
         63    0.000000000000E+000                                                     F               0         ED Platform Z moment, node 1, Nm
         64    0.000000000000E+000                                                     F               0         ED Tower X force, node 1, N
         65    0.000000000000E+000                                                     F               0         ED Tower Y force, node 1, N
         66    0.000000000000E+000                                                     F               0         ED Tower Z force, node 1, N
         67    0.000000000000E+000                                                     F               0         ED Tower X force, node 2, N
         68    0.000000000000E+000                                                     F               0         ED Tower Y force, node 2, N
         69    0.000000000000E+000                                                     F               0         ED Tower Z force, node 2, N
         70    0.000000000000E+000                                                     F               0         ED Tower X force, node 3, N
         71    0.000000000000E+000                                                     F               0         ED Tower Y force, node 3, N
         72    0.000000000000E+000                                                     F               0         ED Tower Z force, node 3, N
         73    0.000000000000E+000                                                     F               0         ED Tower X moment, node 1, Nm
         74    0.000000000000E+000                                                     F               0         ED Tower Y moment, node 1, Nm
         75    0.000000000000E+000                                                     F               0         ED Tower Z moment, node 1, Nm
         76    0.000000000000E+000                                                     F               0         ED Tower X moment, node 2, Nm
         77    0.000000000000E+000                                                     F               0         ED Tower Y moment, node 2, Nm
         78    0.000000000000E+000                                                     F               0         ED Tower Z moment, node 2, Nm
         79    0.000000000000E+000                                                     F               0         ED Tower X moment, node 3, Nm
         80    0.000000000000E+000                                                     F               0         ED Tower Y moment, node 3, Nm
         81    0.000000000000E+000                                                     F               0         ED Tower Z moment, node 3, Nm
         82    0.000000000000E+000                                                     F               0         ED Hub X force, node 1, N
         83    0.000000000000E+000                                                     F               0         ED Hub Y force, node 1, N
         84    0.000000000000E+000                                                     F               0         ED Hub Z force, node 1, N
         85    0.000000000000E+000                                                     F               0         ED Hub X moment, node 1, Nm
         86    0.000000000000E+000                                                     F               0         ED Hub Y moment, node 1, Nm
         87    0.000000000000E+000                                                     F               0         ED Hub Z moment, node 1, Nm
         88    0.000000000000E+000                                                     F               0         ED Nacelle X force, node 1, N
         89    0.000000000000E+000                                                     F               0         ED Nacelle Y force, node 1, N
         90    0.000000000000E+000                                                     F               0         ED Nacelle Z force, node 1, N
         91    0.000000000000E+000                                                     F               0         ED Nacelle X moment, node 1, Nm
         92    0.000000000000E+000                                                     F               0         ED Nacelle Y moment, node 1, Nm
         93    0.000000000000E+000                                                     F               0         ED Nacelle Z moment, node 1, Nm
         94    0.000000000000E+000                                                     F               0         ED Tailfin X force, node 1, N
         95    0.000000000000E+000                                                     F               0         ED Tailfin Y force, node 1, N
         96    0.000000000000E+000                                                     F               0         ED Tailfin Z force, node 1, N
         97    0.000000000000E+000                                                     F               0         ED Tailfin X moment, node 1, Nm
         98    0.000000000000E+000                                                     F               0         ED Tailfin Y moment, node 1, Nm
         99    0.000000000000E+000                                                     F               0         ED Tailfin Z moment, node 1, Nm
        100    0.000000000000E+000                                                     T               0         ED Blade 1 pitch command, rad
        101    0.000000000000E+000                                                     T               0         ED Blade 2 pitch command, rad
        102    0.000000000000E+000                                                     T               0         ED Blade 3 pitch command, rad
        103    0.000000000000E+000                                                     T               0         ED Blade 1 pitch moment, Nm
        104    0.000000000000E+000                                                     T               0         ED Blade 2 pitch moment, Nm
        105    0.000000000000E+000                                                     T               0         ED Blade 3 pitch moment, Nm
        106    0.000000000000E+000                                                     F               0         ED Yaw moment, Nm
        107    0.000000000000E+000                                                     F               0         ED Generator torque, Nm
        108    0.000000000000E+000                                                     F               0         ED Extended input: collective blade-pitch command, rad
        109    0.000000000000E+000                                                     F               0         AD Nacelle X translation displacement, node 1, m
        110    0.000000000000E+000                                                     F               0         AD Nacelle Y translation displacement, node 1, m
        111    0.000000000000E+000                                                     F               0         AD Nacelle Z translation displacement, node 1, m
        112    1.000000000000E+000,  0.000000000000E+000,  0.000000000000E+000         F               0         AD Nacelle X orientation angle, node 1, rad
        113    0.000000000000E+000,  1.000000000000E+000,  0.000000000000E+000         F               0         AD Nacelle Y orientation angle, node 1, rad
        114    0.000000000000E+000,  0.000000000000E+000,  1.000000000000E+000         F               0         AD Nacelle Z orientation angle, node 1, rad
        115    0.000000000000E+000                                                     F               0         AD Hub X translation displacement, node 1, m
        116    0.000000000000E+000                                                     F               0         AD Hub Y translation displacement, node 1, m
        117    0.000000000000E+000                                                     F               0         AD Hub Z translation displacement, node 1, m
        118    9.961946980917E-001,  0.000000000000E+000, -8.715574274766E-002         F               0         AD Hub X orientation angle, node 1, rad
        119    8.579441458219E-002,  1.760539961798E-001,  9.806346459592E-001         F               0         AD Hub Y orientation angle, node 1, rad
        120    1.534411680074E-002, -9.843805109962E-001,  1.753840575722E-001         F               0         AD Hub Z orientation angle, node 1, rad
        121    1.262287304512E+000                                                     F               0         AD Hub X rotation velocity, node 1, rad/s
        122   -0.000000000000E+000                                                     F               0         AD Hub Y rotation velocity, node 1, rad/s
        123   -1.104358292575E-001                                                     F               0         AD Hub Z rotation velocity, node 1, rad/s
        124    9.959158424523E-001, -4.293807482403E-002, -7.942264464775E-002         F               0         AD Blade root 1 X orientation angle, node 1, rad
        125    8.579441458219E-002,  1.760539961798E-001,  9.806346459592E-001         F               0         AD Blade root 1 Y orientation angle, node 1, rad
        126   -2.812388982583E-002, -9.834435988706E-001,  1.790188109153E-001         F               0         AD Blade root 1 Z orientation angle, node 1, rad
        127    9.916709642922E-001,  1.481851010962E-002, -1.279418240368E-001         F               0         AD Blade root 2 X orientation angle, node 1, rad
        128   -2.960881234302E-002, -9.405255276029E-001, -3.384302737033E-001         F               0         AD Blade root 2 Y orientation angle, node 1, rad
        129   -1.253475839870E-001,  3.393996813278E-001, -9.322530984144E-001         F               0         AD Blade root 2 Z orientation angle, node 1, rad
        130    9.981528176889E-001,  2.811956471441E-002, -5.385390069351E-002         F               0         AD Blade root 3 X orientation angle, node 1, rad
        131   -5.618560223918E-002,  7.644715314231E-001, -6.422043722559E-001         F               0         AD Blade root 3 Y orientation angle, node 1, rad
        132    2.311126653075E-002,  6.440439175428E-001,  7.646393278111E-001         F               0         AD Blade root 3 Z orientation angle, node 1, rad
        133   -1.076149157867E-001                                                     F               0         AD Blade 1 X translation displacement, node 1, m
        134   -1.475165398306E+000                                                     F               0         AD Blade 1 Y translation displacement, node 1, m
        135   -1.230044116000E+000                                                     F               0         AD Blade 1 Z translation displacement, node 1, m
        136   -1.295406160676E+000                                                     F               0         AD Blade 1 X translation displacement, node 2, m
        137   -2.324729340970E+001                                                     F               0         AD Blade 1 Y translation displacement, node 2, m
        138   -2.037861189152E+001                                                     F               0         AD Blade 1 Z translation displacement, node 2, m
        139   -8.510827410176E-001                                                     F               0         AD Blade 1 X translation displacement, node 3, m
        140   -4.357103892853E+001                                                     F               0         AD Blade 1 Y translation displacement, node 3, m
        141   -3.751769491323E+001                                                     F               0         AD Blade 1 Z translation displacement, node 3, m
        142    1.431507739460E+000                                                     F               0         AD Blade 1 X translation displacement, node 4, m
        143   -6.175456227620E+001                                                     F               0         AD Blade 1 Y translation displacement, node 4, m
        144   -5.319643269545E+001                                                     F               0         AD Blade 1 Z translation displacement, node 4, m
        145    9.494236174756E-001, -8.231014525657E-002, -3.030178782967E-001         F               0         AD Blade 1 X orientation angle, node 1, rad
        146    3.127360570843E-001,  1.614426456309E-001,  9.360194606797E-001         F               0         AD Blade 1 Y orientation angle, node 1, rad
        147   -2.812388982583E-002, -9.834435988706E-001,  1.790188109153E-001         F               0         AD Blade 1 Z orientation angle, node 1, rad
        148    9.701662587825E-001, -1.180063458457E-002, -2.421532063456E-001         F               0         AD Blade 1 X orientation angle, node 2, rad
        149    2.406989589302E-001,  1.663894903349E-001,  9.562314305000E-001         F               0         AD Blade 1 Y orientation angle, node 2, rad
        150    2.900761089720E-002, -9.859894941273E-001,  1.642658697982E-001         F               0         AD Blade 1 Z orientation angle, node 2, rad
        151    9.829224725476E-001,  9.548483705492E-002, -1.573088009409E-001         F               0         AD Blade 1 X orientation angle, node 3, rad
        152    1.403770263984E-001,  1.636750517082E-001,  9.764756873102E-001         F               0         AD Blade 1 Y orientation angle, node 3, rad
        153    1.189861480191E-001, -9.818824386559E-001,  1.474760090274E-001         F               0         AD Blade 1 Z orientation angle, node 3, rad