
Linearized model: Predictions were generated on 11-Mar-2026 at 17:04:02 using OpenFAST, compiled on Mar 11 2026 at 16:48:05 as a 64-bit application using double precision at commit -128-NOTFOUND
 linked with  NWTC Subroutine Library; ElastoDyn; InflowWind; AeroDyn

Description from the FAST input file: Three blades, 4 aero-stations, Linearization with continuous-state aerodynamic modules

Simulation information:
   Simulation time:                     1.1000 s
   Rotor Speed:                         1.2671 rad/s
   Azimuth:                             1.3938 rad
   Wind Speed:                         13.0000 m/s
   Number of continuous states:         9
   Number of discrete states:           0
   Number of constraint states:         0
   Number of inputs:                  255
   Number of outputs:                  13
   Jacobians included in this file?    No

Order of continuous states:
   Row/Column Operating Point                                                   Rotating Frame? Derivative Order Description
   ---------- ---------------                                                   --------------- ---------------- -----------
          1    5.094357755592E-001                                                     T               1         x4 blade 1, node 2, -
          2    5.648199979972E-001                                                     T               1         x4 blade 1, node 3, -
          3    5.178594012399E-001                                                     T               1         x4 blade 1, node 4, -
          4    5.614634515791E-001                                                     T               1         x4 blade 2, node 2, -
          5    5.788426909335E-001                                                     T               1         x4 blade 2, node 3, -
          6    5.193298950913E-001                                                     T               1         x4 blade 2, node 4, -
          7    5.113634631249E-001                                                     T               1         x4 blade 3, node 2, -
          8    5.721188850144E-001                                                     T               1         x4 blade 3, node 3, -
          9    5.192341690291E-001                                                     T               1         x4 blade 3, node 4, -

Order of continuous state derivatives:
   Row/Column Operating Point                                                   Rotating Frame? Derivative Order Description
   ---------- ---------------                                                   --------------- ---------------- -----------
          1   -1.169746221159E-003                                                     T               1         First time derivative of x4 blade 1, node 2, -/s
          2   -7.836184353425E-002                                                     T               1         First time derivative of x4 blade 1, node 3, -/s
          3    3.259801174897E-003                                                     T               1         First time derivative of x4 blade 1, node 4, -/s
          4   -2.575061113444E-002                                                     T               1         First time derivative of x4 blade 2, node 2, -/s
          5   -6.050750034322E-002                                                     T               1         First time derivative of x4 blade 2, node 3, -/s
          6    3.628234773646E-003                                                     T               1         First time derivative of x4 blade 2, node 4, -/s
          7   -4.340880376952E-002                                                     T               1         First time derivative of x4 blade 3, node 2, -/s
          8   -1.090451859170E-001                                                     T               1         First time derivative of x4 blade 3, node 3, -/s
          9    1.858801379662E-003                                                     T               1         First time derivative of x4 blade 3, node 4, -/s

Order of inputs:
     Column   Operating Point                                                   Rotating Frame? Derivative Order Description
   ---------- ---------------                                                   --------------- ---------------- -----------
          1    0.000000000000E+000                                                     F               0         Nacelle X translation displacement, node 1, m
          2    0.000000000000E+000                                                     F               0         Nacelle Y translation displacement, node 1, m
          3    0.000000000000E+000                                                     F               0         Nacelle Z translation displacement, node 1, m
          4    1.000000000000E+000,  0.000000000000E+000,  0.000000000000E+000         F               0         Nacelle X orientation angle, node 1, rad
          5    0.000000000000E+000,  1.000000000000E+000,  0.000000000000E+000         F               0         Nacelle Y orientation angle, node 1, rad
          6    0.000000000000E+000,  0.000000000000E+000,  1.000000000000E+000         F               0         Nacelle Z orientation angle, node 1, rad
          7    0.000000000000E+000                                                     F               0         Hub X translation displacement, node 1, m
          8    0.000000000000E+000                                                     F               0         Hub Y translation displacement, node 1, m
          9    0.000000000000E+000                                                     F               0         Hub Z translation displacement, node 1, m
         10    9.961946980917E-001,  0.000000000000E+000, -8.715574274766E-002         F               0         Hub X orientation angle, node 1, rad
         11    8.579441458219E-002,  1.760539961798E-001,  9.806346459592E-001         F               0         Hub Y orientation angle, node 1, rad
         12    1.534411680074E-002, -9.843805109962E-001,  1.753840575722E-001         F               0         Hub Z orientation angle, node 1, rad
         13    1.262287304512E+000                                                     F               0         Hub X rotation velocity, node 1, rad/s
         14   -0.000000000000E+000                                                     F               0         Hub Y rotation velocity, node 1, rad/s
         15   -1.104358292575E-001                                                     F               0         Hub Z rotation velocity, node 1, rad/s
         16    9.959158424523E-001, -4.293807482403E-002, -7.942264464775E-002         F               0         Blade root 1 X orientation angle, node 1, rad
         17    8.579441458219E-002,  1.760539961798E-001,  9.806346459592E-001         F               0         Blade root 1 Y orientation angle, node 1, rad
         18   -2.812388982583E-002, -9.834435988706E-001,  1.790188109153E-001         F               0         Blade root 1 Z orientation angle, node 1, rad
         19    9.916709642922E-001,  1.481851010962E-002, -1.279418240368E-001         F               0         Blade root 2 X orientation angle, node 1, rad
         20   -2.960881234302E-002, -9.405255276029E-001, -3.384302737033E-001         F               0         Blade root 2 Y orientation angle, node 1, rad
         21   -1.253475839870E-001,  3.393996813278E-001, -9.322530984144E-001         F               0         Blade root 2 Z orientation angle, node 1, rad
         22    9.981528176889E-001,  2.811956471441E-002, -5.385390069351E-002         F               0         Blade root 3 X orientation angle, node 1, rad
         23   -5.618560223918E-002,  7.644715314231E-001, -6.422043722559E-001         F               0         Blade root 3 Y orientation angle, node 1, rad
         24    2.311126653075E-002,  6.440439175428E-001,  7.646393278111E-001         F               0         Blade root 3 Z orientation angle, node 1, rad
         25   -1.076149157867E-001                                                     F               0         Blade 1 X translation displacement, node 1, m
         26   -1.475165398306E+000                                                     F               0         Blade 1 Y translation displacement, node 1, m
         27   -1.230044116000E+000                                                     F               0         Blade 1 Z translation displacement, node 1, m
         28   -1.295406160676E+000                                                     F               0         Blade 1 X translation displacement, node 2, m
         29   -2.324729340970E+001                                                     F               0         Blade 1 Y translation displacement, node 2, m
         30   -2.037861189152E+001                                                     F               0         Blade 1 Z translation displacement, node 2, m
         31   -8.510827410176E-001                                                     F               0         Blade 1 X translation displacement, node 3, m
         32   -4.357103892853E+001                                                     F               0         Blade 1 Y translation displacement, node 3, m
         33   -3.751769491323E+001                                                     F               0         Blade 1 Z translation displacement, node 3, m
         34    1.431507739460E+000                                                     F               0         Blade 1 X translation displacement, node 4, m
         35   -6.175456227620E+001                                                     F               0         Blade 1 Y translation displacement, node 4, m
         36   -5.319643269545E+001                                                     F               0         Blade 1 Z translation displacement, node 4, m
         37    9.494236174756E-001, -8.231014525657E-002, -3.030178782967E-001         F               0         Blade 1 X orientation angle, node 1, rad
         38    3.127360570843E-001,  1.614426456309E-001,  9.360194606797E-001         F               0         Blade 1 Y orientation angle, node 1, rad
         39   -2.812388982583E-002, -9.834435988706E-001,  1.790188109153E-001         F               0         Blade 1 Z orientation angle, node 1, rad
         40    9.701662587825E-001, -1.180063458457E-002, -2.421532063456E-001         F               0         Blade 1 X orientation angle, node 2, rad
         41    2.406989589302E-001,  1.663894903349E-001,  9.562314305000E-001         F               0         Blade 1 Y orientation angle, node 2, rad
         42    2.900761089720E-002, -9.859894941273E-001,  1.642658697982E-001         F               0         Blade 1 Z orientation angle, node 2, rad
         43    9.829224725476E-001,  9.548483705492E-002, -1.573088009409E-001         F               0         Blade 1 X orientation angle, node 3, rad
         44    1.403770263984E-001,  1.636750517082E-001,  9.764756873102E-001         F               0         Blade 1 Y orientation angle, node 3, rad
         45    1.189861480191E-001, -9.818824386559E-001,  1.474760090274E-001         F               0         Blade 1 Z orientation angle, node 3, rad
         46    9.718816828735E-001,  2.023962327476E-001, -1.203401822523E-001         F               0         Blade 1 X orientation angle, node 4, rad
         47    8.977550715296E-002,  1.539666121379E-001,  9.839891466181E-001         F               0         Blade 1 Y orientation angle, node 4, rad
         48    2.176840665054E-001, -9.671246286371E-001,  1.314671056702E-001         F               0         Blade 1 Z orientation angle, node 4, rad
         49   -1.629111140538E-001                                                     F               0         Blade 1 X translation velocity, node 1, m/s
         50   -3.343009307885E-001                                                     F               0         Blade 1 Y translation velocity, node 1, m/s
         51   -1.862082554336E+000                                                     F               0         Blade 1 Z translation velocity, node 1, m/s
         52   -3.141708693693E+000                                                     F               0         Blade 1 X translation velocity, node 2, m/s
         53   -4.545949364171E+000                                                     F               0         Blade 1 Y translation velocity, node 2, m/s
         54   -2.984766949430E+001                                                     F               0         Blade 1 Z translation velocity, node 2, m/s
         55   -7.448174301318E+000                                                     F               0         Blade 1 X translation velocity, node 3, m/s
         56   -8.974308174631E+000                                                     F               0         Blade 1 Y translation velocity, node 3, m/s
         57   -5.478145215624E+001                                                     F               0         Blade 1 Z translation velocity, node 3, m/s
         58   -1.332436416696E+001                                                     F               0         Blade 1 X translation velocity, node 4, m/s
         59   -1.331494336042E+001                                                     F               0         Blade 1 Y translation velocity, node 4, m/s
         60   -7.661033246981E+001                                                     F               0         Blade 1 Z translation velocity, node 4, m/s
         61    1.262287304512E+000                                                     F               0         Blade 1 X rotation velocity, node 1, rad/s
         62   -0.000000000000E+000                                                     F               0         Blade 1 Y rotation velocity, node 1, rad/s
         63   -1.104358292575E-001                                                     F               0         Blade 1 Z rotation velocity, node 1, rad/s
         64    1.245905958805E+000                                                     F               0         Blade 1 X rotation velocity, node 2, rad/s
         65   -1.063595034991E-002                                                     F               0         Blade 1 Y rotation velocity, node 2, rad/s
         66   -1.714381585409E-001                                                     F               0         Blade 1 Z rotation velocity, node 2, rad/s
         67    1.228487168433E+000                                                     F               0         Blade 1 X rotation velocity, node 3, rad/s
         68   -2.764990458718E-002                                                     F               0         Blade 1 Y rotation velocity, node 3, rad/s
         69   -2.676411689361E-001                                                     F               0         Blade 1 Z rotation velocity, node 3, rad/s
         70    1.214356819377E+000                                                     F               0         Blade 1 X rotation velocity, node 4, rad/s
         71   -4.664472405031E-002                                                     F               0         Blade 1 Y rotation velocity, node 4, rad/s
         72   -3.742094892999E-001                                                     F               0         Blade 1 Z rotation velocity, node 4, rad/s
         73   -3.691880051317E-002                                                     F               0         Blade 1 X translation acceleration, node 1, m/s^2
         74    2.368474392267E+000                                                     F               0         Blade 1 Y translation acceleration, node 1, m/s^2
         75   -4.219838208207E-001                                                     F               0         Blade 1 Z translation acceleration, node 1, m/s^2
         76   -9.994927221722E-001                                                     F               0         Blade 1 X translation acceleration, node 2, m/s^2
         77    3.792515389953E+001                                                     F               0         Blade 1 Y translation acceleration, node 2, m/s^2
         78   -5.552051718056E+000                                                     F               0         Blade 1 Z translation acceleration, node 2, m/s^2
         79   -3.485731577648E+000                                                     F               0         Blade 1 X translation acceleration, node 3, m/s^2
         80    6.960082964168E+001                                                     F               0         Blade 1 Y translation acceleration, node 3, m/s^2
         81   -1.074389162543E+001                                                     F               0         Blade 1 Z translation acceleration, node 3, m/s^2
         82   -7.841615734148E+000                                                     F               0         Blade 1 X translation acceleration, node 4, m/s^2
         83    9.744408605982E+001                                                     F               0         Blade 1 Y translation acceleration, node 4, m/s^2
         84   -1.617111237520E+001                                                     F               0         Blade 1 Z translation acceleration, node 4, m/s^2
         85    0.000000000000E+000                                                     F               0         Blade 1 X rotation acceleration, node 1, rad/s^2
         86    0.000000000000E+000                                                     F               0         Blade 1 Y rotation acceleration, node 1, rad/s^2
         87    0.000000000000E+000                                                     F               0         Blade 1 Z rotation acceleration, node 1, rad/s^2
         88   -1.718860279047E-002                                                     F               0         Blade 1 X rotation acceleration, node 2, rad/s^2
         89    6.841410195125E-002                                                     F               0         Blade 1 Y rotation acceleration, node 2, rad/s^2
         90   -7.306004702311E-002                                                     F               0         Blade 1 Z rotation acceleration, node 2, rad/s^2
         91   -3.609574688587E-002                                                     F               0         Blade 1 X rotation acceleration, node 3, rad/s^2
         92    1.751411633860E-001                                                     F               0         Blade 1 Y rotation acceleration, node 3, rad/s^2
         93   -1.885823135402E-001                                                     F               0         Blade 1 Z rotation acceleration, node 3, rad/s^2
         94   -5.200694768900E-002                                                     F               0         Blade 1 X rotation acceleration, node 4, rad/s^2
         95    2.926526156656E-001                                                     F               0         Blade 1 Y rotation acceleration, node 4, rad/s^2
         96   -3.167378808494E-001                                                     F               0         Blade 1 Z rotation acceleration, node 4, rad/s^2
         97   -5.753667999493E-002                                                     F               0         Blade 2 X translation displacement, node 1, m
         98    1.806901231235E+000                                                     F               0         Blade 2 Y translation displacement, node 1, m
         99   -6.576472616692E-001                                                     F               0         Blade 2 Z translation displacement, node 1, m
        100   -4.730004843633E-001                                                     F               0         Blade 2 X translation displacement, node 2, m
        101    2.928325165574E+001                                                     F               0         Blade 2 Y translation displacement, node 2, m
        102   -9.928137678887E+000                                                     F               0         Blade 2 Z translation displacement, node 2, m
        103    2.965876245718E-001                                                     F               0         Blade 2 X translation displacement, node 3, m
        104    5.414973991829E+001                                                     F               0         Blade 2 Y translation displacement, node 3, m
        105   -1.915010386111E+001                                                     F               0         Blade 2 Z translation displacement, node 3, m
        106    2.529243033033E+000                                                     F               0         Blade 2 X translation displacement, node 4, m
        107    7.655649819982E+001                                                     F               0         Blade 2 Y translation displacement, node 4, m
        108   -2.752574299316E+001                                                     F               0         Blade 2 Z translation displacement, node 4, m
        109    9.718568910412E-001,  2.309160331025E-001, -4.660438812009E-002         F               0         Blade 2 X orientation angle, node 1, rad
        110    1.994546728569E-001, -9.118583453425E-001, -3.587926859688E-001         F               0         Blade 2 Y orientation angle, node 1, rad
        111   -1.253475839870E-001,  3.393996813278E-001, -9.322530984144E-001         F               0         Blade 2 Z orientation angle, node 1, rad
        112    9.889481250807E-001,  1.454792130764E-001, -2.859028614709E-002         F               0         Blade 2 X orientation angle, node 2, rad
        113    1.259888387975E-001, -9.262609433841E-001, -3.552006155114E-001         F               0         Blade 2 Y orientation angle, node 2, rad
        114   -7.815637144709E-002,  3.476729257850E-001, -9.343527804199E-001         F               0         Blade 2 Z orientation angle, node 2, rad
        115    9.997051118627E-001,  2.381860529680E-002,  4.728991157522E-003         F               0         Blade 2 X orientation angle, node 3, rad
        116    2.395332707186E-002, -9.352273507620E-001, -3.532365220483E-001         F               0         Blade 2 Y orientation angle, node 3, rad
        117   -3.990919423059E-003,  3.532456318602E-001, -9.355220981537E-001         F               0         Blade 2 Z orientation angle, node 3, rad
        118    9.965619059855E-001, -5.401284784958E-002,  6.282499347923E-002         F               0         Blade 2 X orientation angle, node 4, rad
        119   -2.820752634218E-002, -9.341743078964E-001, -3.557002922742E-001         F               0         Blade 2 Y orientation angle, node 4, rad
        120    7.790188056872E-002,  3.527052235699E-001, -9.324860976285E-001         F               0         Blade 2 Z orientation angle, node 4, rad
        121    5.622282788573E-002                                                     F               0         Blade 2 X translation velocity, node 1, m/s
        122    1.785921172655E+000                                                     F               0         Blade 2 Y translation velocity, node 1, m/s
        123    6.426298633430E-001                                                     F               0         Blade 2 Z translation velocity, node 1, m/s
        124    3.887371126108E-001                                                     F               0         Blade 2 X translation velocity, node 2, m/s
        125    2.825674152447E+001                                                     F               0         Blade 2 Y translation velocity, node 2, m/s
        126    1.105058402667E+001                                                     F               0         Blade 2 Z translation velocity, node 2, m/s
        127   -1.144182634665E+000                                                     F               0         Blade 2 X translation velocity, node 3, m/s
        128    5.231440640442E+001                                                     F               0         Blade 2 Y translation velocity, node 3, m/s
        129    1.994863704771E+001                                                     F               0         Blade 2 Z translation velocity, node 3, m/s
        130   -4.794894778059E+000                                                     F               0         Blade 2 X translation velocity, node 4, m/s
        131    7.382919156980E+001                                                     F               0         Blade 2 Y translation velocity, node 4, m/s
        132    2.770112673939E+001                                                     F               0         Blade 2 Z translation velocity, node 4, m/s
        133    1.262287304512E+000                                                     F               0         Blade 2 X rotation velocity, node 1, rad/s
        134    0.000000000000E+000                                                     F               0         Blade 2 Y rotation velocity, node 1, rad/s
        135   -1.104358292575E-001                                                     F               0         Blade 2 Z rotation velocity, node 1, rad/s
        136    1.252406868661E+000                                                     F               0         Blade 2 X rotation velocity, node 2, rad/s
        137    6.459381070359E-002                                                     F               0         Blade 2 Y rotation velocity, node 2, rad/s
        138   -8.559106599463E-002                                                     F               0         Blade 2 Z rotation velocity, node 2, rad/s
        139    1.245885154902E+000                                                     F               0         Blade 2 X rotation velocity, node 3, rad/s
        140    1.658988080582E-001                                                     F               0         Blade 2 Y rotation velocity, node 3, rad/s
        141   -4.783268799401E-002                                                     F               0         Blade 2 Z rotation velocity, node 3, rad/s
        142    1.244221810008E+000                                                     F               0         Blade 2 X rotation velocity, node 4, rad/s
        143    2.777739231873E-001                                                     F               0         Blade 2 Y rotation velocity, node 4, rad/s
        144   -6.879351660663E-003                                                     F               0         Blade 2 Z rotation velocity, node 4, rad/s
        145    1.972296856906E-001                                                     F               0         Blade 2 X translation acceleration, node 1, m/s^2
        146   -8.173925326187E-001                                                     F               0         Blade 2 Y translation acceleration, node 1, m/s^2
        147    2.254345623101E+000                                                     F               0         Blade 2 Z translation acceleration, node 1, m/s^2
        148    3.045602012843E+000                                                     F               0         Blade 2 X translation acceleration, node 2, m/s^2
        149   -1.397201559529E+001                                                     F               0         Blade 2 Y translation acceleration, node 2, m/s^2
        150    3.553549488028E+001                                                     F               0         Blade 2 Z translation acceleration, node 2, m/s^2
        151    5.463837688744E+000                                                     F               0         Blade 2 X translation acceleration, node 3, m/s^2
        152   -2.490000182704E+001                                                     F               0         Blade 2 Y translation acceleration, node 3, m/s^2
        153    6.576316483275E+001                                                     F               0         Blade 2 Z translation acceleration, node 3, m/s^2
        154    7.383408560953E+000                                                     F               0         Blade 2 X translation acceleration, node 4, m/s^2
        155   -3.385458015709E+001                                                     F               0         Blade 2 Y translation acceleration, node 4, m/s^2
        156    9.348072818672E+001                                                     F               0         Blade 2 Z translation acceleration, node 4, m/s^2
        157    0.000000000000E+000                                                     F               0         Blade 2 X rotation acceleration, node 1, rad/s^2
        158   -0.000000000000E+000                                                     F               0         Blade 2 Y rotation acceleration, node 1, rad/s^2
        159    0.000000000000E+000                                                     F               0         Blade 2 Z rotation acceleration, node 1, rad/s^2
        160    5.969335142866E-003                                                     F               0         Blade 2 X rotation acceleration, node 2, rad/s^2
        161   -2.265948227606E-002                                                     F               0         Blade 2 Y rotation acceleration, node 2, rad/s^2
        162    8.446321493053E-002                                                     F               0         Blade 2 Z rotation acceleration, node 2, rad/s^2