
Linearized model: Predictions were generated on 18-Jul-2023 at 21:05:48 using OpenFAST, compiled as a 64-bit application using double precision at commit v3.5.0-38-g507dd698-dirty
 linked with  NWTC Subroutine Library; ElastoDyn; InflowWind; AeroDyn

Description from the FAST input file: One Blade, 4 aero-stations, Linearization with continuous States AeroDynamic modules

Simulation information:
   Simulation time:                     1.1000 s
   Rotor Speed:                         1.2671 rad/s
   Azimuth:                             1.3938 rad
   Wind Speed:                         13.0000 m/s
   Number of continuous states:        18
   Number of discrete states:           0
   Number of constraint states:         0
   Number of inputs:                  393
   Number of outputs:                  12
   Jacobians included in this file?    No

Order of continuous states:
   Row/Column Operating Point                  Rotating Frame? Derivative Order Description
   ---------- ---------------                  --------------- ---------------- -----------
          1    5.90E+00                               T               2         ED 1st flapwise bending-mode DOF of blade 1 (internal DOF index = DOF_BF(1,1)), m
          2    4.78E+00                               T               2         ED 1st flapwise bending-mode DOF of blade 2 (internal DOF index = DOF_BF(2,1)), m
          3    5.33E+00                               T               2         ED 1st flapwise bending-mode DOF of blade 3 (internal DOF index = DOF_BF(3,1)), m
          4   -6.41E+00                               T               2         ED First time derivative of 1st flapwise bending-mode DOF of blade 1 (internal DOF index = DOF_BF(1,1)), m/s
          5   -6.96E+00                               T               2         ED First time derivative of 1st flapwise bending-mode DOF of blade 2 (internal DOF index = DOF_BF(2,1)), m/s
          6   -5.04E+00                               T               2         ED First time derivative of 1st flapwise bending-mode DOF of blade 3 (internal DOF index = DOF_BF(3,1)), m/s
          7    0.00E+00                               T               1         AD x4 blade 1, node 1, -
          8    5.09E-01                               T               1         AD x4 blade 1, node 2, -
          9    5.64E-01                               T               1         AD x4 blade 1, node 3, -
         10    5.18E-01                               T               1         AD x4 blade 1, node 4, -
         11    0.00E+00                               T               1         AD x4 blade 2, node 1, -
         12    5.61E-01                               T               1         AD x4 blade 2, node 2, -
         13    5.79E-01                               T               1         AD x4 blade 2, node 3, -
         14    5.19E-01                               T               1         AD x4 blade 2, node 4, -
         15    0.00E+00                               T               1         AD x4 blade 3, node 1, -
         16    5.12E-01                               T               1         AD x4 blade 3, node 2, -
         17    5.72E-01                               T               1         AD x4 blade 3, node 3, -
         18    5.19E-01                               T               1         AD x4 blade 3, node 4, -

Order of continuous state derivatives:
   Row/Column Operating Point                  Rotating Frame? Derivative Order Description
   ---------- ---------------                  --------------- ---------------- -----------
          1   -6.41E+00                               T               2         First time derivative of ED 1st flapwise bending-mode DOF of blade 1 (internal DOF index = DOF_BF(1,1)), m/s
          2   -6.96E+00                               T               2         First time derivative of ED 1st flapwise bending-mode DOF of blade 2 (internal DOF index = DOF_BF(2,1)), m/s
          3   -5.04E+00                               T               2         First time derivative of ED 1st flapwise bending-mode DOF of blade 3 (internal DOF index = DOF_BF(3,1)), m/s
          4   -6.50E+00                               T               2         First time derivative of ED First time derivative of 1st flapwise bending-mode DOF of blade 1 (internal DOF index = DOF_BF(1,1)), m/s/s
          5   -1.04E+00                               T               2         First time derivative of ED First time derivative of 1st flapwise bending-mode DOF of blade 2 (internal DOF index = DOF_BF(2,1)), m/s/s
          6   -4.15E+00                               T               2         First time derivative of ED First time derivative of 1st flapwise bending-mode DOF of blade 3 (internal DOF index = DOF_BF(3,1)), m/s/s
          7    0.00E+00                               T               1         First time derivative of AD x4 blade 1, node 1, -/s
          8   -1.18E-03                               T               1         First time derivative of AD x4 blade 1, node 2, -/s
          9   -7.86E-02                               T               1         First time derivative of AD x4 blade 1, node 3, -/s
         10    2.81E-03                               T               1         First time derivative of AD x4 blade 1, node 4, -/s
         11    0.00E+00                               T               1         First time derivative of AD x4 blade 2, node 1, -/s
         12   -2.56E-02                               T               1         First time derivative of AD x4 blade 2, node 2, -/s
         13   -6.03E-02                               T               1         First time derivative of AD x4 blade 2, node 3, -/s
         14    3.29E-03                               T               1         First time derivative of AD x4 blade 2, node 4, -/s
         15    0.00E+00                               T               1         First time derivative of AD x4 blade 3, node 1, -/s
         16   -4.36E-02                               T               1         First time derivative of AD x4 blade 3, node 2, -/s
         17   -1.09E-01                               T               1         First time derivative of AD x4 blade 3, node 3, -/s
         18    1.65E-03                               T               1         First time derivative of AD x4 blade 3, node 4, -/s

Order of inputs:
     Column   Operating Point                  Rotating Frame? Derivative Order Description
   ---------- ---------------                  --------------- ---------------- -----------
          1   -5.04E+00                               F               0         IfW X-component position of node 1 (blade 1, node 1), m
          2   -1.48E+00                               F               0         IfW Y-component position of node 1 (blade 1, node 1), m
          3    9.03E+01                               F               0         IfW Z-component position of node 1 (blade 1, node 1), m
          4   -5.33E+00                               F               0         IfW X-component position of node 2 (blade 1, node 2), m
          5   -2.38E+01                               F               0         IfW Y-component position of node 2 (blade 1, node 2), m
          6    9.37E+01                               F               0         IfW Z-component position of node 2 (blade 1, node 2), m
          7   -3.91E+00                               F               0         IfW X-component position of node 3 (blade 1, node 3), m
          8   -4.39E+01                               F               0         IfW Y-component position of node 3 (blade 1, node 3), m
          9    9.70E+01                               F               0         IfW Z-component position of node 3 (blade 1, node 3), m
         10   -7.99E-01                               F               0         IfW X-component position of node 4 (blade 1, node 4), m
         11   -6.19E+01                               F               0         IfW Y-component position of node 4 (blade 1, node 4), m
         12    9.97E+01                               F               0         IfW Z-component position of node 4 (blade 1, node 4), m
         13   -5.19E+00                               F               0         IfW X-component position of node 5 (blade 2, node 1), m
         14    5.09E-01                               F               0         IfW Y-component position of node 5 (blade 2, node 1), m
         15    8.86E+01                               F               0         IfW Z-component position of node 5 (blade 2, node 1), m
         16   -7.69E+00                               F               0         IfW X-component position of node 6 (blade 2, node 2), m
         17    8.74E+00                               F               0         IfW Y-component position of node 6 (blade 2, node 2), m
         18    6.78E+01                               F               0         IfW Z-component position of node 6 (blade 2, node 2), m
         19   -8.62E+00                               F               0         IfW X-component position of node 7 (blade 2, node 3), m
         20    1.58E+01                               F               0         IfW Y-component position of node 7 (blade 2, node 3), m
         21    4.85E+01                               F               0         IfW Z-component position of node 7 (blade 2, node 3), m
         22   -7.95E+00                               F               0         IfW X-component position of node 8 (blade 2, node 4), m
         23    2.21E+01                               F               0         IfW Y-component position of node 8 (blade 2, node 4), m
         24    3.12E+01                               F               0         IfW Z-component position of node 8 (blade 2, node 4), m
         25   -4.97E+00                               F               0         IfW X-component position of node 9 (blade 3, node 1), m
         26    9.66E-01                               F               0         IfW Y-component position of node 9 (blade 3, node 1), m
         27    9.11E+01                               F               0         IfW Z-component position of node 9 (blade 3, node 1), m
         28   -4.05E+00                               F               0         IfW X-component position of node 10 (blade 3, node 2), m
         29    1.50E+01                               F               0         IfW Y-component position of node 10 (blade 3, node 2), m
         30    1.09E+02                               F               0         IfW Z-component position of node 10 (blade 3, node 2), m
         31   -1.75E+00                               F               0         IfW X-component position of node 11 (blade 3, node 3), m
         32    2.81E+01                               F               0         IfW Y-component position of node 11 (blade 3, node 3), m
         33    1.24E+02                               F               0         IfW Z-component position of node 11 (blade 3, node 3), m
         34    1.97E+00                               F               0         IfW X-component position of node 12 (blade 3, node 4), m
         35    3.98E+01                               F               0         IfW Y-component position of node 12 (blade 3, node 4), m
         36    1.38E+02                               F               0         IfW Z-component position of node 12 (blade 3, node 4), m
         37    0.00E+00                               F               0         IfW X-component position of node 13, m
         38    0.00E+00                               F               0         IfW Y-component position of node 13, m
         39    8.76E+01                               F               0         IfW Z-component position of node 13, m
         40   -5.00E+00                               F               0         IfW X-component position of node 14, m
         41    0.00E+00                               F               0         IfW Y-component position of node 14, m
         42    9.00E+01                               F               0         IfW Z-component position of node 14, m
         43   -5.00E+00                               F               0         IfW X-component position of moving hub, m
         44    0.00E+00                               F               0         IfW Y-component position of moving hub, m
         45    9.00E+01                               F               0         IfW Z-component position of moving hub, m
         46    1.39E+00                               F               0         IfW X orientation of moving hub, rad
         47    1.53E-02                               F               0         IfW Y orientation of moving hub, rad
         48   -8.59E-02                               F               0         IfW Z orientation of moving hub, rad
         49    1.30E+01                               F               0         IfW Extended input: horizontal wind speed (steady/uniform wind), m/s
         50    2.00E-01                               F               0         IfW Extended input: vertical power-law shear exponent, -
         51    0.00E+00                               F               0         IfW Extended input: propagation direction, rad
         52    2.34E+04                               F               0         ED Blade 1 X force, node 1, N
         53   -9.80E+02                               F               0         ED Blade 1 Y force, node 1, N
         54   -9.57E+03                               F               0         ED Blade 1 Z force, node 1, N
         55    9.85E+04                               F               0         ED Blade 1 X force, node 2, N
         56    8.83E+02                               F               0         ED Blade 1 Y force, node 2, N
         57   -3.63E+04                               F               0         ED Blade 1 Z force, node 2, N
         58    1.47E+05                               F               0         ED Blade 1 X force, node 3, N
         59    1.24E+04                               F               0         ED Blade 1 Y force, node 3, N
         60   -4.28E+04                               F               0         ED Blade 1 Z force, node 3, N
         61    1.64E+04                               F               0         ED Blade 1 X moment, node 1, Nm
         62    8.97E+03                               F               0         ED Blade 1 Y moment, node 1, Nm
         63    3.78E+04                               F               0         ED Blade 1 Z moment, node 1, Nm
         64   -9.08E+04                               F               0         ED Blade 1 X moment, node 2, Nm
         65   -4.92E+04                               F               0         ED Blade 1 Y moment, node 2, Nm
         66   -1.86E+05                               F               0         ED Blade 1 Z moment, node 2, Nm
         67   -2.18E+05                               F               0         ED Blade 1 X moment, node 3, Nm
         68   -1.34E+05                               F               0         ED Blade 1 Y moment, node 3, Nm
         69   -6.29E+05                               F               0         ED Blade 1 Z moment, node 3, Nm
         70    2.27E+04                               F               0         ED Blade 2 X force, node 1, N
         71    6.64E+03                               F               0         ED Blade 2 Y force, node 1, N
         72    5.11E+02                               F               0         ED Blade 2 Z force, node 1, N
         73    9.36E+04                               F               0         ED Blade 2 X force, node 2, N
         74    2.16E+04                               F               0         ED Blade 2 Y force, node 2, N
         75    3.31E+03                               F               0         ED Blade 2 Z force, node 2, N
         76    1.38E+05                               F               0         ED Blade 2 X force, node 3, N
         77    1.74E+04                               F               0         ED Blade 2 Y force, node 3, N
         78    6.96E+03                               F               0         ED Blade 2 Z force, node 3, N
         79    1.09E+04                               F               0         ED Blade 2 X moment, node 1, Nm
         80   -3.57E+04                               F               0         ED Blade 2 Y moment, node 1, Nm
         81   -1.23E+04                               F               0         ED Blade 2 Z moment, node 1, Nm
         82   -6.70E+04                               F               0         ED Blade 2 X moment, node 2, Nm
         83    1.83E+05                               F               0         ED Blade 2 Y moment, node 2, Nm
         84    5.86E+04                               F               0         ED Blade 2 Z moment, node 2, Nm
         85   -1.21E+05                               F               0         ED Blade 2 X moment, node 3, Nm
         86    5.56E+05                               F               0         ED Blade 2 Y moment, node 3, Nm
         87    2.00E+05                               F               0         ED Blade 2 Z moment, node 3, Nm
         88    2.51E+04                               F               0         ED Blade 3 X force, node 1, N
         89   -6.47E+03                               F               0         ED Blade 3 Y force, node 1, N
         90    2.99E+03                               F               0         ED Blade 3 Z force, node 1, N
         91    1.02E+05                               F               0         ED Blade 3 X force, node 2, N
         92   -2.49E+04                               F               0         ED Blade 3 Y force, node 2, N
         93    5.98E+03                               F               0         ED Blade 3 Z force, node 2, N
         94    1.47E+05                               F               0         ED Blade 3 X force, node 3, N
         95   -3.09E+04                               F               0         ED Blade 3 Y force, node 3, N
         96   -6.23E+03                               F               0         ED Blade 3 Z force, node 3, N
         97    1.14E+04                               F               0         ED Blade 3 X moment, node 1, Nm
         98    3.08E+04                               F               0         ED Blade 3 Y moment, node 1, Nm
         99   -2.81E+04                               F               0         ED Blade 3 Z moment, node 1, Nm
        100   -6.91E+04                               F               0         ED Blade 3 X moment, node 2, Nm
        101   -1.48E+05                               F               0         ED Blade 3 Y moment, node 2, Nm
        102    1.54E+05                               F               0         ED Blade 3 Z moment, node 2, Nm
        103   -1.29E+05                               F               0         ED Blade 3 X moment, node 3, Nm
        104   -4.84E+05                               F               0         ED Blade 3 Y moment, node 3, Nm
        105    4.46E+05                               F               0         ED Blade 3 Z moment, node 3, Nm
        106    0.00E+00                               F               0         ED Platform X force, node 1, N
        107    0.00E+00                               F               0         ED Platform Y force, node 1, N
        108    0.00E+00                               F               0         ED Platform Z force, node 1, N
        109    0.00E+00                               F               0         ED Platform X moment, node 1, Nm
        110    0.00E+00                               F               0         ED Platform Y moment, node 1, Nm
        111    0.00E+00                               F               0         ED Platform Z moment, node 1, Nm
        112    0.00E+00                               F               0         ED Tower X force, node 1, N
        113    0.00E+00                               F               0         ED Tower Y force, node 1, N
        114    0.00E+00                               F               0         ED Tower Z force, node 1, N
        115    0.00E+00                               F               0         ED Tower X force, node 2, N
        116    0.00E+00                               F               0         ED Tower Y force, node 2, N
        117    0.00E+00                               F               0         ED Tower Z force, node 2, N
        118    0.00E+00                               F               0         ED Tower X force, node 3, N
        119    0.00E+00                               F               0         ED Tower Y force, node 3, N
        120    0.00E+00                               F               0         ED Tower Z force, node 3, N
        121    0.00E+00                               F               0         ED Tower X moment, node 1, Nm
        122    0.00E+00                               F               0         ED Tower Y moment, node 1, Nm
        123    0.00E+00                               F               0         ED Tower Z moment, node 1, Nm
        124    0.00E+00                               F               0         ED Tower X moment, node 2, Nm
        125    0.00E+00                               F               0         ED Tower Y moment, node 2, Nm
        126    0.00E+00                               F               0         ED Tower Z moment, node 2, Nm
        127    0.00E+00                               F               0         ED Tower X moment, node 3, Nm
        128    0.00E+00                               F               0         ED Tower Y moment, node 3, Nm
        129    0.00E+00                               F               0         ED Tower Z moment, node 3, Nm
        130    0.00E+00                               F               0         ED Hub X force, node 1, N
        131    0.00E+00                               F               0         ED Hub Y force, node 1, N
        132    0.00E+00                               F               0         ED Hub Z force, node 1, N
        133    0.00E+00                               F               0         ED Hub X moment, node 1, Nm
        134    0.00E+00                               F               0         ED Hub Y moment, node 1, Nm
        135    0.00E+00                               F               0         ED Hub Z moment, node 1, Nm
        136    0.00E+00                               F               0         ED Nacelle X force, node 1, N
        137    0.00E+00                               F               0         ED Nacelle Y force, node 1, N
        138    0.00E+00                               F               0         ED Nacelle Z force, node 1, N
        139    0.00E+00                               F               0         ED Nacelle X moment, node 1, Nm
        140    0.00E+00                               F               0         ED Nacelle Y moment, node 1, Nm
        141    0.00E+00                               F               0         ED Nacelle Z moment, node 1, Nm
        142    0.00E+00                               T               0         ED Blade 1 pitch command, rad
        143    0.00E+00                               T               0         ED Blade 2 pitch command, rad
        144    0.00E+00                               T               0         ED Blade 3 pitch command, rad
        145    0.00E+00                               F               0         ED Yaw moment, Nm
        146    0.00E+00                               F               0         ED Generator torque, Nm
        147    0.00E+00                               F               0         ED Extended input: collective blade-pitch command, rad
        148    0.00E+00                               F               0         AD Hub X translation displacement, node 1, m
        149    0.00E+00                               F               0         AD Hub Y translation displacement, node 1, m
        150    0.00E+00                               F               0         AD Hub Z translation displacement, node 1, m
        151    9.96E-01,  0.00E+00, -8.72E-02         F               0         AD Hub X orientation angle, node 1, rad
        152    8.58E-02,  1.76E-01,  9.81E-01         F               0         AD Hub Y orientation angle, node 1, rad
        153    1.53E-02, -9.84E-01,  1.75E-01         F               0         AD Hub Z orientation angle, node 1, rad
        154    1.26E+00                               F               0         AD Hub X rotation velocity, node 1, rad/s
        155   -0.00E+00                               F               0         AD Hub Y rotation velocity, node 1, rad/s
        156   -1.10E-01                               F               0         AD Hub Z rotation velocity, node 1, rad/s
        157    9.96E-01, -4.29E-02, -7.94E-02         F               0         AD Blade root 1 X orientation angle, node 1, rad
        158    8.58E-02,  1.76E-01,  9.81E-01         F               0         AD Blade root 1 Y orientation angle, node 1, rad
        159   -2.81E-02, -9.83E-01,  1.79E-01         F               0         AD Blade root 1 Z orientation angle, node 1, rad
        160    9.92E-01,  1.48E-02, -1.28E-01         F               0         AD Blade root 2 X orientation angle, node 1, rad
        161   -2.96E-02, -9.41E-01, -3.38E-01         F               0         AD Blade root 2 Y orientation angle, node 1, rad
        162   -1.25E-01,  3.39E-01, -9.32E-01         F               0         AD Blade root 2 Z orientation angle, node 1, rad
        163    9.98E-01,  2.81E-02, -5.39E-02         F               0         AD Blade root 3 X orientation angle, node 1, rad
        164   -5.62E-02,  7.64E-01, -6.42E-01         F               0         AD Blade root 3 Y orientation angle, node 1, rad
        165    2.31E-02,  6.44E-01,  7.65E-01         F               0         AD Blade root 3 Z orientation angle, node 1, rad
        166   -1.08E-01                               F               0         AD Blade 1 X translation displacement, node 1, m
        167   -1.48E+00                               F               0         AD Blade 1 Y translation displacement, node 1, m
        168   -1.23E+00                               F               0         AD Blade 1 Z translation displacement, node 1, m
        169   -1.29E+00                               F               0         AD Blade 1 X translation displacement, node 2, m
        170   -2.32E+01                               F               0         AD Blade 1 Y translation displacement, node 2, m
        171   -2.04E+01                               F               0         AD Blade 1 Z translation displacement, node 2, m
        172   -8.31E-01                               F               0         AD Blade 1 X translation displacement, node 3, m
        173   -4.36E+01                               F               0         AD Blade 1 Y translation displacement, node 3, m
        174   -3.75E+01                               F               0         AD Blade 1 Z translation displacement, node 3, m
        175    1.45E+00                               F               0         AD Blade 1 X translation displacement, node 4, m
        176   -6.18E+01                               F               0         AD Blade 1 Y translation displacement, node 4, m
        177   -5.32E+01                               F               0         AD Blade 1 Z translation displacement, node 4, m
        178    9.49E-01, -8.23E-02, -3.03E-01         F               0         AD Blade 1 X orientation angle, node 1, rad
        179    3.13E-01,  1.61E-01,  9.36E-01         F               0         AD Blade 1 Y orientation angle, node 1, rad
        180   -2.81E-02, -9.83E-01,  1.79E-01         F               0         AD Blade 1 Z orientation angle, node 1, rad
        181    9.70E-01, -1.17E-02, -2.42E-01         F               0         AD Blade 1 X orientation angle, node 2, rad
        182    2.41E-01,  1.66E-01,  9.56E-01         F               0         AD Blade 1 Y orientation angle, node 2, rad
        183    2.91E-02, -9.86E-01,  1.64E-01         F               0         AD Blade 1 Z orientation angle, node 2, rad
        184    9.83E-01,  9.44E-02, -1.57E-01         F               0         AD Blade 1 X orientation angle, node 3, rad
        185    1.40E-01,  1.64E-01,  9.76E-01         F               0         AD Blade 1 Y orientation angle, node 3, rad
        186    1.18E-01, -9.82E-01,  1.48E-01         F               0         AD Blade 1 Z orientation angle, node 3, rad
        187    9.73E-01,  1.98E-01, -1.20E-01         F               0         AD Blade 1 X orientation angle, node 4, rad
        188    8.97E-02,  1.54E-01,  9.84E-01         F               0         AD Blade 1 Y orientation angle, node 4, rad
        189    2.13E-01, -9.68E-01,  1.32E-01         F               0         AD Blade 1 Z orientation angle, node 4, rad
        190   -1.63E-01                               F               0         AD Blade 1 X translation velocity, node 1, m/s
        191   -3.34E-01                               F               0         AD Blade 1 Y translation velocity, node 1, m/s
        192   -1.86E+00                               F               0         AD Blade 1 Z translation velocity, node 1, m/s
        193   -3.14E+00                               F               0         AD Blade 1 X translation velocity, node 2, m/s
        194   -4.55E+00                               F               0         AD Blade 1 Y translation velocity, node 2, m/s