
Linearized model: Predictions were generated on 16-Apr-2024 at 14:29:28 using OpenFAST, compiled on Apr 16 2024 at 14:02:42 as a 64-bit application using double precision at commit v3.5.3-775-gce998242-dirty
 linked with  NWTC Subroutine Library; ElastoDyn; InflowWind; AeroDyn

Description from the FAST input file: One Blade, 4 aero-stations, Linearization with continuous States AeroDynamic modules

Simulation information:
   Simulation time:                     1.1000 s
   Rotor Speed:                         1.2671 rad/s
   Azimuth:                             1.3938 rad
   Wind Speed:                         13.0000 m/s
   Number of continuous states:         9
   Number of discrete states:           0
   Number of constraint states:         0
   Number of inputs:                  246
   Number of outputs:                  13
   Jacobians included in this file?    No

Order of continuous states:
   Row/Column Operating Point                                                   Rotating Frame? Derivative Order Description
   ---------- ---------------                                                   --------------- ---------------- -----------
          1    5.092706438286E-001                                                     T               1         x4 blade 1, node 2, -
          2    5.643786533829E-001                                                     T               1         x4 blade 1, node 3, -
          3    5.181655012006E-001                                                     T               1         x4 blade 1, node 4, -
          4    5.611177768645E-001                                                     T               1         x4 blade 2, node 2, -
          5    5.786146812180E-001                                                     T               1         x4 blade 2, node 3, -
          6    5.194819661896E-001                                                     T               1         x4 blade 2, node 4, -
          7    5.115141243550E-001                                                     T               1         x4 blade 3, node 2, -
          8    5.715877374362E-001                                                     T               1         x4 blade 3, node 3, -
          9    5.194013718460E-001                                                     T               1         x4 blade 3, node 4, -

Order of continuous state derivatives:
   Row/Column Operating Point                                                   Rotating Frame? Derivative Order Description
   ---------- ---------------                                                   --------------- ---------------- -----------
          1   -1.180681431039E-003                                                     T               1         First time derivative of x4 blade 1, node 2, -/s
          2   -7.860283815772E-002                                                     T               1         First time derivative of x4 blade 1, node 3, -/s
          3    2.808012971126E-003                                                     T               1         First time derivative of x4 blade 1, node 4, -/s
          4   -2.558442440774E-002                                                     T               1         First time derivative of x4 blade 2, node 2, -/s
          5   -6.026297597235E-002                                                     T               1         First time derivative of x4 blade 2, node 3, -/s
          6    3.287494769553E-003                                                     T               1         First time derivative of x4 blade 2, node 4, -/s
          7   -4.359809318748E-002                                                     T               1         First time derivative of x4 blade 3, node 2, -/s
          8   -1.090079465796E-001                                                     T               1         First time derivative of x4 blade 3, node 3, -/s
          9    1.650799101756E-003                                                     T               1         First time derivative of x4 blade 3, node 4, -/s

Order of inputs:
     Column   Operating Point                                                   Rotating Frame? Derivative Order Description
   ---------- ---------------                                                   --------------- ---------------- -----------
          1    0.000000000000E+000                                                     F               0         Hub X translation displacement, node 1, m
          2    0.000000000000E+000                                                     F               0         Hub Y translation displacement, node 1, m
          3    0.000000000000E+000                                                     F               0         Hub Z translation displacement, node 1, m
          4    9.961946980917E-001,  0.000000000000E+000, -8.715574274766E-002         F               0         Hub X orientation angle, node 1, rad
          5    8.579441458219E-002,  1.760539961798E-001,  9.806346459592E-001         F               0         Hub Y orientation angle, node 1, rad
          6    1.534411680074E-002, -9.843805109962E-001,  1.753840575722E-001         F               0         Hub Z orientation angle, node 1, rad
          7    1.262287304512E+000                                                     F               0         Hub X rotation velocity, node 1, rad/s
          8   -0.000000000000E+000                                                     F               0         Hub Y rotation velocity, node 1, rad/s
          9   -1.104358292575E-001                                                     F               0         Hub Z rotation velocity, node 1, rad/s
         10    9.959158424523E-001, -4.293807482403E-002, -7.942264464775E-002         F               0         Blade root 1 X orientation angle, node 1, rad
         11    8.579441458219E-002,  1.760539961798E-001,  9.806346459592E-001         F               0         Blade root 1 Y orientation angle, node 1, rad
         12   -2.812388982583E-002, -9.834435988706E-001,  1.790188109153E-001         F               0         Blade root 1 Z orientation angle, node 1, rad
         13    9.916709642922E-001,  1.481851010962E-002, -1.279418240368E-001         F               0         Blade root 2 X orientation angle, node 1, rad
         14   -2.960881234302E-002, -9.405255276029E-001, -3.384302737033E-001         F               0         Blade root 2 Y orientation angle, node 1, rad
         15   -1.253475839870E-001,  3.393996813278E-001, -9.322530984144E-001         F               0         Blade root 2 Z orientation angle, node 1, rad
         16    9.981528176889E-001,  2.811956471441E-002, -5.385390069351E-002         F               0         Blade root 3 X orientation angle, node 1, rad
         17   -5.618560223918E-002,  7.644715314231E-001, -6.422043722559E-001         F               0         Blade root 3 Y orientation angle, node 1, rad
         18    2.311126653075E-002,  6.440439175428E-001,  7.646393278111E-001         F               0         Blade root 3 Z orientation angle, node 1, rad
         19   -1.076149157867E-001                                                     F               0         Blade 1 X translation displacement, node 1, m
         20   -1.475165398306E+000                                                     F               0         Blade 1 Y translation displacement, node 1, m
         21   -1.230044116000E+000                                                     F               0         Blade 1 Z translation displacement, node 1, m
         22   -1.292504521048E+000                                                     F               0         Blade 1 X translation displacement, node 2, m
         23   -2.324736265179E+001                                                     F               0         Blade 1 Y translation displacement, node 2, m
         24   -2.037945448494E+001                                                     F               0         Blade 1 Z translation displacement, node 2, m
         25   -8.306028719736E-001                                                     F               0         Blade 1 X translation displacement, node 3, m
         26   -4.356927640411E+001                                                     F               0         Blade 1 Y translation displacement, node 3, m
         27   -3.752262947815E+001                                                     F               0         Blade 1 Z translation displacement, node 3, m
         28    1.453653296789E+000                                                     F               0         Blade 1 X translation displacement, node 4, m
         29   -6.175275351993E+001                                                     F               0         Blade 1 Y translation displacement, node 4, m
         30   -5.320176325985E+001                                                     F               0         Blade 1 Z translation displacement, node 4, m
         31    9.494236174756E-001, -8.231014525657E-002, -3.030178782967E-001         F               0         Blade 1 X orientation angle, node 1, rad
         32    3.127360570843E-001,  1.614426456309E-001,  9.360194606797E-001         F               0         Blade 1 Y orientation angle, node 1, rad
         33   -2.812388982583E-002, -9.834435988706E-001,  1.790188109153E-001         F               0         Blade 1 Z orientation angle, node 1, rad
         34    9.701641642449E-001, -1.172914366398E-002, -2.421650709823E-001         F               0         Blade 1 X orientation angle, node 2, rad
         35    2.406989796374E-001,  1.663872805033E-001,  9.562318098078E-001         F               0         Blade 1 Y orientation angle, node 2, rad
         36    2.907740732034E-002, -9.859907200758E-001,  1.642461698424E-001         F               0         Blade 1 Z orientation angle, node 2, rad
         37    9.830585914637E-001,  9.435711454824E-002, -1.571386034162E-001         F               0         Blade 1 X orientation angle, node 3, rad
         38    1.403704664423E-001,  1.637237287100E-001,  9.764684699508E-001         F               0         Blade 1 Y orientation angle, node 3, rad
         39    1.178640653475E-001, -9.819833377361E-001,  1.477050659536E-001         F               0         Blade 1 Z orientation angle, node 3, rad
         40    9.729249114790E-001,  1.977089276155E-001, -1.197008628403E-001         F               0         Blade 1 X orientation angle, node 4, rad
         41    8.968204875923E-002,  1.543865275288E-001,  9.839318727676E-001         F               0         Blade 1 Y orientation angle, node 4, rad
         42    2.130123159677E-001, -9.680268488315E-001,  1.324755569430E-001         F               0         Blade 1 Z orientation angle, node 4, rad
         43   -1.629111140538E-001                                                     F               0         Blade 1 X translation velocity, node 1, m/s
         44   -3.343009307885E-001                                                     F               0         Blade 1 Y translation velocity, node 1, m/s
         45   -1.862082554336E+000                                                     F               0         Blade 1 Z translation velocity, node 1, m/s
         46   -3.144646455813E+000                                                     F               0         Blade 1 X translation velocity, node 2, m/s
         47   -4.545179638535E+000                                                     F               0         Blade 1 Y translation velocity, node 2, m/s
         48   -2.984683125320E+001                                                     F               0         Blade 1 Z translation velocity, node 2, m/s
         49   -7.462475921101E+000                                                     F               0         Blade 1 X translation velocity, node 3, m/s
         50   -8.973262866725E+000                                                     F               0         Blade 1 Y translation velocity, node 3, m/s
         51   -5.477487306352E+001                                                     F               0         Blade 1 Z translation velocity, node 3, m/s
         52   -1.336095143928E+001                                                     F               0         Blade 1 X translation velocity, node 4, m/s
         53   -1.331747084050E+001                                                     F               0         Blade 1 Y translation velocity, node 4, m/s
         54   -7.659852550304E+001                                                     F               0         Blade 1 Z translation velocity, node 4, m/s
         55    1.262287304512E+000                                                     F               0         Blade 1 X rotation velocity, node 1, rad/s
         56   -0.000000000000E+000                                                     F               0         Blade 1 Y rotation velocity, node 1, rad/s
         57   -1.104358292575E-001                                                     F               0         Blade 1 Z rotation velocity, node 1, rad/s
         58    1.245813347823E+000                                                     F               0         Blade 1 X rotation velocity, node 2, rad/s
         59   -1.069608007418E-002                                                     F               0         Blade 1 Y rotation velocity, node 2, rad/s
         60   -1.717830316476E-001                                                     F               0         Blade 1 Z rotation velocity, node 2, rad/s
         61    1.228296081337E+000                                                     F               0         Blade 1 X rotation velocity, node 3, rad/s
         62   -2.780622170828E-002                                                     F               0         Blade 1 Y rotation velocity, node 3, rad/s
         63   -2.685299201448E-001                                                     F               0         Blade 1 Z rotation velocity, node 3, rad/s
         64    1.214085847178E+000                                                     F               0         Blade 1 X rotation velocity, node 4, rad/s
         65   -4.690842727413E-002                                                     F               0         Blade 1 Y rotation velocity, node 4, rad/s
         66   -3.757007182852E-001                                                     F               0         Blade 1 Z rotation velocity, node 4, rad/s
         67   -3.691880051317E-002                                                     F               0         Blade 1 X translation acceleration, node 1, m/s^2
         68    2.368474392267E+000                                                     F               0         Blade 1 Y translation acceleration, node 1, m/s^2
         69   -4.219838208207E-001                                                     F               0         Blade 1 Z translation acceleration, node 1, m/s^2
         70   -9.876934488627E-001                                                     F               0         Blade 1 X translation acceleration, node 2, m/s^2
         71    3.791860314826E+001                                                     F               0         Blade 1 Y translation acceleration, node 2, m/s^2
         72   -5.583800577655E+000                                                     F               0         Blade 1 Z translation acceleration, node 2, m/s^2
         73   -3.552159232413E+000                                                     F               0         Blade 1 X translation acceleration, node 3, m/s^2
         74    6.955786756335E+001                                                     F               0         Blade 1 Y translation acceleration, node 3, m/s^2
         75   -1.089911428101E+001                                                     F               0         Blade 1 Z translation acceleration, node 3, m/s^2
         76   -8.057954779055E+000                                                     F               0         Blade 1 X translation acceleration, node 4, m/s^2
         77    9.741000226192E+001                                                     F               0         Blade 1 Y translation acceleration, node 4, m/s^2
         78   -1.612322765906E+001                                                     F               0         Blade 1 Z translation acceleration, node 4, m/s^2
         79   -5.753667999493E-002                                                     F               0         Blade 2 X translation displacement, node 1, m
         80    1.806901231235E+000                                                     F               0         Blade 2 Y translation displacement, node 1, m
         81   -6.576472616692E-001                                                     F               0         Blade 2 Z translation displacement, node 1, m
         82   -4.712769340882E-001                                                     F               0         Blade 2 X translation displacement, node 2, m
         83    2.928357628145E+001                                                     F               0         Blade 2 Y translation displacement, node 2, m
         84   -9.928170502956E+000                                                     F               0         Blade 2 Z translation displacement, node 2, m
         85    3.085367441107E-001                                                     F               0         Blade 2 X translation displacement, node 3, m
         86    5.415093598319E+001                                                     F               0         Blade 2 Y translation displacement, node 3, m
         87   -1.914972968741E+001                                                     F               0         Blade 2 Z translation displacement, node 3, m
         88    2.543060921176E+000                                                     F               0         Blade 2 X translation displacement, node 4, m
         89    7.655786459251E+001                                                     F               0         Blade 2 Y translation displacement, node 4, m
         90   -2.752532343255E+001                                                     F               0         Blade 2 Z translation displacement, node 4, m
         91    9.718568910412E-001,  2.309160331025E-001, -4.660438812009E-002         F               0         Blade 2 X orientation angle, node 1, rad
         92    1.994546728569E-001, -9.118583453425E-001, -3.587926859688E-001         F               0         Blade 2 Y orientation angle, node 1, rad
         93   -1.253475839870E-001,  3.393996813278E-001, -9.322530984144E-001         F               0         Blade 2 Z orientation angle, node 1, rad
         94    9.889524502238E-001,  1.454599649863E-001, -2.853856658011E-002         F               0         Blade 2 X orientation angle, node 2, rad
         95    1.259887037666E-001, -9.262603552434E-001, -3.552021971041E-001         F               0         Blade 2 Y orientation angle, node 2, rad
         96   -7.810184197246E-002,  3.476825461402E-001, -9.343537603017E-001         F               0         Blade 2 Z orientation angle, node 2, rad
         97    9.997026657228E-001,  2.402127875626E-002,  4.190264153312E-003         F               0         Blade 2 X orientation angle, node 3, rad
         98    2.395283815379E-002, -9.352431932150E-001, -3.531946079564E-001         F               0         Blade 2 Y orientation angle, node 3, rad
         99   -4.565270105770E-003,  3.531899598120E-001, -9.355404911584E-001         F               0         Blade 2 Z orientation angle, node 3, rad
        100    9.967571700119E-001, -5.311418935126E-002,  6.044854770362E-002         F               0         Blade 2 X orientation angle, node 4, rad
        101   -2.822501926253E-002, -9.342548150539E-001, -3.554873961706E-001         F               0         Blade 2 Y orientation angle, node 4, rad
        102    7.535577162732E-002,  3.526284495586E-001, -9.327243345407E-001         F               0         Blade 2 Z orientation angle, node 4, rad
        103    5.622282788573E-002                                                     F               0         Blade 2 X translation velocity, node 1, m/s
        104    1.785921172655E+000                                                     F               0         Blade 2 Y translation velocity, node 1, m/s
        105    6.426298633430E-001                                                     F               0         Blade 2 Z translation velocity, node 1, m/s
        106    3.885391643509E-001                                                     F               0         Blade 2 X translation velocity, node 2, m/s
        107    2.825657266800E+001                                                     F               0         Blade 2 Y translation velocity, node 2, m/s
        108    1.105092460752E+001                                                     F               0         Blade 2 Z translation velocity, node 2, m/s
        109   -1.145249803618E+000                                                     F               0         Blade 2 X translation velocity, node 3, m/s
        110    5.231303831065E+001                                                     F               0         Blade 2 Y translation velocity, node 3, m/s
        111    1.994856707479E+001                                                     F               0         Blade 2 Z translation velocity, node 3, m/s
        112   -4.797822204650E+000                                                     F               0         Blade 2 X translation velocity, node 4, m/s
        113    7.382770631616E+001                                                     F               0         Blade 2 Y translation velocity, node 4, m/s
        114    2.770045061728E+001                                                     F               0         Blade 2 Z translation velocity, node 4, m/s
        115    1.262287304512E+000                                                     F               0         Blade 2 X rotation velocity, node 1, rad/s
        116    0.000000000000E+000                                                     F               0         Blade 2 Y rotation velocity, node 1, rad/s
        117   -1.104358292575E-001                                                     F               0         Blade 2 Z rotation velocity, node 1, rad/s
        118    1.252403107202E+000                                                     F               0         Blade 2 X rotation velocity, node 2, rad/s
        119    6.461840141882E-002                                                     F               0         Blade 2 Y rotation velocity, node 2, rad/s
        120   -8.558160765038E-002                                                     F               0         Blade 2 Z rotation velocity, node 2, rad/s
        121    1.245878910642E+000                                                     F               0         Blade 2 X rotation velocity, node 3, rad/s
        122    1.659619653530E-001                                                     F               0         Blade 2 Y rotation velocity, node 3, rad/s
        123   -4.780885512206E-002                                                     F               0         Blade 2 Z rotation velocity, node 3, rad/s
        124    1.244214932516E+000                                                     F               0         Blade 2 X rotation velocity, node 4, rad/s
        125    2.778796710812E-001                                                     F               0         Blade 2 Y rotation velocity, node 4, rad/s
        126   -6.839927947721E-003                                                     F               0         Blade 2 Z rotation velocity, node 4, rad/s
        127    1.972296856906E-001                                                     F               0         Blade 2 X translation acceleration, node 1, m/s^2
        128   -8.173925326187E-001                                                     F               0         Blade 2 Y translation acceleration, node 1, m/s^2
        129    2.254345623101E+000                                                     F               0         Blade 2 Z translation acceleration, node 1, m/s^2
        130    3.070072982936E+000                                                     F               0         Blade 2 X translation acceleration, node 2, m/s^2
        131   -1.394818857283E+001                                                     F               0         Blade 2 Y translation acceleration, node 2, m/s^2
        132    3.554247904142E+001                                                     F               0         Blade 2 Z translation acceleration, node 2, m/s^2
        133    5.446150974131E+000                                                     F               0         Blade 2 X translation acceleration, node 3, m/s^2
        134   -2.476670746447E+001                                                     F               0         Blade 2 Y translation acceleration, node 3, m/s^2
        135    6.580911215596E+001                                                     F               0         Blade 2 Z translation acceleration, node 3, m/s^2
        136    7.222435963337E+000                                                     F               0         Blade 2 X translation acceleration, node 4, m/s^2
        137   -3.387226181833E+001                                                     F               0         Blade 2 Y translation acceleration, node 4, m/s^2
        138    9.346680103703E+001                                                     F               0         Blade 2 Z translation acceleration, node 4, m/s^2
        139    1.651515957817E-001                                                     F               0         Blade 3 X translation displacement, node 1, m
        140   -3.317358329291E-001                                                     F               0         Blade 3 Y translation displacement, node 1, m
        141    1.887691377669E+000                                                     F               0         Blade 3 Z translation displacement, node 1, m
        142    3.083134140433E+000                                                     F               0         Blade 3 X translation displacement, node 2, m
        143   -6.048141558654E+000                                                     F               0         Blade 3 Y translation displacement, node 2, m
        144    3.017909234841E+001                                                     F               0         Blade 3 Z translation displacement, node 2, m
        145    7.114639386200E+000                                                     F               0         Blade 3 X translation displacement, node 3, m
        146   -1.061232041326E+001                                                     F               0         Blade 3 Y translation displacement, node 3, m
        147    5.603313351938E+001                                                     F               0         Blade 3 Z translation displacement, node 3, m
        148    1.243930144692E+001                                                     F               0         Blade 3 X translation displacement, node 4, m
        149   -1.481350598029E+001                                                     F               0         Blade 3 Y translation displacement, node 4, m
        150    7.912809491832E+001                                                     F               0         Blade 3 Z translation displacement, node 4, m
        151    9.842822803210E-001, -1.486058878459E-001,  9.541846123070E-002         F               0         Blade 3 X orientation angle, node 1, rad
        152    1.750835857682E-001,  7.504156997116E-001, -6.373554860679E-001         F               0         Blade 3 Y orientation angle, node 1, rad
        153    2.311126653075E-002,  6.440439175428E-001,  7.646393278111E-001         F               0         Blade 3 Z orientation angle, node 1, rad
        154    9.919820704760E-001, -1.262135745951E-001,  6.457975075941E-003         F               0         Blade 3 X orientation angle, node 2, rad
        155    1.008784691600E-001,  7.600084051471E-001, -6.420364152957E-001         F               0         Blade 3 Y orientation angle, node 2, rad
        156    7.612559565675E-002,  6.375400832055E-001,  7.666469435093E-001         F               0         Blade 3 Z orientation angle, node 2, rad
        157    9.875289731534E-001, -9.964907911738E-002, -1.218876048401E-001         F               0         Blade 3 X orientation angle, node 3, rad
        158   -8.421889029938E-004,  7.708426904822E-001, -6.370249895005E-001         F               0         Blade 3 Y orientation angle, node 3, rad
        159    1.574351228298E-001,  6.291832861426E-001,  7.611455672460E-001         F               0         Blade 3 Z orientation angle, node 3, rad
        160    9.683543740826E-001, -1.145626563505E-001, -2.217322799345E-001         F               0         Blade 3 X orientation angle, node 4, rad
        161   -5.166019788597E-002,  7.771778453060E-001, -6.271569346821E-001         F               0         Blade 3 Y orientation angle, node 4, rad
        162    2.441741799401E-001,  6.187648943948E-001,  7.466652364448E-001         F               0         Blade 3 Z orientation angle, node 4, rad