
Linearized model: Predictions were generated on 13-Sep-2024 at 18:19:15 using OpenFAST, compiled on Sep 13 2024 at 17:02:28 as a 64-bit application using double precision at commit HEAD-HASH-NOTFOUND
 linked with  NWTC Subroutine Library; ElastoDyn; InflowWind; AeroDyn

Description from the FAST input file: Three blades, 4 aero-stations, Linearization with continuous-state aerodynamic modules

Simulation information:
   Simulation time:                     1.1000 s
   Rotor Speed:                         1.2671 rad/s
   Azimuth:                             1.3938 rad
   Wind Speed:                         13.0000 m/s
   Number of continuous states:         9
   Number of discrete states:           0
   Number of constraint states:         0
   Number of inputs:                  255
   Number of outputs:                  13
   Jacobians included in this file?    No

Order of continuous states:
   Row/Column Operating Point                                                   Rotating Frame? Derivative Order Description
   ---------- ---------------                                                   --------------- ---------------- -----------
          1    5.094491319112E-001                                                     T               1         x4 blade 1, node 2, -
          2    5.648138082388E-001                                                     T               1         x4 blade 1, node 3, -
          3    5.181924187486E-001                                                     T               1         x4 blade 1, node 4, -
          4    5.614717407209E-001                                                     T               1         x4 blade 2, node 2, -
          5    5.788476958512E-001                                                     T               1         x4 blade 2, node 3, -
          6    5.194981208435E-001                                                     T               1         x4 blade 2, node 4, -
          7    5.113751628321E-001                                                     T               1         x4 blade 3, node 2, -
          8    5.721037338289E-001                                                     T               1         x4 blade 3, node 3, -
          9    5.194172675828E-001                                                     T               1         x4 blade 3, node 4, -

Order of continuous state derivatives:
   Row/Column Operating Point                                                   Rotating Frame? Derivative Order Description
   ---------- ---------------                                                   --------------- ---------------- -----------
          1   -1.153885854978E-003                                                     T               1         First time derivative of x4 blade 1, node 2, -/s
          2   -7.834126127365E-002                                                     T               1         First time derivative of x4 blade 1, node 3, -/s
          3    2.804836139300E-003                                                     T               1         First time derivative of x4 blade 1, node 4, -/s
          4   -2.574381719193E-002                                                     T               1         First time derivative of x4 blade 2, node 2, -/s
          5   -6.047501772167E-002                                                     T               1         First time derivative of x4 blade 2, node 3, -/s
          6    3.270133600778E-003                                                     T               1         First time derivative of x4 blade 2, node 4, -/s
          7   -4.338841315587E-002                                                     T               1         First time derivative of x4 blade 3, node 2, -/s
          8   -1.090505305973E-001                                                     T               1         First time derivative of x4 blade 3, node 3, -/s
          9    1.645503703462E-003                                                     T               1         First time derivative of x4 blade 3, node 4, -/s

Order of inputs:
     Column   Operating Point                                                   Rotating Frame? Derivative Order Description
   ---------- ---------------                                                   --------------- ---------------- -----------
          1    0.000000000000E+000                                                     F               0         Nacelle X translation displacement, node 1, m
          2    0.000000000000E+000                                                     F               0         Nacelle Y translation displacement, node 1, m
          3    0.000000000000E+000                                                     F               0         Nacelle Z translation displacement, node 1, m
          4    1.000000000000E+000,  0.000000000000E+000,  0.000000000000E+000         F               0         Nacelle X orientation angle, node 1, rad
          5    0.000000000000E+000,  1.000000000000E+000,  0.000000000000E+000         F               0         Nacelle Y orientation angle, node 1, rad
          6    0.000000000000E+000,  0.000000000000E+000,  1.000000000000E+000         F               0         Nacelle Z orientation angle, node 1, rad
          7    0.000000000000E+000                                                     F               0         Hub X translation displacement, node 1, m
          8    0.000000000000E+000                                                     F               0         Hub Y translation displacement, node 1, m
          9    0.000000000000E+000                                                     F               0         Hub Z translation displacement, node 1, m
         10    9.961946980917E-001,  0.000000000000E+000, -8.715574274766E-002         F               0         Hub X orientation angle, node 1, rad
         11    8.579441458219E-002,  1.760539961798E-001,  9.806346459592E-001         F               0         Hub Y orientation angle, node 1, rad
         12    1.534411680074E-002, -9.843805109962E-001,  1.753840575722E-001         F               0         Hub Z orientation angle, node 1, rad
         13    1.262287304512E+000                                                     F               0         Hub X rotation velocity, node 1, rad/s
         14   -0.000000000000E+000                                                     F               0         Hub Y rotation velocity, node 1, rad/s
         15   -1.104358292575E-001                                                     F               0         Hub Z rotation velocity, node 1, rad/s
         16    9.959158424523E-001, -4.293807482403E-002, -7.942264464775E-002         F               0         Blade root 1 X orientation angle, node 1, rad
         17    8.579441458219E-002,  1.760539961798E-001,  9.806346459592E-001         F               0         Blade root 1 Y orientation angle, node 1, rad
         18   -2.812388982583E-002, -9.834435988706E-001,  1.790188109153E-001         F               0         Blade root 1 Z orientation angle, node 1, rad
         19    9.916709642922E-001,  1.481851010962E-002, -1.279418240368E-001         F               0         Blade root 2 X orientation angle, node 1, rad
         20   -2.960881234302E-002, -9.405255276029E-001, -3.384302737033E-001         F               0         Blade root 2 Y orientation angle, node 1, rad
         21   -1.253475839870E-001,  3.393996813278E-001, -9.322530984144E-001         F               0         Blade root 2 Z orientation angle, node 1, rad
         22    9.981528176889E-001,  2.811956471441E-002, -5.385390069351E-002         F               0         Blade root 3 X orientation angle, node 1, rad
         23   -5.618560223918E-002,  7.644715314231E-001, -6.422043722559E-001         F               0         Blade root 3 Y orientation angle, node 1, rad
         24    2.311126653075E-002,  6.440439175428E-001,  7.646393278111E-001         F               0         Blade root 3 Z orientation angle, node 1, rad
         25   -1.076149157867E-001                                                     F               0         Blade 1 X translation displacement, node 1, m
         26   -1.475165398306E+000                                                     F               0         Blade 1 Y translation displacement, node 1, m
         27   -1.230044116000E+000                                                     F               0         Blade 1 Z translation displacement, node 1, m
         28   -1.293852495766E+000                                                     F               0         Blade 1 X translation displacement, node 2, m
         29   -2.324729764435E+001                                                     F               0         Blade 1 Y translation displacement, node 2, m
         30   -2.037903803419E+001                                                     F               0         Blade 1 Z translation displacement, node 2, m
         31   -8.374163558911E-001                                                     F               0         Blade 1 X translation displacement, node 3, m
         32   -4.356939452626E+001                                                     F               0         Blade 1 Y translation displacement, node 3, m
         33   -3.752081194693E+001                                                     F               0         Blade 1 Z translation displacement, node 3, m
         34    1.436831645361E+000                                                     F               0         Blade 1 X translation displacement, node 4, m
         35   -6.175419654884E+001                                                     F               0         Blade 1 Y translation displacement, node 4, m
         36   -5.319770129642E+001                                                     F               0         Blade 1 Z translation displacement, node 4, m
         37    9.494236174756E-001, -8.231014525657E-002, -3.030178782967E-001         F               0         Blade 1 X orientation angle, node 1, rad
         38    3.127360570843E-001,  1.614426456309E-001,  9.360194606797E-001         F               0         Blade 1 Y orientation angle, node 1, rad
         39   -2.812388982583E-002, -9.834435988706E-001,  1.790188109153E-001         F               0         Blade 1 Z orientation angle, node 1, rad
         40    9.701689229211E-001, -1.189188107881E-002, -2.421380683878E-001         F               0         Blade 1 X orientation angle, node 2, rad
         41    2.406990354712E-001,  1.663890567728E-001,  9.562314866754E-001         F               0         Blade 1 Y orientation angle, node 2, rad
         42    2.891773368449E-002, -9.859884710029E-001,  1.642878563007E-001         F               0         Blade 1 Z orientation angle, node 2, rad
         43    9.831067873059E-001,  9.395472771167E-002, -1.570781776495E-001         F               0         Blade 1 X orientation angle, node 3, rad
         44    1.403674818990E-001,  1.637496041490E-001,  9.764645601180E-001         F               0         Blade 1 Y orientation angle, node 3, rad
         45    1.174649512765E-001, -9.820176048736E-001,  1.477951587162E-001         F               0         Blade 1 Z orientation angle, node 3, rad
         46    9.730655510003E-001,  1.970687975429E-001, -1.196132203872E-001         F               0         Blade 1 X orientation angle, node 4, rad
         47    8.966944945516E-002,  1.544438740953E-001,  9.839240212480E-001         F               0         Blade 1 Y orientation angle, node 4, rad
         48    2.123742528906E-001, -9.681482214978E-001,  1.326129628647E-001         F               0         Blade 1 Z orientation angle, node 4, rad
         49   -1.629111140538E-001                                                     F               0         Blade 1 X translation velocity, node 1, m/s
         50   -3.343009307885E-001                                                     F               0         Blade 1 Y translation velocity, node 1, m/s
         51   -1.862082554336E+000                                                     F               0         Blade 1 Z translation velocity, node 1, m/s
         52   -3.141120463903E+000                                                     F               0         Blade 1 X translation velocity, node 2, m/s
         53   -4.545701478542E+000                                                     F               0         Blade 1 Y translation velocity, node 2, m/s
         54   -2.984784122788E+001                                                     F               0         Blade 1 Z translation velocity, node 2, m/s
         55   -7.444751333478E+000                                                     F               0         Blade 1 X translation velocity, node 3, m/s
         56   -8.973940478835E+000                                                     F               0         Blade 1 Y translation velocity, node 3, m/s
         57   -5.477985840487E+001                                                     F               0         Blade 1 Z translation velocity, node 3, m/s
         58   -1.331698770796E+001                                                     F               0         Blade 1 X translation velocity, node 4, m/s
         59   -1.331417786384E+001                                                     F               0         Blade 1 Y translation velocity, node 4, m/s
         60   -7.661148929230E+001                                                     F               0         Blade 1 Z translation velocity, node 4, m/s
         61    1.262287304512E+000                                                     F               0         Blade 1 X rotation velocity, node 1, rad/s
         62   -0.000000000000E+000                                                     F               0         Blade 1 Y rotation velocity, node 1, rad/s
         63   -1.104358292575E-001                                                     F               0         Blade 1 Z rotation velocity, node 1, rad/s
         64    1.245924611210E+000                                                     F               0         Blade 1 X rotation velocity, node 2, rad/s
         65   -1.062383986396E-002                                                     F               0         Blade 1 Y rotation velocity, node 2, rad/s
         66   -1.713686990354E-001                                                     F               0         Blade 1 Z rotation velocity, node 2, rad/s
         67    1.228525654516E+000                                                     F               0         Blade 1 X rotation velocity, node 3, rad/s
         68   -2.761842138446E-002                                                     F               0         Blade 1 Y rotation velocity, node 3, rad/s
         69   -2.674621691294E-001                                                     F               0         Blade 1 Z rotation velocity, node 3, rad/s
         70    1.214411394798E+000                                                     F               0         Blade 1 X rotation velocity, node 4, rad/s
         71   -4.659161264450E-002                                                     F               0         Blade 1 Y rotation velocity, node 4, rad/s
         72   -3.739091468671E-001                                                     F               0         Blade 1 Z rotation velocity, node 4, rad/s
         73   -3.691880051317E-002                                                     F               0         Blade 1 X translation acceleration, node 1, m/s^2
         74    2.368474392267E+000                                                     F               0         Blade 1 Y translation acceleration, node 1, m/s^2
         75   -4.219838208207E-001                                                     F               0         Blade 1 Z translation acceleration, node 1, m/s^2
         76   -9.710706487092E-001                                                     F               0         Blade 1 X translation acceleration, node 2, m/s^2
         77    3.791942540122E+001                                                     F               0         Blade 1 Y translation acceleration, node 2, m/s^2
         78   -5.589414957270E+000                                                     F               0         Blade 1 Z translation acceleration, node 2, m/s^2
         79   -3.467792697842E+000                                                     F               0         Blade 1 X translation acceleration, node 3, m/s^2
         80    6.956503939553E+001                                                     F               0         Blade 1 Y translation acceleration, node 3, m/s^2
         81   -1.091921772040E+001                                                     F               0         Blade 1 Z translation acceleration, node 3, m/s^2
         82   -7.844783901655E+000                                                     F               0         Blade 1 X translation acceleration, node 4, m/s^2
         83    9.743718451103E+001                                                     F               0         Blade 1 Y translation acceleration, node 4, m/s^2
         84   -1.615999746133E+001                                                     F               0         Blade 1 Z translation acceleration, node 4, m/s^2
         85    0.000000000000E+000                                                     F               0         Blade 1 X rotation acceleration, node 1, rad/s^2
         86   -0.000000000000E+000                                                     F               0         Blade 1 Y rotation acceleration, node 1, rad/s^2
         87    0.000000000000E+000                                                     F               0         Blade 1 Z rotation acceleration, node 1, rad/s^2
         88   -1.617488890402E-002                                                     F               0         Blade 1 X rotation acceleration, node 2, rad/s^2
         89   -1.050190371269E-002                                                     F               0         Blade 1 Y rotation acceleration, node 2, rad/s^2
         90   -6.023350686190E-002                                                     F               0         Blade 1 Z rotation acceleration, node 2, rad/s^2
         91   -3.337414738662E-002                                                     F               0         Blade 1 X rotation acceleration, node 3, rad/s^2
         92   -2.730142827734E-002                                                     F               0         Blade 1 Y rotation acceleration, node 3, rad/s^2
         93   -1.552240548433E-001                                                     F               0         Blade 1 Z rotation acceleration, node 3, rad/s^2
         94   -4.732640932186E-002                                                     F               0         Blade 1 X rotation acceleration, node 4, rad/s^2
         95   -4.605685289657E-002                                                     F               0         Blade 1 Y rotation acceleration, node 4, rad/s^2
         96   -2.604492770815E-001                                                     F               0         Blade 1 Z rotation acceleration, node 4, rad/s^2
         97   -5.753667999493E-002                                                     F               0         Blade 2 X translation displacement, node 1, m
         98    1.806901231235E+000                                                     F               0         Blade 2 Y translation displacement, node 1, m
         99   -6.576472616692E-001                                                     F               0         Blade 2 Z translation displacement, node 1, m
        100   -4.722200173131E-001                                                     F               0         Blade 2 X translation displacement, node 2, m
        101    2.928337591976E+001                                                     F               0         Blade 2 Y translation displacement, node 2, m
        102   -9.928145539784E+000                                                     F               0         Blade 2 Z translation displacement, node 2, m
        103    3.037930439684E-001                                                     F               0         Blade 2 X translation displacement, node 3, m
        104    5.415022879912E+001                                                     F               0         Blade 2 Y translation displacement, node 3, m
        105   -1.914972311680E+001                                                     F               0         Blade 2 Z translation displacement, node 3, m
        106    2.531271432885E+000                                                     F               0         Blade 2 X translation displacement, node 4, m
        107    7.655671333165E+001                                                     F               0         Blade 2 Y translation displacement, node 4, m
        108   -2.752572084400E+001                                                     F               0         Blade 2 Z translation displacement, node 4, m
        109    9.718568910412E-001,  2.309160331025E-001, -4.660438812009E-002         F               0         Blade 2 X orientation angle, node 1, rad
        110    1.994546728569E-001, -9.118583453425E-001, -3.587926859688E-001         F               0         Blade 2 Y orientation angle, node 1, rad
        111   -1.253475839870E-001,  3.393996813278E-001, -9.322530984144E-001         F               0         Blade 2 Z orientation angle, node 1, rad
        112    9.889435957831E-001,  1.454993370526E-001, -2.864449819511E-002         F               0         Blade 2 X orientation angle, node 2, rad
        113    1.259888835128E-001, -9.262613485926E-001, -3.551995429821E-001         F               0         Blade 2 Y orientation angle, node 2, rad
        114   -7.821358955325E-002,  3.476634249108E-001, -9.343515277392E-001         F               0         Blade 2 Z orientation angle, node 2, rad
        115    9.997013328248E-001,  2.412136053209E-002,  3.924934947858E-003         F               0         Blade 2 X orientation angle, node 3, rad
        116    2.395286483264E-002, -9.352509726915E-001, -3.531740057619E-001         F               0         Blade 2 Y orientation angle, node 3, rad
        117   -4.848238295810E-003,  3.531625377155E-001, -9.355494196138E-001         F               0         Blade 2 Z orientation angle, node 3, rad
        118    9.967919121495E-001, -5.295111623053E-002,  6.001719056517E-002         F               0         Blade 2 X orientation angle, node 4, rad
        119   -2.822813166829E-002, -9.342694241048E-001, -3.554487526570E-001         F               0         Blade 2 Y orientation angle, node 4, rad
        120    7.489363428164E-002,  3.526142686745E-001, -9.327669167972E-001         F               0         Blade 2 Z orientation angle, node 4, rad
        121    5.622282788573E-002                                                     F               0         Blade 2 X translation velocity, node 1, m/s
        122    1.785921172655E+000                                                     F               0         Blade 2 Y translation velocity, node 1, m/s
        123    6.426298633430E-001                                                     F               0         Blade 2 Z translation velocity, node 1, m/s
        124    3.889642346328E-001                                                     F               0         Blade 2 X translation velocity, node 2, m/s
        125    2.825672890106E+001                                                     F               0         Blade 2 Y translation velocity, node 2, m/s
        126    1.105068835211E+001                                                     F               0         Blade 2 Z translation velocity, node 2, m/s
        127   -1.143018675035E+000                                                     F               0         Blade 2 X translation velocity, node 3, m/s
        128    5.231372742218E+001                                                     F               0         Blade 2 Y translation velocity, node 3, m/s
        129    1.994810774031E+001                                                     F               0         Blade 2 Z translation velocity, node 3, m/s
        130   -4.792198206141E+000                                                     F               0         Blade 2 X translation velocity, node 4, m/s
        131    7.382932919039E+001                                                     F               0         Blade 2 Y translation velocity, node 4, m/s
        132    2.770115071940E+001                                                     F               0         Blade 2 Z translation velocity, node 4, m/s
        133    1.262287304512E+000                                                     F               0         Blade 2 X rotation velocity, node 1, rad/s
        134    0.000000000000E+000                                                     F               0         Blade 2 Y rotation velocity, node 1, rad/s
        135   -1.104358292575E-001                                                     F               0         Blade 2 Z rotation velocity, node 1, rad/s
        136    1.252410597700E+000                                                     F               0         Blade 2 X rotation velocity, node 2, rad/s
        137    6.456943193665E-002                                                     F               0         Blade 2 Y rotation velocity, node 2, rad/s
        138   -8.560044281707E-002                                                     F               0         Blade 2 Z rotation velocity, node 2, rad/s
        139    1.245891345344E+000                                                     F               0         Blade 2 X rotation velocity, node 3, rad/s
        140    1.658361951185E-001                                                     F               0         Blade 2 Y rotation velocity, node 3, rad/s
        141   -4.785631544955E-002                                                     F               0         Blade 2 Z rotation velocity, node 3, rad/s
        142    1.244228628223E+000                                                     F               0         Blade 2 X rotation velocity, node 4, rad/s
        143    2.776690867384E-001                                                     F               0         Blade 2 Y rotation velocity, node 4, rad/s
        144   -6.918435579152E-003                                                     F               0         Blade 2 Z rotation velocity, node 4, rad/s
        145    1.972296856906E-001                                                     F               0         Blade 2 X translation acceleration, node 1, m/s^2
        146   -8.173925326187E-001                                                     F               0         Blade 2 Y translation acceleration, node 1, m/s^2
        147    2.254345623101E+000                                                     F               0         Blade 2 Z translation acceleration, node 1, m/s^2
        148    3.085838096708E+000                                                     F               0         Blade 2 X translation acceleration, node 2, m/s^2
        149   -1.394474085900E+001                                                     F               0         Blade 2 Y translation acceleration, node 2, m/s^2
        150    3.554223549383E+001                                                     F               0         Blade 2 Z translation acceleration, node 2, m/s^2
        151    5.525060895585E+000                                                     F               0         Blade 2 X translation acceleration, node 3, m/s^2
        152   -2.475566575267E+001                                                     F               0         Blade 2 Y translation acceleration, node 3, m/s^2
        153    6.580934685475E+001                                                     F               0         Blade 2 Z translation acceleration, node 3, m/s^2
        154    7.420425951532E+000                                                     F               0         Blade 2 X translation acceleration, node 4, m/s^2
        155   -3.385720849814E+001                                                     F               0         Blade 2 Y translation acceleration, node 4, m/s^2
        156    9.347374255493E+001                                                     F               0         Blade 2 Z translation acceleration, node 4, m/s^2
        157    0.000000000000E+000                                                     F               0         Blade 2 X rotation acceleration, node 1, rad/s^2
        158    0.000000000000E+000                                                     F               0         Blade 2 Y rotation acceleration, node 1, rad/s^2
        159    0.000000000000E+000                                                     F               0         Blade 2 Z rotation acceleration, node 1, rad/s^2
        160   -1.203860450611E-003                                                     F               0         Blade 2 X rotation acceleration, node 2, rad/s^2
        161    7.870293905732E-003                                                     F               0         Blade 2 Y rotation acceleration, node 2, rad/s^2
        162    3.027156731689E-003                                                     F               0         Blade 2 Z rotation acceleration, node 2, rad/s^2