
Linearized model: Predictions were generated on 18-Jul-2023 at 21:05:48 using OpenFAST, compiled as a 64-bit application using double precision at commit v3.5.0-38-g507dd698-dirty
 linked with  NWTC Subroutine Library; ElastoDyn; InflowWind; AeroDyn

Description from the FAST input file: One Blade, 4 aero-stations, Linearization with continuous States AeroDynamic modules

Simulation information:
   Simulation time:                     1.1000 s
   Rotor Speed:                         1.2671 rad/s
   Azimuth:                             1.3938 rad
   Wind Speed:                         13.0000 m/s
   Number of continuous states:        12
   Number of discrete states:           0
   Number of constraint states:         0
   Number of inputs:                  246
   Number of outputs:                   5
   Jacobians included in this file?    No

Order of continuous states:
   Row/Column Operating Point                  Rotating Frame? Derivative Order Description
   ---------- ---------------                  --------------- ---------------- -----------
          1    0.00E+00                               T               1         x4 blade 1, node 1, -
          2    5.09E-01                               T               1         x4 blade 1, node 2, -
          3    5.64E-01                               T               1         x4 blade 1, node 3, -
          4    5.18E-01                               T               1         x4 blade 1, node 4, -
          5    0.00E+00                               T               1         x4 blade 2, node 1, -
          6    5.61E-01                               T               1         x4 blade 2, node 2, -
          7    5.79E-01                               T               1         x4 blade 2, node 3, -
          8    5.19E-01                               T               1         x4 blade 2, node 4, -
          9    0.00E+00                               T               1         x4 blade 3, node 1, -
         10    5.12E-01                               T               1         x4 blade 3, node 2, -
         11    5.72E-01                               T               1         x4 blade 3, node 3, -
         12    5.19E-01                               T               1         x4 blade 3, node 4, -

Order of continuous state derivatives:
   Row/Column Operating Point                  Rotating Frame? Derivative Order Description
   ---------- ---------------                  --------------- ---------------- -----------
          1    0.00E+00                               T               1         First time derivative of x4 blade 1, node 1, -/s
          2   -1.18E-03                               T               1         First time derivative of x4 blade 1, node 2, -/s
          3   -7.86E-02                               T               1         First time derivative of x4 blade 1, node 3, -/s
          4    2.81E-03                               T               1         First time derivative of x4 blade 1, node 4, -/s
          5    0.00E+00                               T               1         First time derivative of x4 blade 2, node 1, -/s
          6   -2.56E-02                               T               1         First time derivative of x4 blade 2, node 2, -/s
          7   -6.03E-02                               T               1         First time derivative of x4 blade 2, node 3, -/s
          8    3.29E-03                               T               1         First time derivative of x4 blade 2, node 4, -/s
          9    0.00E+00                               T               1         First time derivative of x4 blade 3, node 1, -/s
         10   -4.36E-02                               T               1         First time derivative of x4 blade 3, node 2, -/s
         11   -1.09E-01                               T               1         First time derivative of x4 blade 3, node 3, -/s
         12    1.65E-03                               T               1         First time derivative of x4 blade 3, node 4, -/s

Order of inputs:
     Column   Operating Point                  Rotating Frame? Derivative Order Description
   ---------- ---------------                  --------------- ---------------- -----------
          1    0.00E+00                               F               0         Hub X translation displacement, node 1, m
          2    0.00E+00                               F               0         Hub Y translation displacement, node 1, m
          3    0.00E+00                               F               0         Hub Z translation displacement, node 1, m
          4    9.96E-01,  0.00E+00, -8.72E-02         F               0         Hub X orientation angle, node 1, rad
          5    8.58E-02,  1.76E-01,  9.81E-01         F               0         Hub Y orientation angle, node 1, rad
          6    1.53E-02, -9.84E-01,  1.75E-01         F               0         Hub Z orientation angle, node 1, rad
          7    1.26E+00                               F               0         Hub X rotation velocity, node 1, rad/s
          8   -0.00E+00                               F               0         Hub Y rotation velocity, node 1, rad/s
          9   -1.10E-01                               F               0         Hub Z rotation velocity, node 1, rad/s
         10    9.96E-01, -4.29E-02, -7.94E-02         F               0         Blade root 1 X orientation angle, node 1, rad
         11    8.58E-02,  1.76E-01,  9.81E-01         F               0         Blade root 1 Y orientation angle, node 1, rad
         12   -2.81E-02, -9.83E-01,  1.79E-01         F               0         Blade root 1 Z orientation angle, node 1, rad
         13    9.92E-01,  1.48E-02, -1.28E-01         F               0         Blade root 2 X orientation angle, node 1, rad
         14   -2.96E-02, -9.41E-01, -3.38E-01         F               0         Blade root 2 Y orientation angle, node 1, rad
         15   -1.25E-01,  3.39E-01, -9.32E-01         F               0         Blade root 2 Z orientation angle, node 1, rad
         16    9.98E-01,  2.81E-02, -5.39E-02         F               0         Blade root 3 X orientation angle, node 1, rad
         17   -5.62E-02,  7.64E-01, -6.42E-01         F               0         Blade root 3 Y orientation angle, node 1, rad
         18    2.31E-02,  6.44E-01,  7.65E-01         F               0         Blade root 3 Z orientation angle, node 1, rad
         19   -1.08E-01                               F               0         Blade 1 X translation displacement, node 1, m
         20   -1.48E+00                               F               0         Blade 1 Y translation displacement, node 1, m
         21   -1.23E+00                               F               0         Blade 1 Z translation displacement, node 1, m
         22   -1.29E+00                               F               0         Blade 1 X translation displacement, node 2, m
         23   -2.32E+01                               F               0         Blade 1 Y translation displacement, node 2, m
         24   -2.04E+01                               F               0         Blade 1 Z translation displacement, node 2, m
         25   -8.31E-01                               F               0         Blade 1 X translation displacement, node 3, m
         26   -4.36E+01                               F               0         Blade 1 Y translation displacement, node 3, m
         27   -3.75E+01                               F               0         Blade 1 Z translation displacement, node 3, m
         28    1.45E+00                               F               0         Blade 1 X translation displacement, node 4, m
         29   -6.18E+01                               F               0         Blade 1 Y translation displacement, node 4, m
         30   -5.32E+01                               F               0         Blade 1 Z translation displacement, node 4, m
         31    9.49E-01, -8.23E-02, -3.03E-01         F               0         Blade 1 X orientation angle, node 1, rad
         32    3.13E-01,  1.61E-01,  9.36E-01         F               0         Blade 1 Y orientation angle, node 1, rad
         33   -2.81E-02, -9.83E-01,  1.79E-01         F               0         Blade 1 Z orientation angle, node 1, rad
         34    9.70E-01, -1.17E-02, -2.42E-01         F               0         Blade 1 X orientation angle, node 2, rad
         35    2.41E-01,  1.66E-01,  9.56E-01         F               0         Blade 1 Y orientation angle, node 2, rad
         36    2.91E-02, -9.86E-01,  1.64E-01         F               0         Blade 1 Z orientation angle, node 2, rad
         37    9.83E-01,  9.44E-02, -1.57E-01         F               0         Blade 1 X orientation angle, node 3, rad
         38    1.40E-01,  1.64E-01,  9.76E-01         F               0         Blade 1 Y orientation angle, node 3, rad
         39    1.18E-01, -9.82E-01,  1.48E-01         F               0         Blade 1 Z orientation angle, node 3, rad
         40    9.73E-01,  1.98E-01, -1.20E-01         F               0         Blade 1 X orientation angle, node 4, rad
         41    8.97E-02,  1.54E-01,  9.84E-01         F               0         Blade 1 Y orientation angle, node 4, rad
         42    2.13E-01, -9.68E-01,  1.32E-01         F               0         Blade 1 Z orientation angle, node 4, rad
         43   -1.63E-01                               F               0         Blade 1 X translation velocity, node 1, m/s
         44   -3.34E-01                               F               0         Blade 1 Y translation velocity, node 1, m/s
         45   -1.86E+00                               F               0         Blade 1 Z translation velocity, node 1, m/s
         46   -3.14E+00                               F               0         Blade 1 X translation velocity, node 2, m/s
         47   -4.55E+00                               F               0         Blade 1 Y translation velocity, node 2, m/s
         48   -2.98E+01                               F               0         Blade 1 Z translation velocity, node 2, m/s
         49   -7.46E+00                               F               0         Blade 1 X translation velocity, node 3, m/s
         50   -8.97E+00                               F               0         Blade 1 Y translation velocity, node 3, m/s
         51   -5.48E+01                               F               0         Blade 1 Z translation velocity, node 3, m/s
         52   -1.34E+01                               F               0         Blade 1 X translation velocity, node 4, m/s
         53   -1.33E+01                               F               0         Blade 1 Y translation velocity, node 4, m/s
         54   -7.66E+01                               F               0         Blade 1 Z translation velocity, node 4, m/s
         55    1.26E+00                               F               0         Blade 1 X rotation velocity, node 1, rad/s
         56   -0.00E+00                               F               0         Blade 1 Y rotation velocity, node 1, rad/s
         57   -1.10E-01                               F               0         Blade 1 Z rotation velocity, node 1, rad/s
         58    1.25E+00                               F               0         Blade 1 X rotation velocity, node 2, rad/s
         59   -1.07E-02                               F               0         Blade 1 Y rotation velocity, node 2, rad/s
         60   -1.72E-01                               F               0         Blade 1 Z rotation velocity, node 2, rad/s
         61    1.23E+00                               F               0         Blade 1 X rotation velocity, node 3, rad/s
         62   -2.78E-02                               F               0         Blade 1 Y rotation velocity, node 3, rad/s
         63   -2.69E-01                               F               0         Blade 1 Z rotation velocity, node 3, rad/s
         64    1.21E+00                               F               0         Blade 1 X rotation velocity, node 4, rad/s
         65   -4.69E-02                               F               0         Blade 1 Y rotation velocity, node 4, rad/s
         66   -3.76E-01                               F               0         Blade 1 Z rotation velocity, node 4, rad/s
         67   -3.69E-02                               F               0         Blade 1 X translation acceleration, node 1, m/s^2
         68    2.37E+00                               F               0         Blade 1 Y translation acceleration, node 1, m/s^2
         69   -4.22E-01                               F               0         Blade 1 Z translation acceleration, node 1, m/s^2
         70   -9.88E-01                               F               0         Blade 1 X translation acceleration, node 2, m/s^2
         71    3.79E+01                               F               0         Blade 1 Y translation acceleration, node 2, m/s^2
         72   -5.58E+00                               F               0         Blade 1 Z translation acceleration, node 2, m/s^2
         73   -3.55E+00                               F               0         Blade 1 X translation acceleration, node 3, m/s^2
         74    6.96E+01                               F               0         Blade 1 Y translation acceleration, node 3, m/s^2
         75   -1.09E+01                               F               0         Blade 1 Z translation acceleration, node 3, m/s^2
         76   -8.06E+00                               F               0         Blade 1 X translation acceleration, node 4, m/s^2
         77    9.74E+01                               F               0         Blade 1 Y translation acceleration, node 4, m/s^2
         78   -1.61E+01                               F               0         Blade 1 Z translation acceleration, node 4, m/s^2
         79   -5.75E-02                               F               0         Blade 2 X translation displacement, node 1, m
         80    1.81E+00                               F               0         Blade 2 Y translation displacement, node 1, m
         81   -6.58E-01                               F               0         Blade 2 Z translation displacement, node 1, m
         82   -4.71E-01                               F               0         Blade 2 X translation displacement, node 2, m
         83    2.93E+01                               F               0         Blade 2 Y translation displacement, node 2, m
         84   -9.93E+00                               F               0         Blade 2 Z translation displacement, node 2, m
         85    3.09E-01                               F               0         Blade 2 X translation displacement, node 3, m
         86    5.42E+01                               F               0         Blade 2 Y translation displacement, node 3, m
         87   -1.91E+01                               F               0         Blade 2 Z translation displacement, node 3, m
         88    2.54E+00                               F               0         Blade 2 X translation displacement, node 4, m
         89    7.66E+01                               F               0         Blade 2 Y translation displacement, node 4, m
         90   -2.75E+01                               F               0         Blade 2 Z translation displacement, node 4, m
         91    9.72E-01,  2.31E-01, -4.66E-02         F               0         Blade 2 X orientation angle, node 1, rad
         92    1.99E-01, -9.12E-01, -3.59E-01         F               0         Blade 2 Y orientation angle, node 1, rad
         93   -1.25E-01,  3.39E-01, -9.32E-01         F               0         Blade 2 Z orientation angle, node 1, rad
         94    9.89E-01,  1.45E-01, -2.85E-02         F               0         Blade 2 X orientation angle, node 2, rad
         95    1.26E-01, -9.26E-01, -3.55E-01         F               0         Blade 2 Y orientation angle, node 2, rad
         96   -7.81E-02,  3.48E-01, -9.34E-01         F               0         Blade 2 Z orientation angle, node 2, rad
         97    1.00E+00,  2.40E-02,  4.19E-03         F               0         Blade 2 X orientation angle, node 3, rad
         98    2.40E-02, -9.35E-01, -3.53E-01         F               0         Blade 2 Y orientation angle, node 3, rad
         99   -4.57E-03,  3.53E-01, -9.36E-01         F               0         Blade 2 Z orientation angle, node 3, rad
        100    9.97E-01, -5.31E-02,  6.04E-02         F               0         Blade 2 X orientation angle, node 4, rad
        101   -2.82E-02, -9.34E-01, -3.55E-01         F               0         Blade 2 Y orientation angle, node 4, rad
        102    7.54E-02,  3.53E-01, -9.33E-01         F               0         Blade 2 Z orientation angle, node 4, rad
        103    5.62E-02                               F               0         Blade 2 X translation velocity, node 1, m/s
        104    1.79E+00                               F               0         Blade 2 Y translation velocity, node 1, m/s
        105    6.43E-01                               F               0         Blade 2 Z translation velocity, node 1, m/s
        106    3.89E-01                               F               0         Blade 2 X translation velocity, node 2, m/s
        107    2.83E+01                               F               0         Blade 2 Y translation velocity, node 2, m/s
        108    1.11E+01                               F               0         Blade 2 Z translation velocity, node 2, m/s
        109   -1.15E+00                               F               0         Blade 2 X translation velocity, node 3, m/s
        110    5.23E+01                               F               0         Blade 2 Y translation velocity, node 3, m/s
        111    1.99E+01                               F               0         Blade 2 Z translation velocity, node 3, m/s
        112   -4.80E+00                               F               0         Blade 2 X translation velocity, node 4, m/s
        113    7.38E+01                               F               0         Blade 2 Y translation velocity, node 4, m/s
        114    2.77E+01                               F               0         Blade 2 Z translation velocity, node 4, m/s
        115    1.26E+00                               F               0         Blade 2 X rotation velocity, node 1, rad/s
        116    0.00E+00                               F               0         Blade 2 Y rotation velocity, node 1, rad/s
        117   -1.10E-01                               F               0         Blade 2 Z rotation velocity, node 1, rad/s
        118    1.25E+00                               F               0         Blade 2 X rotation velocity, node 2, rad/s
        119    6.46E-02                               F               0         Blade 2 Y rotation velocity, node 2, rad/s
        120   -8.56E-02                               F               0         Blade 2 Z rotation velocity, node 2, rad/s
        121    1.25E+00                               F               0         Blade 2 X rotation velocity, node 3, rad/s
        122    1.66E-01                               F               0         Blade 2 Y rotation velocity, node 3, rad/s
        123   -4.78E-02                               F               0         Blade 2 Z rotation velocity, node 3, rad/s
        124    1.24E+00                               F               0         Blade 2 X rotation velocity, node 4, rad/s
        125    2.78E-01                               F               0         Blade 2 Y rotation velocity, node 4, rad/s
        126   -6.84E-03                               F               0         Blade 2 Z rotation velocity, node 4, rad/s
        127    1.97E-01                               F               0         Blade 2 X translation acceleration, node 1, m/s^2
        128   -8.17E-01                               F               0         Blade 2 Y translation acceleration, node 1, m/s^2
        129    2.25E+00                               F               0         Blade 2 Z translation acceleration, node 1, m/s^2
        130    3.07E+00                               F               0         Blade 2 X translation acceleration, node 2, m/s^2
        131   -1.39E+01                               F               0         Blade 2 Y translation acceleration, node 2, m/s^2
        132    3.55E+01                               F               0         Blade 2 Z translation acceleration, node 2, m/s^2
        133    5.45E+00                               F               0         Blade 2 X translation acceleration, node 3, m/s^2
        134   -2.48E+01                               F               0         Blade 2 Y translation acceleration, node 3, m/s^2
        135    6.58E+01                               F               0         Blade 2 Z translation acceleration, node 3, m/s^2
        136    7.22E+00                               F               0         Blade 2 X translation acceleration, node 4, m/s^2
        137   -3.39E+01                               F               0         Blade 2 Y translation acceleration, node 4, m/s^2
        138    9.35E+01                               F               0         Blade 2 Z translation acceleration, node 4, m/s^2
        139    1.65E-01                               F               0         Blade 3 X translation displacement, node 1, m
        140   -3.32E-01                               F               0         Blade 3 Y translation displacement, node 1, m
        141    1.89E+00                               F               0         Blade 3 Z translation displacement, node 1, m
        142    3.08E+00                               F               0         Blade 3 X translation displacement, node 2, m
        143   -6.05E+00                               F               0         Blade 3 Y translation displacement, node 2, m
        144    3.02E+01                               F               0         Blade 3 Z translation displacement, node 2, m
        145    7.11E+00                               F               0         Blade 3 X translation displacement, node 3, m
        146   -1.06E+01                               F               0         Blade 3 Y translation displacement, node 3, m
        147    5.60E+01                               F               0         Blade 3 Z translation displacement, node 3, m
        148    1.24E+01                               F               0         Blade 3 X translation displacement, node 4, m
        149   -1.48E+01                               F               0         Blade 3 Y translation displacement, node 4, m
        150    7.91E+01                               F               0         Blade 3 Z translation displacement, node 4, m
        151    9.84E-01, -1.49E-01,  9.54E-02         F               0         Blade 3 X orientation angle, node 1, rad
        152    1.75E-01,  7.50E-01, -6.37E-01         F               0         Blade 3 Y orientation angle, node 1, rad
        153    2.31E-02,  6.44E-01,  7.65E-01         F               0         Blade 3 Z orientation angle, node 1, rad
        154    9.92E-01, -1.26E-01,  6.46E-03         F               0         Blade 3 X orientation angle, node 2, rad
        155    1.01E-01,  7.60E-01, -6.42E-01         F               0         Blade 3 Y orientation angle, node 2, rad
        156    7.61E-02,  6.38E-01,  7.67E-01         F               0         Blade 3 Z orientation angle, node 2, rad
        157    9.88E-01, -9.96E-02, -1.22E-01         F               0         Blade 3 X orientation angle, node 3, rad
        158   -8.42E-04,  7.71E-01, -6.37E-01         F               0         Blade 3 Y orientation angle, node 3, rad
        159    1.57E-01,  6.29E-01,  7.61E-01         F               0         Blade 3 Z orientation angle, node 3, rad
        160    9.68E-01, -1.15E-01, -2.22E-01         F               0         Blade 3 X orientation angle, node 4, rad
        161   -5.17E-02,  7.77E-01, -6.27E-01         F               0         Blade 3 Y orientation angle, node 4, rad
        162    2.44E-01,  6.19E-01,  7.47E-01         F               0         Blade 3 Z orientation angle, node 4, rad
        163    1.07E-01                               F               0         Blade 3 X translation velocity, node 1, m/s
        164   -1.45E+00                               F               0         Blade 3 Y translation velocity, node 1, m/s
        165    1.22E+00                               F               0         Blade 3 Z translation velocity, node 1, m/s
        166    1.24E+00                               F               0         Blade 3 X translation velocity, node 2, m/s
        167   -2.37E+01                               F               0         Blade 3 Y translation velocity, node 2, m/s
        168    1.89E+01                               F               0         Blade 3 Z translation velocity, node 2, m/s
        169    1.01E+00                               F               0         Blade 3 X translation velocity, node 3, m/s
        170   -4.34E+01                               F               0         Blade 3 Y translation velocity, node 3, m/s
        171    3.55E+01                               F               0         Blade 3 Z translation velocity, node 3, m/s
        172   -8.07E-01                               F               0         Blade 3 X translation velocity, node 4, m/s
        173   -6.07E+01                               F               0         Blade 3 Y translation velocity, node 4, m/s
        174    5.06E+01                               F               0         Blade 3 Z translation velocity, node 4, m/s
        175    1.26E+00                               F               0         Blade 3 X rotation velocity, node 1, rad/s
        176   -0.00E+00                               F               0         Blade 3 Y rotation velocity, node 1, rad/s
        177   -1.10E-01                               F               0         Blade 3 Z rotation velocity, node 1, rad/s
        178    1.26E+00                               F               0         Blade 3 X rotation velocity, node 2, rad/s
        179   -3.84E-02                               F               0         Blade 3 Y rotation velocity, node 2, rad/s
        180   -7.79E-02                               F               0         Blade 3 Z rotation velocity, node 2, rad/s
        181    1.25E+00                               F               0         Blade 3 X rotation velocity, node 3, rad/s
        182   -9.84E-02                               F               0         Blade 3 Y rotation velocity, node 3, rad/s
        183   -2.73E-02                               F               0         Blade 3 Z rotation velocity, node 3, rad/s
        184    1.25E+00                               F               0         Blade 3 X rotation velocity, node 4, rad/s
        185   -1.64E-01                               F               0         Blade 3 Y rotation velocity, node 4, rad/s
        186    2.83E-02                               F               0         Blade 3 Z rotation velocity, node 4, rad/s
        187   -1.60E-01                               F               0         Blade 3 X translation acceleration, node 1, m/s^2
        188   -1.55E+00                               F               0         Blade 3 Y translation acceleration, node 1, m/s^2
        189   -1.83E+00                               F               0         Blade 3 Z translation acceleration, node 1, m/s^2
        190   -2.93E+00                               F               0         Blade 3 X translation acceleration, node 2, m/s^2
        191   -2.39E+01                               F               0         Blade 3 Y translation acceleration, node 2, m/s^2
        192   -2.99E+01                               F               0         Blade 3 Z translation acceleration, node 2, m/s^2
        193   -6.41E+00                               F               0         Blade 3 X translation acceleration, node 3, m/s^2
        194   -4.46E+01                               F               0         Blade 3 Y translation acceleration, node 3, m/s^2
        195   -5.44E+01                               F               0         Blade 3 Z translation acceleration, node 3, m/s^2
        196   -1.09E+01                               F               0         Blade 3 X translation acceleration, node 4, m/s^2
        197   -6.34E+01                               F               0         Blade 3 Y translation acceleration, node 4, m/s^2
        198   -7.58E+01                               F               0         Blade 3 Z translation acceleration, node 4, m/s^2
        199    1.30E+01                               F               0         U-component inflow on blade 1, node 1, m/s
        200   -0.00E+00                               F               0         V-component inflow on blade 1, node 1, m/s
        201    0.00E+00                               F               0         W-component inflow on blade 1, node 1, m/s
        202    1.31E+01                               F               0         U-component inflow on blade 1, node 2, m/s
        203   -0.00E+00                               F               0         V-component inflow on blade 1, node 2, m/s
        204    0.00E+00                               F               0         W-component inflow on blade 1, node 2, m/s
        205    1.32E+01                               F               0         U-component inflow on blade 1, node 3, m/s
        206   -0.00E+00                               F               0         V-component inflow on blade 1, node 3, m/s