
Linearized model: Predictions were generated on 13-Sep-2024 at 18:19:15 using OpenFAST, compiled on Sep 13 2024 at 17:02:28 as a 64-bit application using double precision at commit HEAD-HASH-NOTFOUND
 linked with  NWTC Subroutine Library; ElastoDyn; InflowWind; AeroDyn

Description from the FAST input file: Three blades, 4 aero-stations, Linearization with continuous-state aerodynamic modules

Simulation information:
   Simulation time:                     1.1000 s
   Rotor Speed:                         1.2671 rad/s
   Azimuth:                             1.3938 rad
   Wind Speed:                         13.0000 m/s
   Number of continuous states:        15
   Number of discrete states:           0
   Number of constraint states:         0
   Number of inputs:                  360
   Number of outputs:                  20
   Jacobians included in this file?    No

Order of continuous states:
   Row/Column Operating Point                                                   Rotating Frame? Derivative Order Description
   ---------- ---------------                                                   --------------- ---------------- -----------
          1    5.881335601133E+000                                                     T               2         ED 1st flapwise bending-mode DOF of blade 1 (internal DOF index = DOF_BF(1,1)), m
          2    4.772556444312E+000                                                     T               2         ED 1st flapwise bending-mode DOF of blade 2 (internal DOF index = DOF_BF(2,1)), m
          3    5.317068472873E+000                                                     T               2         ED 1st flapwise bending-mode DOF of blade 3 (internal DOF index = DOF_BF(3,1)), m
          4   -6.413439581975E+000                                                     T               2         ED First time derivative of 1st flapwise bending-mode DOF of blade 1 (internal DOF index = DOF_BF(1,1)), m/s
          5   -6.959973711009E+000                                                     T               2         ED First time derivative of 1st flapwise bending-mode DOF of blade 2 (internal DOF index = DOF_BF(2,1)), m/s
          6   -5.042479407187E+000                                                     T               2         ED First time derivative of 1st flapwise bending-mode DOF of blade 3 (internal DOF index = DOF_BF(3,1)), m/s
          7    5.094491319112E-001                                                     T               1         AD x4 blade 1, node 2, -
          8    5.648138082388E-001                                                     T               1         AD x4 blade 1, node 3, -
          9    5.181924187486E-001                                                     T               1         AD x4 blade 1, node 4, -
         10    5.614717407209E-001                                                     T               1         AD x4 blade 2, node 2, -
         11    5.788476958512E-001                                                     T               1         AD x4 blade 2, node 3, -
         12    5.194981208435E-001                                                     T               1         AD x4 blade 2, node 4, -
         13    5.113751628321E-001                                                     T               1         AD x4 blade 3, node 2, -
         14    5.721037338289E-001                                                     T               1         AD x4 blade 3, node 3, -
         15    5.194172675828E-001                                                     T               1         AD x4 blade 3, node 4, -

Order of continuous state derivatives:
   Row/Column Operating Point                                                   Rotating Frame? Derivative Order Description
   ---------- ---------------                                                   --------------- ---------------- -----------
          1   -6.413439581975E+000                                                     T               2         First time derivative of ED 1st flapwise bending-mode DOF of blade 1 (internal DOF index = DOF_BF(1,1)), m/s
          2   -6.959973711009E+000                                                     T               2         First time derivative of ED 1st flapwise bending-mode DOF of blade 2 (internal DOF index = DOF_BF(2,1)), m/s
          3   -5.042479407187E+000                                                     T               2         First time derivative of ED 1st flapwise bending-mode DOF of blade 3 (internal DOF index = DOF_BF(3,1)), m/s
          4   -6.288378241787E+000                                                     T               2         First time derivative of ED First time derivative of 1st flapwise bending-mode DOF of blade 1 (internal DOF index = DOF_BF(1,1)), m/s/s
          5   -8.464589471806E-001                                                     T               2         First time derivative of ED First time derivative of 1st flapwise bending-mode DOF of blade 2 (internal DOF index = DOF_BF(2,1)), m/s/s
          6   -3.992138958537E+000                                                     T               2         First time derivative of ED First time derivative of 1st flapwise bending-mode DOF of blade 3 (internal DOF index = DOF_BF(3,1)), m/s/s
          7   -1.153885854978E-003                                                     T               1         First time derivative of AD x4 blade 1, node 2, -/s
          8   -7.834126127365E-002                                                     T               1         First time derivative of AD x4 blade 1, node 3, -/s
          9    2.804836139300E-003                                                     T               1         First time derivative of AD x4 blade 1, node 4, -/s
         10   -2.574381719193E-002                                                     T               1         First time derivative of AD x4 blade 2, node 2, -/s
         11   -6.047501772167E-002                                                     T               1         First time derivative of AD x4 blade 2, node 3, -/s
         12    3.270133600778E-003                                                     T               1         First time derivative of AD x4 blade 2, node 4, -/s
         13   -4.338841315587E-002                                                     T               1         First time derivative of AD x4 blade 3, node 2, -/s
         14   -1.090505305973E-001                                                     T               1         First time derivative of AD x4 blade 3, node 3, -/s
         15    1.645503703462E-003                                                     T               1         First time derivative of AD x4 blade 3, node 4, -/s

Order of inputs:
     Column   Operating Point                                                   Rotating Frame? Derivative Order Description
   ---------- ---------------                                                   --------------- ---------------- -----------
          1    1.300000000000E+001                                                     F               0         IfW Extended input: horizontal wind speed (steady/uniform wind) (hub), m/s
          2    2.000000000000E-001                                                     F               0         IfW Extended input: vertical power-law shear exponent (hub), -
          3    0.000000000000E+000                                                     F               0         IfW Extended input: propagation direction (hub), rad
          4    2.340882384528E+004                                                     F               0         ED Blade 1 X force, node 1, N
          5   -9.831271070437E+002                                                     F               0         ED Blade 1 Y force, node 1, N
          6   -9.561291868104E+003                                                     F               0         ED Blade 1 Z force, node 1, N
          7    9.839328955443E+004                                                     F               0         ED Blade 1 X force, node 2, N
          8    8.572524057242E+002                                                     F               0         ED Blade 1 Y force, node 2, N
          9   -3.622528010564E+004                                                     F               0         ED Blade 1 Z force, node 2, N
         10    1.470024431798E+005                                                     F               0         ED Blade 1 X force, node 3, N
         11    1.236650681480E+004                                                     F               0         ED Blade 1 Y force, node 3, N
         12   -4.269418492097E+004                                                     F               0         ED Blade 1 Z force, node 3, N
         13    1.636641328474E+004                                                     F               0         ED Blade 1 X moment, node 1, Nm
         14    8.971972681265E+003                                                     F               0         ED Blade 1 Y moment, node 1, Nm
         15    3.778888631075E+004                                                     F               0         ED Blade 1 Z moment, node 1, Nm
         16   -9.077763888131E+004                                                     F               0         ED Blade 1 X moment, node 2, Nm
         17   -4.912911528726E+004                                                     F               0         ED Blade 1 Y moment, node 2, Nm
         18   -1.861557324457E+005                                                     F               0         ED Blade 1 Z moment, node 2, Nm
         19   -2.175808519087E+005                                                     F               0         ED Blade 1 X moment, node 3, Nm
         20   -1.337803371290E+005                                                     F               0         ED Blade 1 Y moment, node 3, Nm
         21   -6.278755281960E+005                                                     F               0         ED Blade 1 Z moment, node 3, Nm
         22    2.268438217218E+004                                                     F               0         ED Blade 2 X force, node 1, N
         23    6.644009898882E+003                                                     F               0         ED Blade 2 Y force, node 1, N
         24    5.090436304716E+002                                                     F               0         ED Blade 2 Z force, node 1, N
         25    9.357155349281E+004                                                     F               0         ED Blade 2 X force, node 2, N
         26    2.157936176348E+004                                                     F               0         ED Blade 2 Y force, node 2, N
         27    3.289346268126E+003                                                     F               0         ED Blade 2 Z force, node 2, N
         28    1.382390340525E+005                                                     F               0         ED Blade 2 X force, node 3, N
         29    1.738555658362E+004                                                     F               0         ED Blade 2 Y force, node 3, N
         30    6.918295276953E+003                                                     F               0         ED Blade 2 Z force, node 3, N
         31    1.086739551998E+004                                                     F               0         ED Blade 2 X moment, node 1, Nm
         32   -3.570404169149E+004                                                     F               0         ED Blade 2 Y moment, node 1, Nm
         33   -1.225535019579E+004                                                     F               0         ED Blade 2 Z moment, node 1, Nm
         34   -6.699170879596E+004                                                     F               0         ED Blade 2 X moment, node 2, Nm
         35    1.826655757816E+005                                                     F               0         ED Blade 2 Y moment, node 2, Nm
         36    5.859458123006E+004                                                     F               0         ED Blade 2 Z moment, node 2, Nm
         37   -1.213555965719E+005                                                     F               0         ED Blade 2 X moment, node 3, Nm
         38    5.560395399193E+005                                                     F               0         ED Blade 2 Y moment, node 3, Nm
         39    2.000708497914E+005                                                     F               0         ED Blade 2 Z moment, node 3, Nm
         40    2.505134621055E+004                                                     F               0         ED Blade 3 X force, node 1, N
         41   -6.461784415995E+003                                                     F               0         ED Blade 3 Y force, node 1, N
         42    2.989342950997E+003                                                     F               0         ED Blade 3 Z force, node 1, N
         43    1.024129457228E+005                                                     F               0         ED Blade 3 X force, node 2, N
         44   -2.487691521117E+004                                                     F               0         ED Blade 3 Y force, node 2, N
         45    5.988273708378E+003                                                     F               0         ED Blade 3 Z force, node 2, N
         46    1.472251833471E+005                                                     F               0         ED Blade 3 X force, node 3, N
         47   -3.081221617879E+004                                                     F               0         ED Blade 3 Y force, node 3, N
         48   -6.216259210831E+003                                                     F               0         ED Blade 3 Z force, node 3, N
         49    1.137489436623E+004                                                     F               0         ED Blade 3 X moment, node 1, Nm
         50    3.078640434807E+004                                                     F               0         ED Blade 3 Y moment, node 1, Nm
         51   -2.811081109850E+004                                                     F               0         ED Blade 3 Z moment, node 1, Nm
         52   -6.905166097040E+004                                                     F               0         ED Blade 3 X moment, node 2, Nm
         53   -1.480785440073E+005                                                     F               0         ED Blade 3 Y moment, node 2, Nm
         54    1.540819698026E+005                                                     F               0         ED Blade 3 Z moment, node 2, Nm
         55   -1.288620264494E+005                                                     F               0         ED Blade 3 X moment, node 3, Nm
         56   -4.838518792359E+005                                                     F               0         ED Blade 3 Y moment, node 3, Nm
         57    4.457052939438E+005                                                     F               0         ED Blade 3 Z moment, node 3, Nm
         58    0.000000000000E+000                                                     F               0         ED Platform X force, node 1, N
         59    0.000000000000E+000                                                     F               0         ED Platform Y force, node 1, N
         60    0.000000000000E+000                                                     F               0         ED Platform Z force, node 1, N
         61    0.000000000000E+000                                                     F               0         ED Platform X moment, node 1, Nm
         62    0.000000000000E+000                                                     F               0         ED Platform Y moment, node 1, Nm
         63    0.000000000000E+000                                                     F               0         ED Platform Z moment, node 1, Nm
         64    0.000000000000E+000                                                     F               0         ED Tower X force, node 1, N
         65    0.000000000000E+000                                                     F               0         ED Tower Y force, node 1, N
         66    0.000000000000E+000                                                     F               0         ED Tower Z force, node 1, N
         67    0.000000000000E+000                                                     F               0         ED Tower X force, node 2, N
         68    0.000000000000E+000                                                     F               0         ED Tower Y force, node 2, N
         69    0.000000000000E+000                                                     F               0         ED Tower Z force, node 2, N
         70    0.000000000000E+000                                                     F               0         ED Tower X force, node 3, N
         71    0.000000000000E+000                                                     F               0         ED Tower Y force, node 3, N
         72    0.000000000000E+000                                                     F               0         ED Tower Z force, node 3, N
         73    0.000000000000E+000                                                     F               0         ED Tower X moment, node 1, Nm
         74    0.000000000000E+000                                                     F               0         ED Tower Y moment, node 1, Nm
         75    0.000000000000E+000                                                     F               0         ED Tower Z moment, node 1, Nm
         76    0.000000000000E+000                                                     F               0         ED Tower X moment, node 2, Nm
         77    0.000000000000E+000                                                     F               0         ED Tower Y moment, node 2, Nm
         78    0.000000000000E+000                                                     F               0         ED Tower Z moment, node 2, Nm
         79    0.000000000000E+000                                                     F               0         ED Tower X moment, node 3, Nm
         80    0.000000000000E+000                                                     F               0         ED Tower Y moment, node 3, Nm
         81    0.000000000000E+000                                                     F               0         ED Tower Z moment, node 3, Nm
         82    0.000000000000E+000                                                     F               0         ED Hub X force, node 1, N
         83    0.000000000000E+000                                                     F               0         ED Hub Y force, node 1, N
         84    0.000000000000E+000                                                     F               0         ED Hub Z force, node 1, N
         85    0.000000000000E+000                                                     F               0         ED Hub X moment, node 1, Nm
         86    0.000000000000E+000                                                     F               0         ED Hub Y moment, node 1, Nm
         87    0.000000000000E+000                                                     F               0         ED Hub Z moment, node 1, Nm
         88    0.000000000000E+000                                                     F               0         ED Nacelle X force, node 1, N
         89    0.000000000000E+000                                                     F               0         ED Nacelle Y force, node 1, N
         90    0.000000000000E+000                                                     F               0         ED Nacelle Z force, node 1, N
         91    0.000000000000E+000                                                     F               0         ED Nacelle X moment, node 1, Nm
         92    0.000000000000E+000                                                     F               0         ED Nacelle Y moment, node 1, Nm
         93    0.000000000000E+000                                                     F               0         ED Nacelle Z moment, node 1, Nm
         94    0.000000000000E+000                                                     F               0         ED Tailfin X force, node 1, N
         95    0.000000000000E+000                                                     F               0         ED Tailfin Y force, node 1, N
         96    0.000000000000E+000                                                     F               0         ED Tailfin Z force, node 1, N
         97    0.000000000000E+000                                                     F               0         ED Tailfin X moment, node 1, Nm
         98    0.000000000000E+000                                                     F               0         ED Tailfin Y moment, node 1, Nm
         99    0.000000000000E+000                                                     F               0         ED Tailfin Z moment, node 1, Nm
        100    0.000000000000E+000                                                     T               0         ED Blade 1 pitch command, rad
        101    0.000000000000E+000                                                     T               0         ED Blade 2 pitch command, rad
        102    0.000000000000E+000                                                     T               0         ED Blade 3 pitch command, rad
        103    0.000000000000E+000                                                     F               0         ED Yaw moment, Nm
        104    0.000000000000E+000                                                     F               0         ED Generator torque, Nm
        105    0.000000000000E+000                                                     F               0         ED Extended input: collective blade-pitch command, rad
        106    0.000000000000E+000                                                     F               0         AD Nacelle X translation displacement, node 1, m
        107    0.000000000000E+000                                                     F               0         AD Nacelle Y translation displacement, node 1, m
        108    0.000000000000E+000                                                     F               0         AD Nacelle Z translation displacement, node 1, m
        109    1.000000000000E+000,  0.000000000000E+000,  0.000000000000E+000         F               0         AD Nacelle X orientation angle, node 1, rad
        110    0.000000000000E+000,  1.000000000000E+000,  0.000000000000E+000         F               0         AD Nacelle Y orientation angle, node 1, rad
        111    0.000000000000E+000,  0.000000000000E+000,  1.000000000000E+000         F               0         AD Nacelle Z orientation angle, node 1, rad
        112    0.000000000000E+000                                                     F               0         AD Hub X translation displacement, node 1, m
        113    0.000000000000E+000                                                     F               0         AD Hub Y translation displacement, node 1, m
        114    0.000000000000E+000                                                     F               0         AD Hub Z translation displacement, node 1, m
        115    9.961946980917E-001,  0.000000000000E+000, -8.715574274766E-002         F               0         AD Hub X orientation angle, node 1, rad
        116    8.579441458219E-002,  1.760539961798E-001,  9.806346459592E-001         F               0         AD Hub Y orientation angle, node 1, rad
        117    1.534411680074E-002, -9.843805109962E-001,  1.753840575722E-001         F               0         AD Hub Z orientation angle, node 1, rad
        118    1.262287304512E+000                                                     F               0         AD Hub X rotation velocity, node 1, rad/s
        119   -0.000000000000E+000                                                     F               0         AD Hub Y rotation velocity, node 1, rad/s
        120   -1.104358292575E-001                                                     F               0         AD Hub Z rotation velocity, node 1, rad/s
        121    9.959158424523E-001, -4.293807482403E-002, -7.942264464775E-002         F               0         AD Blade root 1 X orientation angle, node 1, rad
        122    8.579441458219E-002,  1.760539961798E-001,  9.806346459592E-001         F               0         AD Blade root 1 Y orientation angle, node 1, rad
        123   -2.812388982583E-002, -9.834435988706E-001,  1.790188109153E-001         F               0         AD Blade root 1 Z orientation angle, node 1, rad
        124    9.916709642922E-001,  1.481851010962E-002, -1.279418240368E-001         F               0         AD Blade root 2 X orientation angle, node 1, rad
        125   -2.960881234302E-002, -9.405255276029E-001, -3.384302737033E-001         F               0         AD Blade root 2 Y orientation angle, node 1, rad
        126   -1.253475839870E-001,  3.393996813278E-001, -9.322530984144E-001         F               0         AD Blade root 2 Z orientation angle, node 1, rad
        127    9.981528176889E-001,  2.811956471441E-002, -5.385390069351E-002         F               0         AD Blade root 3 X orientation angle, node 1, rad
        128   -5.618560223918E-002,  7.644715314231E-001, -6.422043722559E-001         F               0         AD Blade root 3 Y orientation angle, node 1, rad
        129    2.311126653075E-002,  6.440439175428E-001,  7.646393278111E-001         F               0         AD Blade root 3 Z orientation angle, node 1, rad
        130   -1.076149157867E-001                                                     F               0         AD Blade 1 X translation displacement, node 1, m
        131   -1.475165398306E+000                                                     F               0         AD Blade 1 Y translation displacement, node 1, m
        132   -1.230044116000E+000                                                     F               0         AD Blade 1 Z translation displacement, node 1, m
        133   -1.293852495766E+000                                                     F               0         AD Blade 1 X translation displacement, node 2, m
        134   -2.324729764435E+001                                                     F               0         AD Blade 1 Y translation displacement, node 2, m
        135   -2.037903803419E+001                                                     F               0         AD Blade 1 Z translation displacement, node 2, m
        136   -8.374163558911E-001                                                     F               0         AD Blade 1 X translation displacement, node 3, m
        137   -4.356939452626E+001                                                     F               0         AD Blade 1 Y translation displacement, node 3, m
        138   -3.752081194693E+001                                                     F               0         AD Blade 1 Z translation displacement, node 3, m
        139    1.436831645361E+000                                                     F               0         AD Blade 1 X translation displacement, node 4, m
        140   -6.175419654884E+001                                                     F               0         AD Blade 1 Y translation displacement, node 4, m
        141   -5.319770129642E+001                                                     F               0         AD Blade 1 Z translation displacement, node 4, m
        142    9.494236174756E-001, -8.231014525657E-002, -3.030178782967E-001         F               0         AD Blade 1 X orientation angle, node 1, rad
        143    3.127360570843E-001,  1.614426456309E-001,  9.360194606797E-001         F               0         AD Blade 1 Y orientation angle, node 1, rad
        144   -2.812388982583E-002, -9.834435988706E-001,  1.790188109153E-001         F               0         AD Blade 1 Z orientation angle, node 1, rad
        145    9.701689229211E-001, -1.189188107881E-002, -2.421380683878E-001         F               0         AD Blade 1 X orientation angle, node 2, rad
        146    2.406990354712E-001,  1.663890567728E-001,  9.562314866754E-001         F               0         AD Blade 1 Y orientation angle, node 2, rad
        147    2.891773368449E-002, -9.859884710029E-001,  1.642878563007E-001         F               0         AD Blade 1 Z orientation angle, node 2, rad
        148    9.831067873059E-001,  9.395472771167E-002, -1.570781776495E-001         F               0         AD Blade 1 X orientation angle, node 3, rad
        149    1.403674818990E-001,  1.637496041490E-001,  9.764645601180E-001         F               0         AD Blade 1 Y orientation angle, node 3, rad
        150    1.174649512765E-001, -9.820176048736E-001,  1.477951587162E-001         F               0         AD Blade 1 Z orientation angle, node 3, rad
        151    9.730655510003E-001,  1.970687975429E-001, -1.196132203872E-001         F               0         AD Blade 1 X orientation angle, node 4, rad
        152    8.966944945516E-002,  1.544438740953E-001,  9.839240212480E-001         F               0         AD Blade 1 Y orientation angle, node 4, rad
        153    2.123742528906E-001, -9.681482214978E-001,  1.326129628647E-001         F               0         AD Blade 1 Z orientation angle, node 4, rad