
Linearized model: Predictions were generated on 03-Aug-2023 at 19:37:32 using OpenFAST, compiled on Aug  3 2023 at 19:14:33 as a 64-bit application using double precision at commit -128-NOTFOUND
 linked with  NWTC Subroutine Library; ElastoDyn; InflowWind; AeroDyn

Description from the FAST input file: One Blade, 4 aero-stations, Linearization with continuous States AeroDynamic modules

Simulation information:
   Simulation time:                     1.1000 s
   Rotor Speed:                         1.2671 rad/s
   Azimuth:                             1.3938 rad
   Wind Speed:                         13.0000 m/s
   Number of continuous states:        15
   Number of discrete states:           0
   Number of constraint states:         0
   Number of inputs:                  393
   Number of outputs:                  20
   Jacobians included in this file?    No

Order of continuous states:
   Row/Column Operating Point                                                   Rotating Frame? Derivative Order Description
   ---------- ---------------                                                   --------------- ---------------- -----------
          1    5.898182494568E+000                                                     T               2         ED 1st flapwise bending-mode DOF of blade 1 (internal DOF index = DOF_BF(1,1)), m
          2    4.783926384325E+000                                                     T               2         ED 1st flapwise bending-mode DOF of blade 2 (internal DOF index = DOF_BF(2,1)), m
          3    5.328495072275E+000                                                     T               2         ED 1st flapwise bending-mode DOF of blade 3 (internal DOF index = DOF_BF(3,1)), m
          4   -6.409575969029E+000                                                     T               2         ED First time derivative of 1st flapwise bending-mode DOF of blade 1 (internal DOF index = DOF_BF(1,1)), m/s
          5   -6.958898354381E+000                                                     T               2         ED First time derivative of 1st flapwise bending-mode DOF of blade 2 (internal DOF index = DOF_BF(2,1)), m/s
          6   -5.040871428527E+000                                                     T               2         ED First time derivative of 1st flapwise bending-mode DOF of blade 3 (internal DOF index = DOF_BF(3,1)), m/s
          7    5.092706438286E-001                                                     T               1         AD x4 blade 1, node 2, -
          8    5.643786533829E-001                                                     T               1         AD x4 blade 1, node 3, -
          9    5.181655012006E-001                                                     T               1         AD x4 blade 1, node 4, -
         10    5.611177768645E-001                                                     T               1         AD x4 blade 2, node 2, -
         11    5.786146812180E-001                                                     T               1         AD x4 blade 2, node 3, -
         12    5.194819661896E-001                                                     T               1         AD x4 blade 2, node 4, -
         13    5.115141243550E-001                                                     T               1         AD x4 blade 3, node 2, -
         14    5.715877374362E-001                                                     T               1         AD x4 blade 3, node 3, -
         15    5.194013718460E-001                                                     T               1         AD x4 blade 3, node 4, -

Order of continuous state derivatives:
   Row/Column Operating Point                                                   Rotating Frame? Derivative Order Description
   ---------- ---------------                                                   --------------- ---------------- -----------
          1   -6.409575969029E+000                                                     T               2         First time derivative of ED 1st flapwise bending-mode DOF of blade 1 (internal DOF index = DOF_BF(1,1)), m/s
          2   -6.958898354381E+000                                                     T               2         First time derivative of ED 1st flapwise bending-mode DOF of blade 2 (internal DOF index = DOF_BF(2,1)), m/s
          3   -5.040871428527E+000                                                     T               2         First time derivative of ED 1st flapwise bending-mode DOF of blade 3 (internal DOF index = DOF_BF(3,1)), m/s
          4   -6.502072332500E+000                                                     T               2         First time derivative of ED First time derivative of 1st flapwise bending-mode DOF of blade 1 (internal DOF index = DOF_BF(1,1)), m/s/s
          5   -1.037500704440E+000                                                     T               2         First time derivative of ED First time derivative of 1st flapwise bending-mode DOF of blade 2 (internal DOF index = DOF_BF(2,1)), m/s/s
          6   -4.145331582712E+000                                                     T               2         First time derivative of ED First time derivative of 1st flapwise bending-mode DOF of blade 3 (internal DOF index = DOF_BF(3,1)), m/s/s
          7   -1.180681431040E-003                                                     T               1         First time derivative of AD x4 blade 1, node 2, -/s
          8   -7.860283815772E-002                                                     T               1         First time derivative of AD x4 blade 1, node 3, -/s
          9    2.808012971116E-003                                                     T               1         First time derivative of AD x4 blade 1, node 4, -/s
         10   -2.558442440774E-002                                                     T               1         First time derivative of AD x4 blade 2, node 2, -/s
         11   -6.026297597236E-002                                                     T               1         First time derivative of AD x4 blade 2, node 3, -/s
         12    3.287494769559E-003                                                     T               1         First time derivative of AD x4 blade 2, node 4, -/s
         13   -4.359809318748E-002                                                     T               1         First time derivative of AD x4 blade 3, node 2, -/s
         14   -1.090079465796E-001                                                     T               1         First time derivative of AD x4 blade 3, node 3, -/s
         15    1.650799101756E-003                                                     T               1         First time derivative of AD x4 blade 3, node 4, -/s

Order of inputs:
     Column   Operating Point                                                   Rotating Frame? Derivative Order Description
   ---------- ---------------                                                   --------------- ---------------- -----------
          1   -5.042186643931E+000                                                     F               0         IfW X-component position of node 1 (blade 1, node 1), m
          2   -1.475165398306E+000                                                     F               0         IfW Y-component position of node 1 (blade 1, node 1), m
          3    9.026853160480E+001                                                     F               0         IfW Z-component position of node 1 (blade 1, node 1), m
          4   -5.326566855544E+000                                                     F               0         IfW X-component position of node 2 (blade 1, node 2), m
          5   -2.377193266179E+001                                                     F               0         IfW Y-component position of node 2 (blade 1, node 2), m
          6    9.365128719706E+001                                                     F               0         IfW Z-component position of node 2 (blade 1, node 2), m
          7   -3.907851533036E+000                                                     F               0         IfW X-component position of node 3 (blade 1, node 3), m
          8   -4.394496691411E+001                                                     F               0         IfW Y-component position of node 3 (blade 1, node 3), m
          9    9.698586686253E+001                                                     F               0         IfW Z-component position of node 3 (blade 1, node 3), m
         10   -7.986583102578E-001                                                     F               0         IfW X-component position of node 4 (blade 1, node 4), m
         11   -6.193012821993E+001                                                     F               0         IfW Y-component position of node 4 (blade 1, node 4), m
         12    9.973819249721E+001                                                     F               0         IfW Z-component position of node 4 (blade 1, node 4), m
         13   -5.188022185173E+000                                                     F               0         IfW X-component position of node 5 (blade 2, node 1), m
         14    5.090995219917E-001                                                     F               0         IfW Y-component position of node 5 (blade 2, node 1), m
         15    8.860162374080E+001                                                     F               0         IfW Z-component position of node 5 (blade 2, node 1), m
         16   -7.685609850582E+000                                                     F               0         IfW X-component position of node 6 (blade 2, node 2), m
         17    8.740916310647E+000                                                     F               0         IfW Y-component position of node 6 (blade 2, node 2), m
         18    6.775191208988E+001                                                     F               0         IfW Z-component position of node 6 (blade 2, node 2), m
         19   -8.615590906800E+000                                                     F               0         IfW X-component position of node 7 (blade 2, node 3), m
         20    1.579484528995E+001                                                     F               0         IfW Y-component position of node 7 (blade 2, node 3), m
         21    4.852863399139E+001                                                     F               0         IfW Z-component position of node 7 (blade 2, node 3), m
         22   -7.951002469533E+000                                                     F               0         IfW X-component position of node 8 (blade 2, node 4), m
         23    2.213897907052E+001                                                     F               0         IfW Y-component position of node 8 (blade 2, node 4), m
         24    3.121097837086E+001                                                     F               0         IfW Z-component position of node 8 (blade 2, node 4), m
         25   -4.965333909396E+000                                                     F               0         IfW X-component position of node 9 (blade 3, node 1), m
         26    9.660658763142E-001                                                     F               0         IfW Y-component position of node 9 (blade 3, node 1), m
         27    9.114696238014E+001                                                     F               0         IfW Z-component position of node 9 (blade 3, node 1), m
         28   -4.052010644896E+000                                                     F               0         IfW X-component position of node 10 (blade 3, node 2), m
         29    1.501908842215E+001                                                     F               0         IfW Y-component position of node 10 (blade 3, node 2), m
         30    1.087642994222E+002                                                     F               0         IfW Z-component position of node 10 (blade 3, node 2), m
         31   -1.752774711102E+000                                                     F               0         IfW X-component position of node 11 (blade 3, node 3), m
         32    2.811946078998E+001                                                     F               0         IfW Y-component position of node 11 (blade 3, node 3), m
         33    1.243597360822E+002                                                     F               0         IfW Z-component position of node 11 (blade 3, node 3), m
         34    1.972014217144E+000                                                     F               0         IfW X-component position of node 12 (blade 3, node 4), m
         35    3.978275424170E+001                                                     F               0         IfW Y-component position of node 12 (blade 3, node 4), m
         36    1.381704496417E+002                                                     F               0         IfW Z-component position of node 12 (blade 3, node 4), m
         37    0.000000000000E+000                                                     F               0         IfW X-component position of node 13, m
         38    0.000000000000E+000                                                     F               0         IfW Y-component position of node 13, m
         39    8.760000000000E+001                                                     F               0         IfW Z-component position of node 13, m
         40   -5.000000809192E+000                                                     F               0         IfW X-component position of node 14, m
         41    0.000000000000E+000                                                     F               0         IfW Y-component position of node 14, m
         42    9.000000338842E+001                                                     F               0         IfW Z-component position of node 14, m
         43   -5.000000809192E+000                                                     F               0         IfW X-component position of moving hub, m
         44    0.000000000000E+000                                                     F               0         IfW Y-component position of moving hub, m
         45    9.000000338842E+001                                                     F               0         IfW Z-component position of moving hub, m
         46    1.394479492847E+000                                                     F               0         IfW X orientation of moving hub, rad
         47    1.534471897260E-002                                                     F               0         IfW Y orientation of moving hub, rad
         48   -8.591015460785E-002                                                     F               0         IfW Z orientation of moving hub, rad
         49    1.300000000000E+001                                                     F               0         IfW Extended input: horizontal wind speed (steady/uniform wind), m/s
         50    2.000000000000E-001                                                     F               0         IfW Extended input: vertical power-law shear exponent, -
         51    0.000000000000E+000                                                     F               0         IfW Extended input: propagation direction, rad
         52    2.341645474228E+004                                                     F               0         ED Blade 1 X force, node 1, N
         53   -9.800721153929E+002                                                     F               0         ED Blade 1 Y force, node 1, N
         54   -9.567907543289E+003                                                     F               0         ED Blade 1 Z force, node 1, N
         55    9.845102902478E+004                                                     F               0         ED Blade 1 X force, node 2, N
         56    8.832696590235E+002                                                     F               0         ED Blade 1 Y force, node 2, N
         57   -3.627215020428E+004                                                     F               0         ED Blade 1 Z force, node 2, N
         58    1.471011905981E+005                                                     F               0         ED Blade 1 X force, node 3, N
         59    1.243022308330E+004                                                     F               0         ED Blade 1 Y force, node 3, N
         60   -4.278168753765E+004                                                     F               0         ED Blade 1 Z force, node 3, N
         61    1.637597022534E+004                                                     F               0         ED Blade 1 X moment, node 1, Nm
         62    8.972141293744E+003                                                     F               0         ED Blade 1 Y moment, node 1, Nm
         63    3.780159165150E+004                                                     F               0         ED Blade 1 Z moment, node 1, Nm
         64   -9.077854900478E+004                                                     F               0         ED Blade 1 X moment, node 2, Nm
         65   -4.916636959859E+004                                                     F               0         ED Blade 1 Y moment, node 2, Nm
         66   -1.861483103695E+005                                                     F               0         ED Blade 1 Z moment, node 2, Nm
         67   -2.179930060812E+005                                                     F               0         ED Blade 1 X moment, node 3, Nm
         68   -1.340300527030E+005                                                     F               0         ED Blade 1 Y moment, node 3, Nm
         69   -6.285147554357E+005                                                     F               0         ED Blade 1 Z moment, node 3, Nm
         70    2.268084740223E+004                                                     F               0         ED Blade 2 X force, node 1, N
         71    6.642279645034E+003                                                     F               0         ED Blade 2 Y force, node 1, N
         72    5.113953355244E+002                                                     F               0         ED Blade 2 Z force, node 1, N
         73    9.356385671631E+004                                                     F               0         ED Blade 2 X force, node 2, N
         74    2.157284818054E+004                                                     F               0         ED Blade 2 Y force, node 2, N
         75    3.306364266833E+003                                                     F               0         ED Blade 2 Z force, node 2, N
         76    1.382360050500E+005                                                     F               0         ED Blade 2 X force, node 3, N
         77    1.737513181452E+004                                                     F               0         ED Blade 2 Y force, node 3, N
         78    6.958885052498E+003                                                     F               0         ED Blade 2 Z force, node 3, N
         79    1.086592545887E+004                                                     F               0         ED Blade 2 X moment, node 1, Nm
         80   -3.569856398342E+004                                                     F               0         ED Blade 2 Y moment, node 1, Nm
         81   -1.225163202740E+004                                                     F               0         ED Blade 2 Z moment, node 1, Nm
         82   -6.697461225364E+004                                                     F               0         ED Blade 2 X moment, node 2, Nm
         83    1.826219559538E+005                                                     F               0         ED Blade 2 Y moment, node 2, Nm
         84    5.857634768388E+004                                                     F               0         ED Blade 2 Z moment, node 2, Nm
         85   -1.213739523145E+005                                                     F               0         ED Blade 2 X moment, node 3, Nm
         86    5.560485508713E+005                                                     F               0         ED Blade 2 Y moment, node 3, Nm
         87    2.000475605803E+005                                                     F               0         ED Blade 2 Z moment, node 3, Nm
         88    2.506215494841E+004                                                     F               0         ED Blade 3 X force, node 1, N
         89   -6.466689576219E+003                                                     F               0         ED Blade 3 Y force, node 1, N
         90    2.988837427660E+003                                                     F               0         ED Blade 3 Z force, node 1, N
         91    1.024572318851E+005                                                     F               0         ED Blade 3 X force, node 2, N
         92   -2.490861545673E+004                                                     F               0         ED Blade 3 Y force, node 2, N
         93    5.983560480995E+003                                                     F               0         ED Blade 3 Z force, node 2, N
         94    1.472736968893E+005                                                     F               0         ED Blade 3 X force, node 3, N
         95   -3.087352501156E+004                                                     F               0         ED Blade 3 Y force, node 3, N
         96   -6.231809604633E+003                                                     F               0         ED Blade 3 Z force, node 3, N
         97    1.138057573986E+004                                                     F               0         ED Blade 3 X moment, node 1, Nm
         98    3.080140106769E+004                                                     F               0         ED Blade 3 Y moment, node 1, Nm
         99   -2.812107892470E+004                                                     F               0         ED Blade 3 Z moment, node 1, Nm
        100   -6.905682494089E+004                                                     F               0         ED Blade 3 X moment, node 2, Nm
        101   -1.481316037499E+005                                                     F               0         ED Blade 3 Y moment, node 2, Nm
        102    1.541605940961E+005                                                     F               0         ED Blade 3 Z moment, node 2, Nm
        103   -1.290505469693E+005                                                     F               0         ED Blade 3 X moment, node 3, Nm
        104   -4.840756604945E+005                                                     F               0         ED Blade 3 Y moment, node 3, Nm
        105    4.460095586146E+005                                                     F               0         ED Blade 3 Z moment, node 3, Nm
        106    0.000000000000E+000                                                     F               0         ED Platform X force, node 1, N
        107    0.000000000000E+000                                                     F               0         ED Platform Y force, node 1, N
        108    0.000000000000E+000                                                     F               0         ED Platform Z force, node 1, N
        109    0.000000000000E+000                                                     F               0         ED Platform X moment, node 1, Nm
        110    0.000000000000E+000                                                     F               0         ED Platform Y moment, node 1, Nm
        111    0.000000000000E+000                                                     F               0         ED Platform Z moment, node 1, Nm
        112    0.000000000000E+000                                                     F               0         ED Tower X force, node 1, N
        113    0.000000000000E+000                                                     F               0         ED Tower Y force, node 1, N
        114    0.000000000000E+000                                                     F               0         ED Tower Z force, node 1, N
        115    0.000000000000E+000                                                     F               0         ED Tower X force, node 2, N
        116    0.000000000000E+000                                                     F               0         ED Tower Y force, node 2, N
        117    0.000000000000E+000                                                     F               0         ED Tower Z force, node 2, N
        118    0.000000000000E+000                                                     F               0         ED Tower X force, node 3, N
        119    0.000000000000E+000                                                     F               0         ED Tower Y force, node 3, N
        120    0.000000000000E+000                                                     F               0         ED Tower Z force, node 3, N
        121    0.000000000000E+000                                                     F               0         ED Tower X moment, node 1, Nm
        122    0.000000000000E+000                                                     F               0         ED Tower Y moment, node 1, Nm
        123    0.000000000000E+000                                                     F               0         ED Tower Z moment, node 1, Nm
        124    0.000000000000E+000                                                     F               0         ED Tower X moment, node 2, Nm
        125    0.000000000000E+000                                                     F               0         ED Tower Y moment, node 2, Nm
        126    0.000000000000E+000                                                     F               0         ED Tower Z moment, node 2, Nm
        127    0.000000000000E+000                                                     F               0         ED Tower X moment, node 3, Nm
        128    0.000000000000E+000                                                     F               0         ED Tower Y moment, node 3, Nm
        129    0.000000000000E+000                                                     F               0         ED Tower Z moment, node 3, Nm
        130    0.000000000000E+000                                                     F               0         ED Hub X force, node 1, N
        131    0.000000000000E+000                                                     F               0         ED Hub Y force, node 1, N
        132    0.000000000000E+000                                                     F               0         ED Hub Z force, node 1, N
        133    0.000000000000E+000                                                     F               0         ED Hub X moment, node 1, Nm
        134    0.000000000000E+000                                                     F               0         ED Hub Y moment, node 1, Nm
        135    0.000000000000E+000                                                     F               0         ED Hub Z moment, node 1, Nm
        136    0.000000000000E+000                                                     F               0         ED Nacelle X force, node 1, N
        137    0.000000000000E+000                                                     F               0         ED Nacelle Y force, node 1, N
        138    0.000000000000E+000                                                     F               0         ED Nacelle Z force, node 1, N
        139    0.000000000000E+000                                                     F               0         ED Nacelle X moment, node 1, Nm
        140    0.000000000000E+000                                                     F               0         ED Nacelle Y moment, node 1, Nm
        141    0.000000000000E+000                                                     F               0         ED Nacelle Z moment, node 1, Nm
        142    0.000000000000E+000                                                     T               0         ED Blade 1 pitch command, rad
        143    0.000000000000E+000                                                     T               0         ED Blade 2 pitch command, rad
        144    0.000000000000E+000                                                     T               0         ED Blade 3 pitch command, rad
        145    0.000000000000E+000                                                     F               0         ED Yaw moment, Nm
        146    0.000000000000E+000                                                     F               0         ED Generator torque, Nm
        147    0.000000000000E+000                                                     F               0         ED Extended input: collective blade-pitch command, rad
        148    0.000000000000E+000                                                     F               0         AD Hub X translation displacement, node 1, m
        149    0.000000000000E+000                                                     F               0         AD Hub Y translation displacement, node 1, m
        150    0.000000000000E+000                                                     F               0         AD Hub Z translation displacement, node 1, m
        151    9.961946980917E-001,  0.000000000000E+000, -8.715574274766E-002         F               0         AD Hub X orientation angle, node 1, rad