
Linearized model: Predictions were generated on 02-May-2024 at 21:57:07 using OpenFAST, compiled on May  2 2024 at 21:38:56 as a 64-bit application using double precision at commit -128-NOTFOUND
 linked with  NWTC Subroutine Library; ElastoDyn; InflowWind; AeroDyn

Description from the FAST input file: One Blade, 4 aero-stations, Linearization with continuous States AeroDynamic modules

Simulation information:
   Simulation time:                     1.1000 s
   Rotor Speed:                         1.2671 rad/s
   Azimuth:                             1.3938 rad
   Wind Speed:                         13.0000 m/s
   Number of continuous states:        15
   Number of discrete states:           0
   Number of constraint states:         0
   Number of inputs:                  360
   Number of outputs:                  20
   Jacobians included in this file?    No

Order of continuous states:
   Row/Column Operating Point                                                   Rotating Frame? Derivative Order Description
   ---------- ---------------                                                   --------------- ---------------- -----------
          1    5.898197977533E+000                                                     T               2         ED 1st flapwise bending-mode DOF of blade 1 (internal DOF index = DOF_BF(1,1)), m
          2    4.784056818732E+000                                                     T               2         ED 1st flapwise bending-mode DOF of blade 2 (internal DOF index = DOF_BF(2,1)), m
          3    5.328018719647E+000                                                     T               2         ED 1st flapwise bending-mode DOF of blade 3 (internal DOF index = DOF_BF(3,1)), m
          4   -6.409274484896E+000                                                     T               2         ED First time derivative of 1st flapwise bending-mode DOF of blade 1 (internal DOF index = DOF_BF(1,1)), m/s
          5   -6.959464490534E+000                                                     T               2         ED First time derivative of 1st flapwise bending-mode DOF of blade 2 (internal DOF index = DOF_BF(2,1)), m/s
          6   -5.040341359991E+000                                                     T               2         ED First time derivative of 1st flapwise bending-mode DOF of blade 3 (internal DOF index = DOF_BF(3,1)), m/s
          7    5.093319969837E-001                                                     T               1         AD x4 blade 1, node 2, -
          8    5.644371751995E-001                                                     T               1         AD x4 blade 1, node 3, -
          9    5.181655821611E-001                                                     T               1         AD x4 blade 1, node 4, -
         10    5.613352243836E-001                                                     T               1         AD x4 blade 2, node 2, -
         11    5.786337526314E-001                                                     T               1         AD x4 blade 2, node 3, -
         12    5.194816559647E-001                                                     T               1         AD x4 blade 2, node 4, -
         13    5.111482716856E-001                                                     T               1         AD x4 blade 3, node 2, -
         14    5.714100912050E-001                                                     T               1         AD x4 blade 3, node 3, -
         15    5.194022071327E-001                                                     T               1         AD x4 blade 3, node 4, -

Order of continuous state derivatives:
   Row/Column Operating Point                                                   Rotating Frame? Derivative Order Description
   ---------- ---------------                                                   --------------- ---------------- -----------
          1   -6.409274484896E+000                                                     T               2         First time derivative of ED 1st flapwise bending-mode DOF of blade 1 (internal DOF index = DOF_BF(1,1)), m/s
          2   -6.959464490534E+000                                                     T               2         First time derivative of ED 1st flapwise bending-mode DOF of blade 2 (internal DOF index = DOF_BF(2,1)), m/s
          3   -5.040341359991E+000                                                     T               2         First time derivative of ED 1st flapwise bending-mode DOF of blade 3 (internal DOF index = DOF_BF(3,1)), m/s
          4   -6.500163876560E+000                                                     T               2         First time derivative of ED First time derivative of 1st flapwise bending-mode DOF of blade 1 (internal DOF index = DOF_BF(1,1)), m/s/s
          5   -1.036945556165E+000                                                     T               2         First time derivative of ED First time derivative of 1st flapwise bending-mode DOF of blade 2 (internal DOF index = DOF_BF(2,1)), m/s/s
          6   -4.147690038406E+000                                                     T               2         First time derivative of ED First time derivative of 1st flapwise bending-mode DOF of blade 3 (internal DOF index = DOF_BF(3,1)), m/s/s
          7   -1.212760272604E-003                                                     T               1         First time derivative of AD x4 blade 1, node 2, -/s
          8   -7.867347809636E-002                                                     T               1         First time derivative of AD x4 blade 1, node 3, -/s
          9    2.807639444280E-003                                                     T               1         First time derivative of AD x4 blade 1, node 4, -/s
         10   -2.569680667561E-002                                                     T               1         First time derivative of AD x4 blade 2, node 2, -/s
         11   -6.029633895911E-002                                                     T               1         First time derivative of AD x4 blade 2, node 3, -/s
         12    3.288156623956E-003                                                     T               1         First time derivative of AD x4 blade 2, node 4, -/s
         13   -4.340865322850E-002                                                     T               1         First time derivative of AD x4 blade 3, node 2, -/s
         14   -1.087716230766E-001                                                     T               1         First time derivative of AD x4 blade 3, node 3, -/s
         15    1.649844208939E-003                                                     T               1         First time derivative of AD x4 blade 3, node 4, -/s

Order of inputs:
     Column   Operating Point                                                   Rotating Frame? Derivative Order Description
   ---------- ---------------                                                   --------------- ---------------- -----------
          1    1.300000000000E+001                                                     F               0         IfW Extended input: horizontal wind speed (steady/uniform wind), m/s
          2    2.000000000000E-001                                                     F               0         IfW Extended input: vertical power-law shear exponent, -
          3    0.000000000000E+000                                                     F               0         IfW Extended input: propagation direction, rad
          4    2.341744249185E+004                                                     F               0         ED Blade 1 X force, node 1, N
          5   -9.801093683491E+002                                                     F               0         ED Blade 1 Y force, node 1, N
          6   -9.568309171116E+003                                                     F               0         ED Blade 1 Z force, node 1, N
          7    9.845473294960E+004                                                     F               0         ED Blade 1 X force, node 2, N
          8    8.833201630499E+002                                                     F               0         ED Blade 1 Y force, node 2, N
          9   -3.627343639662E+004                                                     F               0         ED Blade 1 Z force, node 2, N
         10    1.471053293229E+005                                                     F               0         ED Blade 1 X force, node 3, N
         11    1.243058936970E+004                                                     F               0         ED Blade 1 Y force, node 3, N
         12   -4.278278431588E+004                                                     F               0         ED Blade 1 Z force, node 3, N
         13    1.637664527970E+004                                                     F               0         ED Blade 1 X moment, node 1, Nm
         14    8.972136131864E+003                                                     F               0         ED Blade 1 Y moment, node 1, Nm
         15    3.780325591269E+004                                                     F               0         ED Blade 1 Z moment, node 1, Nm
         16   -9.078279191849E+004                                                     F               0         ED Blade 1 X moment, node 2, Nm
         17   -4.916979471487E+004                                                     F               0         ED Blade 1 Y moment, node 2, Nm
         18   -1.861570588287E+005                                                     F               0         ED Blade 1 Z moment, node 2, Nm
         19   -2.179990695200E+005                                                     F               0         ED Blade 1 X moment, node 3, Nm
         20   -1.340358945157E+005                                                     F               0         ED Blade 1 Y moment, node 3, Nm
         21   -6.285383328842E+005                                                     F               0         ED Blade 1 Z moment, node 3, Nm
         22    2.268449334117E+004                                                     F               0         ED Blade 2 X force, node 1, N
         23    6.643409729707E+003                                                     F               0         ED Blade 2 Y force, node 1, N
         24    5.115310356699E+002                                                     F               0         ED Blade 2 Z force, node 1, N
         25    9.357344469932E+004                                                     F               0         ED Blade 2 X force, node 2, N
         26    2.157574216512E+004                                                     F               0         ED Blade 2 Y force, node 2, N
         27    3.306934138019E+003                                                     F               0         ED Blade 2 Z force, node 2, N
         28    1.382403075804E+005                                                     F               0         ED Blade 2 X force, node 3, N
         29    1.737624848472E+004                                                     F               0         ED Blade 2 Y force, node 3, N
         30    6.959714729470E+003                                                     F               0         ED Blade 2 Z force, node 3, N
         31    1.086766851297E+004                                                     F               0         ED Blade 2 X moment, node 1, Nm
         32   -3.570383226205E+004                                                     F               0         ED Blade 2 Y moment, node 1, Nm
         33   -1.225487883890E+004                                                     F               0         ED Blade 2 Z moment, node 1, Nm
         34   -6.698823727743E+004                                                     F               0         ED Blade 2 X moment, node 2, Nm
         35    1.826646512847E+005                                                     F               0         ED Blade 2 Y moment, node 2, Nm
         36    5.858828409342E+004                                                     F               0         ED Blade 2 Z moment, node 2, Nm
         37   -1.213831210525E+005                                                     F               0         ED Blade 2 X moment, node 3, Nm
         38    5.560776965840E+005                                                     F               0         ED Blade 2 Y moment, node 3, Nm
         39    2.000564572172E+005                                                     F               0         ED Blade 2 Z moment, node 3, Nm
         40    2.505512108232E+004                                                     F               0         ED Blade 3 X force, node 1, N
         41   -6.464646000733E+003                                                     F               0         ED Blade 3 Y force, node 1, N
         42    2.987957083241E+003                                                     F               0         ED Blade 3 Z force, node 1, N
         43    1.024350191276E+005                                                     F               0         ED Blade 3 X force, node 2, N
         44   -2.490203991037E+004                                                     F               0         ED Blade 3 Y force, node 2, N
         45    5.981944083121E+003                                                     F               0         ED Blade 3 Z force, node 2, N
         46    1.472556262664E+005                                                     F               0         ED Blade 3 X force, node 3, N
         47   -3.086764396541E+004                                                     F               0         ED Blade 3 Y force, node 3, N
         48   -6.230748924121E+003                                                     F               0         ED Blade 3 Z force, node 3, N
         49    1.137690149630E+004                                                     F               0         ED Blade 3 X moment, node 1, Nm
         50    3.079127012180E+004                                                     F               0         ED Blade 3 Y moment, node 1, Nm
         51   -2.811493558940E+004                                                     F               0         ED Blade 3 Z moment, node 1, Nm
         52   -6.903348906423E+004                                                     F               0         ED Blade 3 X moment, node 2, Nm
         53   -1.480814844388E+005                                                     F               0         ED Blade 3 Y moment, node 2, Nm
         54    1.541022594464E+005                                                     F               0         ED Blade 3 Z moment, node 2, Nm
         55   -1.290277538658E+005                                                     F               0         ED Blade 3 X moment, node 3, Nm
         56   -4.839951829855E+005                                                     F               0         ED Blade 3 Y moment, node 3, Nm
         57    4.459271414046E+005                                                     F               0         ED Blade 3 Z moment, node 3, Nm
         58    0.000000000000E+000                                                     F               0         ED Platform X force, node 1, N
         59    0.000000000000E+000                                                     F               0         ED Platform Y force, node 1, N
         60    0.000000000000E+000                                                     F               0         ED Platform Z force, node 1, N
         61    0.000000000000E+000                                                     F               0         ED Platform X moment, node 1, Nm
         62    0.000000000000E+000                                                     F               0         ED Platform Y moment, node 1, Nm
         63    0.000000000000E+000                                                     F               0         ED Platform Z moment, node 1, Nm
         64    0.000000000000E+000                                                     F               0         ED Tower X force, node 1, N
         65    0.000000000000E+000                                                     F               0         ED Tower Y force, node 1, N
         66    0.000000000000E+000                                                     F               0         ED Tower Z force, node 1, N
         67    0.000000000000E+000                                                     F               0         ED Tower X force, node 2, N
         68    0.000000000000E+000                                                     F               0         ED Tower Y force, node 2, N
         69    0.000000000000E+000                                                     F               0         ED Tower Z force, node 2, N
         70    0.000000000000E+000                                                     F               0         ED Tower X force, node 3, N
         71    0.000000000000E+000                                                     F               0         ED Tower Y force, node 3, N
         72    0.000000000000E+000                                                     F               0         ED Tower Z force, node 3, N
         73    0.000000000000E+000                                                     F               0         ED Tower X moment, node 1, Nm
         74    0.000000000000E+000                                                     F               0         ED Tower Y moment, node 1, Nm
         75    0.000000000000E+000                                                     F               0         ED Tower Z moment, node 1, Nm
         76    0.000000000000E+000                                                     F               0         ED Tower X moment, node 2, Nm
         77    0.000000000000E+000                                                     F               0         ED Tower Y moment, node 2, Nm
         78    0.000000000000E+000                                                     F               0         ED Tower Z moment, node 2, Nm
         79    0.000000000000E+000                                                     F               0         ED Tower X moment, node 3, Nm
         80    0.000000000000E+000                                                     F               0         ED Tower Y moment, node 3, Nm
         81    0.000000000000E+000                                                     F               0         ED Tower Z moment, node 3, Nm
         82    0.000000000000E+000                                                     F               0         ED Hub X force, node 1, N
         83    0.000000000000E+000                                                     F               0         ED Hub Y force, node 1, N
         84    0.000000000000E+000                                                     F               0         ED Hub Z force, node 1, N
         85    0.000000000000E+000                                                     F               0         ED Hub X moment, node 1, Nm
         86    0.000000000000E+000                                                     F               0         ED Hub Y moment, node 1, Nm
         87    0.000000000000E+000                                                     F               0         ED Hub Z moment, node 1, Nm
         88    0.000000000000E+000                                                     F               0         ED Nacelle X force, node 1, N
         89    0.000000000000E+000                                                     F               0         ED Nacelle Y force, node 1, N
         90    0.000000000000E+000                                                     F               0         ED Nacelle Z force, node 1, N
         91    0.000000000000E+000                                                     F               0         ED Nacelle X moment, node 1, Nm
         92    0.000000000000E+000                                                     F               0         ED Nacelle Y moment, node 1, Nm
         93    0.000000000000E+000                                                     F               0         ED Nacelle Z moment, node 1, Nm
         94    0.000000000000E+000                                                     F               0         ED Tailfin X force, node 1, N
         95    0.000000000000E+000                                                     F               0         ED Tailfin Y force, node 1, N
         96    0.000000000000E+000                                                     F               0         ED Tailfin Z force, node 1, N
         97    0.000000000000E+000                                                     F               0         ED Tailfin X moment, node 1, Nm
         98    0.000000000000E+000                                                     F               0         ED Tailfin Y moment, node 1, Nm
         99    0.000000000000E+000                                                     F               0         ED Tailfin Z moment, node 1, Nm
        100    0.000000000000E+000                                                     T               0         ED Blade 1 pitch command, rad
        101    0.000000000000E+000                                                     T               0         ED Blade 2 pitch command, rad
        102    0.000000000000E+000                                                     T               0         ED Blade 3 pitch command, rad
        103    0.000000000000E+000                                                     F               0         ED Yaw moment, Nm
        104    0.000000000000E+000                                                     F               0         ED Generator torque, Nm
        105    0.000000000000E+000                                                     F               0         ED Extended input: collective blade-pitch command, rad
        106    0.000000000000E+000                                                     F               0         AD Nacelle X translation displacement, node 1, m
        107    0.000000000000E+000                                                     F               0         AD Nacelle Y translation displacement, node 1, m
        108    0.000000000000E+000                                                     F               0         AD Nacelle Z translation displacement, node 1, m
        109    1.000000000000E+000,  0.000000000000E+000,  0.000000000000E+000         F               0         AD Nacelle X orientation angle, node 1, rad
        110    0.000000000000E+000,  1.000000000000E+000,  0.000000000000E+000         F               0         AD Nacelle Y orientation angle, node 1, rad
        111    0.000000000000E+000,  0.000000000000E+000,  1.000000000000E+000         F               0         AD Nacelle Z orientation angle, node 1, rad
        112    0.000000000000E+000                                                     F               0         AD Hub X translation displacement, node 1, m
        113    0.000000000000E+000                                                     F               0         AD Hub Y translation displacement, node 1, m
        114    0.000000000000E+000                                                     F               0         AD Hub Z translation displacement, node 1, m
        115    9.961946980917E-001,  0.000000000000E+000, -8.715574274766E-002         F               0         AD Hub X orientation angle, node 1, rad
        116    8.579441458219E-002,  1.760539961798E-001,  9.806346459592E-001         F               0         AD Hub Y orientation angle, node 1, rad
        117    1.534411680074E-002, -9.843805109962E-001,  1.753840575722E-001         F               0         AD Hub Z orientation angle, node 1, rad
        118    1.262287304512E+000                                                     F               0         AD Hub X rotation velocity, node 1, rad/s
        119   -0.000000000000E+000                                                     F               0         AD Hub Y rotation velocity, node 1, rad/s
        120   -1.104358292575E-001                                                     F               0         AD Hub Z rotation velocity, node 1, rad/s
        121    9.959158424523E-001, -4.293807482403E-002, -7.942264464775E-002         F               0         AD Blade root 1 X orientation angle, node 1, rad
        122    8.579441458219E-002,  1.760539961798E-001,  9.806346459592E-001         F               0         AD Blade root 1 Y orientation angle, node 1, rad
        123   -2.812388982583E-002, -9.834435988706E-001,  1.790188109153E-001         F               0         AD Blade root 1 Z orientation angle, node 1, rad
        124    9.916709642922E-001,  1.481851010962E-002, -1.279418240368E-001         F               0         AD Blade root 2 X orientation angle, node 1, rad
        125   -2.960881234302E-002, -9.405255276029E-001, -3.384302737033E-001         F               0         AD Blade root 2 Y orientation angle, node 1, rad
        126   -1.253475839870E-001,  3.393996813278E-001, -9.322530984144E-001         F               0         AD Blade root 2 Z orientation angle, node 1, rad
        127    9.981528176889E-001,  2.811956471441E-002, -5.385390069351E-002         F               0         AD Blade root 3 X orientation angle, node 1, rad
        128   -5.618560223918E-002,  7.644715314231E-001, -6.422043722559E-001         F               0         AD Blade root 3 Y orientation angle, node 1, rad
        129    2.311126653075E-002,  6.440439175428E-001,  7.646393278111E-001         F               0         AD Blade root 3 Z orientation angle, node 1, rad
        130   -1.076149157867E-001                                                     F               0         AD Blade 1 X translation displacement, node 1, m
        131   -1.475165398306E+000                                                     F               0         AD Blade 1 Y translation displacement, node 1, m
        132   -1.230044116000E+000                                                     F               0         AD Blade 1 Z translation displacement, node 1, m
        133   -1.292503258615E+000                                                     F               0         AD Blade 1 X translation displacement, node 2, m
        134   -2.324736271261E+001                                                     F               0         AD Blade 1 Y translation displacement, node 2, m
        135   -2.037945487498E+001                                                     F               0         AD Blade 1 Z translation displacement, node 2, m
        136   -8.305964907020E-001                                                     F               0         AD Blade 1 X translation displacement, node 3, m
        137   -4.356927629264E+001                                                     F               0         AD Blade 1 Y translation displacement, node 3, m
        138   -3.752263118051E+001                                                     F               0         AD Blade 1 Z translation displacement, node 3, m
        139    1.453669050605E+000                                                     F               0         AD Blade 1 X translation displacement, node 4, m
        140   -6.175275216514E+001                                                     F               0         AD Blade 1 Y translation displacement, node 4, m
        141   -5.320176706455E+001                                                     F               0         AD Blade 1 Z translation displacement, node 4, m
        142    9.494236174756E-001, -8.231014525657E-002, -3.030178782967E-001         F               0         AD Blade 1 X orientation angle, node 1, rad
        143    3.127360570843E-001,  1.614426456309E-001,  9.360194606797E-001         F               0         AD Blade 1 Y orientation angle, node 1, rad
        144   -2.812388982583E-002, -9.834435988706E-001,  1.790188109153E-001         F               0         AD Blade 1 Z orientation angle, node 1, rad
        145    9.701641597761E-001, -1.172899126062E-002, -2.421650962668E-001         F               0         AD Blade 1 X orientation angle, node 2, rad
        146    2.406989795851E-001,  1.663872788408E-001,  9.562318101102E-001         F               0         AD Blade 1 Y orientation angle, node 2, rad
        147    2.907755685414E-002, -9.859907221693E-001,  1.642461308020E-001         F               0         AD Blade 1 Z orientation angle, node 2, rad
        148    9.830585462547E-001,  9.435749135162E-002, -1.571386599838E-001         F               0         AD Blade 1 X orientation angle, node 3, rad
        149    1.403704692418E-001,  1.637237044815E-001,  9.764684736107E-001         F               0         AD Blade 1 Y orientation angle, node 3, rad
        150    1.178644390837E-001, -9.819833055692E-001,  1.477049815775E-001         F               0         AD Blade 1 Z orientation angle, node 3, rad
        151    9.729247795923E-001,  1.977095269689E-001, -1.197009448624E-001         F               0         AD Blade 1 X orientation angle, node 4, rad
        152    8.968206057441E-002,  1.543864738353E-001,  9.839318801156E-001         F               0         AD Blade 1 Y orientation angle, node 4, rad
        153    2.130129133793E-001, -9.680267349833E-001,  1.324754282544E-001         F               0         AD Blade 1 Z orientation angle, node 4, rad