
FAST Summary File

Predictions were generated on 17-Oct-2023 at 17:13:21 using OpenFAST, compiled as a 64-bit application using double precision at commit v3.5.0-135-ga312b265-dirty
  compiled with
    NWTC Subroutine Library
    ElastoDyn
    BeamDyn (unknown version, unknown date) [not called]
    InflowWind
    AeroDyn14 (unknown version, unknown date) [not called]
    AeroDyn
    ServoDyn
    HydroDyn
    SubDyn (unknown version, unknown date) [not called]
    ExtPtfm_MCKF (unknown version, unknown date) [not called]
    MAP (unknown version, unknown date) [not called]
    FEAMooring (unknown version, unknown date) [not called]
    MoorDyn (v2.0.0, 2023-09-18)
    OrcaFlexInterface (unknown version, unknown date) [not called]
    IceFloe (unknown version, unknown date) [not called]
    IceDyn (unknown version, unknown date) [not called]


Modeling a floating offshore turbine
Description from the FAST input file: 
  FAST Certification Test #25: NREL 5.0 MW Baseline Wind Turbine with OC4-DeepCwind semi configuration, for use in offshore analysis

Interpolation order for input/output time histories: 2 (quadratic)
Number of correction iterations:  0
Number of rows in Jacobian matrix used for coupling ElastoDyn to HydroDyn:     12


   Requested Time Steps  
  -------------------------------------------------
  Component          Time Step (s)    Subcycles (-)
  -----------------  ---------------  -------------
  FAST (glue code)     1.2500000E-02
  InflowWind           1.2500000E-02         1
  ElastoDyn            1.2500000E-02         1
  AeroDyn              1.2500000E-02         1
  ServoDyn             1.2500000E-02         1
  HydroDyn             1.2500000E-02         1
  MoorDyn              1.2500000E-02         1
  FAST output files    1.2500000E-02         1


   Requested Channels in FAST Output File(s)  
  --------------------------------------------
  Number  Name                  Units                 Generated by
  ------  --------------------  --------------------  ------------
       1  Time                  (s)                   OpenFAST
       2  Wind1VelX             (m/s)                 InflowWind
       3  Wind1VelY             (m/s)                 InflowWind
       4  Wind1VelZ             (m/s)                 InflowWind
       5  Azimuth               (deg)                 ElastoDyn
       6  RotSpeed              (rpm)                 ElastoDyn
       7  GenSpeed              (rpm)                 ElastoDyn
       8  OoPDefl1              (m)                   ElastoDyn
       9  IPDefl1               (m)                   ElastoDyn
      10  TwstDefl1             (deg)                 ElastoDyn
      11  BldPitch1             (deg)                 ElastoDyn
      12  TTDspFA               (m)                   ElastoDyn
      13  TTDspSS               (m)                   ElastoDyn
      14  TTDspTwst             (deg)                 ElastoDyn
      15  PtfmSurge             (m)                   ElastoDyn
      16  PtfmSway              (m)                   ElastoDyn
      17  PtfmHeave             (m)                   ElastoDyn
      18  PtfmRoll              (deg)                 ElastoDyn
      19  PtfmPitch             (deg)                 ElastoDyn
      20  PtfmYaw               (deg)                 ElastoDyn
      21  RootFxc1              (kN)                  ElastoDyn
      22  RootFyc1              (kN)                  ElastoDyn
      23  RootFzc1              (kN)                  ElastoDyn
      24  RootMxc1              (kN-m)                ElastoDyn
      25  RootMyc1              (kN-m)                ElastoDyn
      26  RootMzc1              (kN-m)                ElastoDyn
      27  RotTorq               (kN-m)                ElastoDyn
      28  LSSGagMya             (kN-m)                ElastoDyn
      29  LSSGagMza             (kN-m)                ElastoDyn
      30  YawBrFxp              (kN)                  ElastoDyn
      31  YawBrFyp              (kN)                  ElastoDyn
      32  YawBrFzp              (kN)                  ElastoDyn
      33  YawBrMxp              (kN-m)                ElastoDyn
      34  YawBrMyp              (kN-m)                ElastoDyn
      35  YawBrMzp              (kN-m)                ElastoDyn
      36  TwrBsFxt              (kN)                  ElastoDyn
      37  TwrBsFyt              (kN)                  ElastoDyn
      38  TwrBsFzt              (kN)                  ElastoDyn
      39  TwrBsMxt              (kN-m)                ElastoDyn
      40  TwrBsMyt              (kN-m)                ElastoDyn
      41  TwrBsMzt              (kN-m)                ElastoDyn
      42  RtArea                (m^2)                 AeroDyn
      43  B1N3Clrnc             (m)                   AeroDyn
      44  B2N3Clrnc             (m)                   AeroDyn
      45  B3N3Clrnc             (m)                   AeroDyn
      46  GenPwr                (kW)                  ServoDyn
      47  GenTq                 (kN-m)                ServoDyn
      48  Wave1Elev             (m)                   HydroDyn
      49  HydroFxi              (N)                   HydroDyn
      50  HydroFyi              (N)                   HydroDyn
      51  HydroFzi              (N)                   HydroDyn
      52  HydroMxi              (N-m)                 HydroDyn
      53  HydroMyi              (N-m)                 HydroDyn
      54  HydroMzi              (N-m)                 HydroDyn
      55  B1Surge               (m)                   HydroDyn
      56  B1Sway                (m)                   HydroDyn
      57  B1Heave               (m)                   HydroDyn
      58  B1Roll                (rad)                 HydroDyn
      59  B1Pitch               (rad)                 HydroDyn
      60  B1Yaw                 (rad)                 HydroDyn
      61  B1TVxi                (m/s)                 HydroDyn
      62  B1TVyi                (m/s)                 HydroDyn
      63  B1TVzi                (m/s)                 HydroDyn
      64  B1RVxi                (rad/s)               HydroDyn
      65  B1RVyi                (rad/s)               HydroDyn
      66  B1RVzi                (rad/s)               HydroDyn
      67  B1TAxi                (m/s^2)               HydroDyn
      68  B1TAyi                (m/s^2)               HydroDyn
      69  B1TAzi                (m/s^2)               HydroDyn
      70  B1RAxi                (rad/s^2)             HydroDyn
      71  B1RAyi                (rad/s^2)             HydroDyn
      72  B1RAzi                (rad/s^2)             HydroDyn
      73  B1WvsFxi              (N)                   HydroDyn
      74  B1WvsFyi              (N)                   HydroDyn
      75  B1WvsFzi              (N)                   HydroDyn
      76  B1WvsMxi              (N-m)                 HydroDyn
      77  B1WvsMyi              (N-m)                 HydroDyn
      78  B1WvsMzi              (N-m)                 HydroDyn
      79  B1HDSFxi              (N)                   HydroDyn
      80  B1HDSFyi              (N)                   HydroDyn
      81  B1HDSFzi              (N)                   HydroDyn
      82  B1HDSMxi              (N-m)                 HydroDyn
      83  B1HDSMyi              (N-m)                 HydroDyn
      84  B1HDSMzi              (N-m)                 HydroDyn
      85  B1RdtFxi              (N)                   HydroDyn
      86  B1RdtFyi              (N)                   HydroDyn
      87  B1RdtFzi              (N)                   HydroDyn
      88  B1RdtMxi              (N-m)                 HydroDyn
      89  B1RdtMyi              (N-m)                 HydroDyn
      90  B1RdtMzi              (N-m)                 HydroDyn
      91  FAIRTEN1              (N)                   MoorDyn
      92  FAIRTEN2              (N)                   MoorDyn
      93  FAIRTEN3              (N)                   MoorDyn
      94  ANCHTEN1              (N)                   MoorDyn
      95  ANCHTEN2              (N)                   MoorDyn
      96  ANCHTEN3              (N)                   MoorDyn
