
FAST Summary File

Predictions were generated on 06-Jul-2022 at 20:08:57 using OpenFAST, compiled as a 64-bit application using double precision at commit v3.1.0-243-ge6028eae
  compiled with
    NWTC Subroutine Library
    ElastoDyn
    BeamDyn (unknown version, unknown date) [not called]
    InflowWind
    AeroDyn14
    AeroDyn (unknown version, unknown date) [not called]
    ServoDyn
    HydroDyn (unknown version, unknown date) [not called]
    SubDyn (unknown version, unknown date) [not called]
    ExtPtfm_MCKF (unknown version, unknown date) [not called]
    MAP (unknown version, unknown date) [not called]
    FEAMooring (unknown version, unknown date) [not called]
    MoorDyn (unknown version, unknown date) [not called]
    OrcaFlexInterface (unknown version, unknown date) [not called]
    IceFloe (unknown version, unknown date) [not called]
    IceDyn (unknown version, unknown date) [not called]


Modeling a land-based turbine
Description from the FAST input file: 
  FAST Certification Test #17: SWRT 3-bladed upwind turbine with many DOFs, variable speed control, free yaw, tail-furl, FF turbulence

Interpolation order for input/output time histories: 2 (quadratic)
Number of correction iterations:  0


   Requested Time Steps  
  -------------------------------------------------
  Component          Time Step (s)    Subcycles (-)
  -----------------  ---------------  -------------
  FAST (glue code)    1.000E-03
  InflowWind          1.000E-03              1
  ElastoDyn           1.000E-03              1
  AeroDyn14           1.000E-03              1
  ServoDyn            1.000E-03              1
  FAST output files   8.000E-03              8^-1


   Requested Channels in FAST Output File(s)  
  --------------------------------------------
  Number  Name                  Units                 Generated by
  ------  --------------------  --------------------  ------------
       1  Time                  (s)                   OpenFAST
       2  Wind1VelX             (m/s)                 InflowWind
       3  Wind1VelY             (m/s)                 InflowWind
       4  Wind1VelZ             (m/s)                 InflowWind
       5  TwrClrnc1             (m)                   ElastoDyn
       6  TwrClrnc2             (m)                   ElastoDyn
       7  TwrClrnc3             (m)                   ElastoDyn
       8  LSSTipV               (rpm)                 ElastoDyn
       9  TailFurl              (deg)                 ElastoDyn
      10  TailFurlV             (deg/s)               ElastoDyn
      11  TailFurlA             (deg/s^2)             ElastoDyn
      12  NacYaw                (deg)                 ElastoDyn
      13  RootFzb3              (kN)                  ElastoDyn
      14  RootMEdg3             (kN-m)                ElastoDyn
      15  RootMFlp3             (kN-m)                ElastoDyn
      16  LSShftFxs             (kN)                  ElastoDyn
      17  LSShftMxs             (kN-m)                ElastoDyn
      18  TFrlBrM               (kN-m)                ElastoDyn
      19  YawBrFzn              (kN)                  ElastoDyn
