
Linearized model: Predictions were generated on 27-Feb-2025 at 19:40:41 using OpenFAST, compiled on Feb 27 2025 at 18:00:14 as a 64-bit application using double precision at commit HEAD-HASH-NOTFOUND
 linked with  NWTC Subroutine Library; ElastoDyn; BeamDyn; ServoDyn

Description from the FAST input file: FAST Certification Test #26: NREL 5.0 MW Baseline Wind Turbine (Onshore)

Simulation information:
   Simulation time:                     1.0005 s
   Rotor Speed:                         1.2670 rad/s
   Azimuth:                             1.2678 rad
   Wind Speed:                          0.0000 m/s
   Number of continuous states:       194
   Number of discrete states:           0
   Number of constraint states:         0
   Number of inputs:                    6
   Number of outputs:                  60
   Jacobians included in this file?    No

Order of continuous states:
   Row/Column Operating Point                                                   Rotating Frame? Derivative Order Description
   ---------- ---------------                                                   --------------- ---------------- -----------
          1   -1.852462031579E-002                                                     F               2         ED 1st tower fore-aft bending mode DOF (internal DOF index = DOF_TFA1), m
          2   -3.265300070042E-003                                                     F               2         ED 1st tower side-to-side bending mode DOF (internal DOF index = DOF_TSS1), m
          3   -3.239954508825E-005                                                     F               2         ED 2nd tower fore-aft bending mode DOF (internal DOF index = DOF_TFA2), m
          4    3.594221520337E-006                                                     F               2         ED 2nd tower side-to-side bending mode DOF (internal DOF index = DOF_TSS2), m
          5    2.181813135936E-005                                                     F               2         ED Nacelle yaw DOF (internal DOF index = DOF_Yaw), rad
          6    5.980173679356E+000                                                     F               2         ED Variable speed generator DOF (internal DOF index = DOF_GeAz), rad
          7   -1.751318635044E-006                                                     F               2         ED Drivetrain rotational-flexibility DOF (internal DOF index = DOF_DrTr), rad
          8   -2.349621267339E-002                                                     F               2         ED First time derivative of 1st tower fore-aft bending mode DOF (internal DOF index = DOF_TFA1), m/s
          9    4.825466393217E-003                                                     F               2         ED First time derivative of 1st tower side-to-side bending mode DOF (internal DOF index = DOF_TSS1), m/s
         10    7.272519024148E-004                                                     F               2         ED First time derivative of 2nd tower fore-aft bending mode DOF (internal DOF index = DOF_TFA2), m/s
         11    2.262842314056E-005                                                     F               2         ED First time derivative of 2nd tower side-to-side bending mode DOF (internal DOF index = DOF_TSS2), m/s
         12   -9.111666985757E-005                                                     F               2         ED First time derivative of Nacelle yaw DOF (internal DOF index = DOF_Yaw), rad/s
         13    1.267023471245E+000                                                     F               2         ED First time derivative of Variable speed generator DOF (internal DOF index = DOF_GeAz), rad/s
         14    9.491213806887E-006                                                     F               2         ED First time derivative of Drivetrain rotational-flexibility DOF (internal DOF index = DOF_DrTr), rad/s
         15    2.501630066348E-003                                                     T               2         BD_1 finite element node 2 (number of elements = 1; element order = 5) translational displacement in X, m
         16   -5.619894465589E-003                                                     T               2         BD_1 finite element node 2 (number of elements = 1; element order = 5) translational displacement in Y, m
         17    5.219376766533E-004                                                     T               2         BD_1 finite element node 2 (number of elements = 1; element order = 5) translational displacement in Z, m
         18    1.358999911699E-003                                                     T               2         BD_1 finite element node 2 (number of elements = 1; element order = 5) rotational displacement in X, rad
         18    7.264616435821E-004                                                     T               2         BD_1 finite element node 2 (number of elements = 1; element order = 5) rotational displacement in X, rad
         18   -8.009398732556E-006                                                     T               2         BD_1 finite element node 2 (number of elements = 1; element order = 5) rotational displacement in X, rad
         21    3.844277386165E-002                                                     T               2         BD_1 finite element node 3 (number of elements = 1; element order = 5) translational displacement in X, m
         22   -5.880681187535E-002                                                     T               2         BD_1 finite element node 3 (number of elements = 1; element order = 5) translational displacement in Y, m
         23    2.543080207397E-003                                                     T               2         BD_1 finite element node 3 (number of elements = 1; element order = 5) translational displacement in Z, m
         24    5.345064852877E-003                                                     T               2         BD_1 finite element node 3 (number of elements = 1; element order = 5) rotational displacement in X, rad
         24    4.339318735758E-003                                                     T               2         BD_1 finite element node 3 (number of elements = 1; element order = 5) rotational displacement in X, rad
         24   -9.108203433518E-005                                                     T               2         BD_1 finite element node 3 (number of elements = 1; element order = 5) rotational displacement in X, rad
         27    1.705938580676E-001                                                     T               2         BD_1 finite element node 4 (number of elements = 1; element order = 5) translational displacement in X, m
         28   -1.909065456154E-001                                                     T               2         BD_1 finite element node 4 (number of elements = 1; element order = 5) translational displacement in Y, m
         29    5.866343889420E-003                                                     T               2         BD_1 finite element node 4 (number of elements = 1; element order = 5) translational displacement in Z, m
         30    8.657560563421E-003                                                     T               2         BD_1 finite element node 4 (number of elements = 1; element order = 5) rotational displacement in X, rad
         30    1.060829415652E-002                                                     T               2         BD_1 finite element node 4 (number of elements = 1; element order = 5) rotational displacement in X, rad
         30   -2.499171405716E-004                                                     T               2         BD_1 finite element node 4 (number of elements = 1; element order = 5) rotational displacement in X, rad
         33    3.672350846924E-001                                                     T               2         BD_1 finite element node 5 (number of elements = 1; element order = 5) translational displacement in X, m
         34   -3.325604203762E-001                                                     T               2         BD_1 finite element node 5 (number of elements = 1; element order = 5) translational displacement in Y, m
         35    8.193793123924E-003                                                     T               2         BD_1 finite element node 5 (number of elements = 1; element order = 5) translational displacement in Z, m
         36    9.850782693691E-003                                                     T               2         BD_1 finite element node 5 (number of elements = 1; element order = 5) rotational displacement in X, rad
         36    1.549865950358E-002                                                     T               2         BD_1 finite element node 5 (number of elements = 1; element order = 5) rotational displacement in X, rad
         36   -2.985662592995E-004                                                     T               2         BD_1 finite element node 5 (number of elements = 1; element order = 5) rotational displacement in X, rad
         39    4.854265381970E-001                                                     T               2         BD_1 finite element node 6 (number of elements = 1; element order = 5) translational displacement in X, m
         40   -4.066398876240E-001                                                     T               2         BD_1 finite element node 6 (number of elements = 1; element order = 5) translational displacement in Y, m
         41    8.013191072729E-003                                                     T               2         BD_1 finite element node 6 (number of elements = 1; element order = 5) translational displacement in Z, m
         42    1.005601054492E-002                                                     T               2         BD_1 finite element node 6 (number of elements = 1; element order = 5) rotational displacement in X, rad
         42    1.657551407465E-002                                                     T               2         BD_1 finite element node 6 (number of elements = 1; element order = 5) rotational displacement in X, rad
         42   -2.821035517526E-004                                                     T               2         BD_1 finite element node 6 (number of elements = 1; element order = 5) rotational displacement in X, rad
         45   -2.276888619459E-002                                                     T               2         BD_1 First time derivative of finite element node 2 (number of elements = 1; element order = 5) translational displacement in X, m/s
         46   -1.104576404791E+001                                                     T               2         BD_1 First time derivative of finite element node 2 (number of elements = 1; element order = 5) translational displacement in Y, m/s
         47   -1.783123938898E-003                                                     T               2         BD_1 First time derivative of finite element node 2 (number of elements = 1; element order = 5) translational displacement in Z, m/s
         48    1.265300600546E+000                                                     T               2         BD_1 First time derivative of finite element node 2 (number of elements = 1; element order = 5) rotational displacement in X, rad/s
         49   -8.886930521951E-005                                                     T               2         BD_1 First time derivative of finite element node 2 (number of elements = 1; element order = 5) rotational displacement in Y, rad/s
         50   -5.549234293651E-002                                                     T               2         BD_1 First time derivative of finite element node 2 (number of elements = 1; element order = 5) rotational displacement in Z, rad/s
         51   -2.808034677913E-002                                                     T               2         BD_1 First time derivative of finite element node 3 (number of elements = 1; element order = 5) translational displacement in X, m/s
         52   -2.970114174282E+001                                                     T               2         BD_1 First time derivative of finite element node 3 (number of elements = 1; element order = 5) translational displacement in Y, m/s
         53   -6.843804996526E-002                                                     T               2         BD_1 First time derivative of finite element node 3 (number of elements = 1; element order = 5) translational displacement in Z, m/s
         54    1.262960319580E+000                                                     T               2         BD_1 First time derivative of finite element node 3 (number of elements = 1; element order = 5) rotational displacement in X, rad/s
         55    6.495365938317E-005                                                     T               2         BD_1 First time derivative of finite element node 3 (number of elements = 1; element order = 5) rotational displacement in Y, rad/s
         56   -5.552623219982E-002                                                     T               2         BD_1 First time derivative of finite element node 3 (number of elements = 1; element order = 5) rotational displacement in Z, rad/s
         57   -1.230146635511E-002                                                     T               2         BD_1 First time derivative of finite element node 4 (number of elements = 1; element order = 5) translational displacement in X, m/s
         58   -5.184102885591E+001                                                     T               2         BD_1 First time derivative of finite element node 4 (number of elements = 1; element order = 5) translational displacement in Y, m/s
         59   -2.344409761444E-001                                                     T               2         BD_1 First time derivative of finite element node 4 (number of elements = 1; element order = 5) translational displacement in Z, m/s
         60    1.260682674086E+000                                                     T               2         BD_1 First time derivative of finite element node 4 (number of elements = 1; element order = 5) rotational displacement in X, rad/s
         61    3.003674771353E-003                                                     T               2         BD_1 First time derivative of finite element node 4 (number of elements = 1; element order = 5) rotational displacement in Y, rad/s
         62   -5.573032689971E-002                                                     T               2         BD_1 First time derivative of finite element node 4 (number of elements = 1; element order = 5) rotational displacement in Z, rad/s
         63    5.329058740630E-002                                                     T               2         BD_1 First time derivative of finite element node 5 (number of elements = 1; element order = 5) translational displacement in X, m/s
         64   -7.044437106096E+001                                                     T               2         BD_1 First time derivative of finite element node 5 (number of elements = 1; element order = 5) translational displacement in Y, m/s
         65   -4.131252998955E-001                                                     T               2         BD_1 First time derivative of finite element node 5 (number of elements = 1; element order = 5) translational displacement in Z, m/s
         66    1.259818423077E+000                                                     T               2         BD_1 First time derivative of finite element node 5 (number of elements = 1; element order = 5) rotational displacement in X, rad/s
         67    6.491784442887E-003                                                     T               2         BD_1 First time derivative of finite element node 5 (number of elements = 1; element order = 5) rotational displacement in Y, rad/s
         68   -5.603632272955E-002                                                     T               2         BD_1 First time derivative of finite element node 5 (number of elements = 1; element order = 5) rotational displacement in Z, rad/s
         69    9.834879671477E-002                                                     T               2         BD_1 First time derivative of finite element node 6 (number of elements = 1; element order = 5) translational displacement in X, m/s
         70   -7.955068117957E+001                                                     T               2         BD_1 First time derivative of finite element node 6 (number of elements = 1; element order = 5) translational displacement in Y, m/s
         71   -5.071496164234E-001                                                     T               2         BD_1 First time derivative of finite element node 6 (number of elements = 1; element order = 5) translational displacement in Z, m/s
         72    1.259658624626E+000                                                     T               2         BD_1 First time derivative of finite element node 6 (number of elements = 1; element order = 5) rotational displacement in X, rad/s
         73    6.446635125740E-003                                                     T               2         BD_1 First time derivative of finite element node 6 (number of elements = 1; element order = 5) rotational displacement in Y, rad/s
         74   -5.610275252398E-002                                                     T               2         BD_1 First time derivative of finite element node 6 (number of elements = 1; element order = 5) rotational displacement in Z, rad/s
         75    2.312386755909E-003                                                     T               2         BD_2 finite element node 2 (number of elements = 1; element order = 5) translational displacement in X, m
         76    1.162212501331E-003                                                     T               2         BD_2 finite element node 2 (number of elements = 1; element order = 5) translational displacement in Y, m
         77    6.925702379549E-004                                                     T               2         BD_2 finite element node 2 (number of elements = 1; element order = 5) translational displacement in Z, m
         78   -2.579643343832E-004                                                     T               2         BD_2 finite element node 2 (number of elements = 1; element order = 5) rotational displacement in X, rad
         78    6.254570052154E-004                                                     T               2         BD_2 finite element node 2 (number of elements = 1; element order = 5) rotational displacement in X, rad
         78    7.730760705798E-006                                                     T               2         BD_2 finite element node 2 (number of elements = 1; element order = 5) rotational displacement in X, rad
         81    3.152179845492E-002                                                     T               2         BD_2 finite element node 3 (number of elements = 1; element order = 5) translational displacement in X, m
         82    9.979775552366E-003                                                     T               2         BD_2 finite element node 3 (number of elements = 1; element order = 5) translational displacement in Y, m
         83    3.371836557644E-003                                                     T               2         BD_2 finite element node 3 (number of elements = 1; element order = 5) translational displacement in Z, m
         84   -7.797626126391E-004                                                     T               2         BD_2 finite element node 3 (number of elements = 1; element order = 5) rotational displacement in X, rad
         84    3.427797195207E-003                                                     T               2         BD_2 finite element node 3 (number of elements = 1; element order = 5) rotational displacement in X, rad
         84    7.013681210218E-005                                                     T               2         BD_2 finite element node 3 (number of elements = 1; element order = 5) rotational displacement in X, rad
         87    1.363190809518E-001                                                     T               2         BD_2 finite element node 4 (number of elements = 1; element order = 5) translational displacement in X, m
         88    2.712082983854E-002                                                     T               2         BD_2 finite element node 4 (number of elements = 1; element order = 5) translational displacement in Y, m
         89    8.167102621119E-003                                                     T               2         BD_2 finite element node 4 (number of elements = 1; element order = 5) translational displacement in Z, m
         90   -9.593837635196E-004                                                     T               2         BD_2 finite element node 4 (number of elements = 1; element order = 5) rotational displacement in X, rad
         90    8.413153409375E-003                                                     T               2         BD_2 finite element node 4 (number of elements = 1; element order = 5) rotational displacement in X, rad
         90    1.581244355617E-004                                                     T               2         BD_2 finite element node 4 (number of elements = 1; element order = 5) rotational displacement in X, rad
         93    2.942653476485E-001                                                     T               2         BD_2 finite element node 5 (number of elements = 1; element order = 5) translational displacement in X, m
         94    4.219249015181E-002                                                     T               2         BD_2 finite element node 5 (number of elements = 1; element order = 5) translational displacement in Y, m
         95    1.228321337039E-002                                                     T               2         BD_2 finite element node 5 (number of elements = 1; element order = 5) translational displacement in Z, m
         96   -9.980758069459E-004                                                     T               2         BD_2 finite element node 5 (number of elements = 1; element order = 5) rotational displacement in X, rad
         96    1.254641582037E-002                                                     T               2         BD_2 finite element node 5 (number of elements = 1; element order = 5) rotational displacement in X, rad
         96    1.723846724144E-004                                                     T               2         BD_2 finite element node 5 (number of elements = 1; element order = 5) rotational displacement in X, rad
         99    3.904286514610E-001                                                     T               2         BD_2 finite element node 6 (number of elements = 1; element order = 5) translational displacement in X, m
        100    5.013322382966E-002                                                     T               2         BD_2 finite element node 6 (number of elements = 1; element order = 5) translational displacement in Y, m
        101    1.291893639282E-002                                                     T               2         BD_2 finite element node 6 (number of elements = 1; element order = 5) translational displacement in Z, m
        102   -1.052019039315E-003                                                     T               2         BD_2 finite element node 6 (number of elements = 1; element order = 5) rotational displacement in X, rad
        102    1.348703795533E-002                                                     T               2         BD_2 finite element node 6 (number of elements = 1; element order = 5) rotational displacement in X, rad
        102    1.865075490518E-004                                                     T               2         BD_2 finite element node 6 (number of elements = 1; element order = 5) rotational displacement in X, rad
        105   -2.392568775948E-002                                                     T               2         BD_2 First time derivative of finite element node 2 (number of elements = 1; element order = 5) translational displacement in X, m/s
        106   -1.103665041411E+001                                                     T               2         BD_2 First time derivative of finite element node 2 (number of elements = 1; element order = 5) translational displacement in Y, m/s
        107    2.287445061437E-003                                                     T               2         BD_2 First time derivative of finite element node 2 (number of elements = 1; element order = 5) translational displacement in Z, m/s
        108    1.264928445320E+000                                                     T               2         BD_2 First time derivative of finite element node 2 (number of elements = 1; element order = 5) rotational displacement in X, rad/s
        109   -2.020850874047E-004                                                     T               2         BD_2 First time derivative of finite element node 2 (number of elements = 1; element order = 5) rotational displacement in Y, rad/s
        110   -5.512590763773E-002                                                     T               2         BD_2 First time derivative of finite element node 2 (number of elements = 1; element order = 5) rotational displacement in Z, rad/s
        111   -2.708544469364E-002                                                     T               2         BD_2 First time derivative of finite element node 3 (number of elements = 1; element order = 5) translational displacement in X, m/s
        112   -2.968159345118E+001                                                     T               2         BD_2 First time derivative of finite element node 3 (number of elements = 1; element order = 5) translational displacement in Y, m/s
        113    1.326313869793E-002                                                     T               2         BD_2 First time derivative of finite element node 3 (number of elements = 1; element order = 5) translational displacement in Z, m/s
        114    1.262091285831E+000                                                     T               2         BD_2 First time derivative of finite element node 3 (number of elements = 1; element order = 5) rotational displacement in X, rad/s
        115   -4.830887089834E-004                                                     T               2         BD_2 First time derivative of finite element node 3 (number of elements = 1; element order = 5) rotational displacement in Y, rad/s
        116   -5.486081129131E-002                                                     T               2         BD_2 First time derivative of finite element node 3 (number of elements = 1; element order = 5) rotational displacement in Z, rad/s
        117   -5.619236240251E-002                                                     T               2         BD_2 First time derivative of finite element node 4 (number of elements = 1; element order = 5) translational displacement in X, m/s
        118   -5.180187432721E+001                                                     T               2         BD_2 First time derivative of finite element node 4 (number of elements = 1; element order = 5) translational displacement in Y, m/s
        119    3.481207339477E-002                                                     T               2         BD_2 First time derivative of finite element node 4 (number of elements = 1; element order = 5) translational displacement in Z, m/s
        120    1.259209649253E+000                                                     T               2         BD_2 First time derivative of finite element node 4 (number of elements = 1; element order = 5) rotational displacement in X, rad/s
        121   -3.842886482329E-003                                                     T               2         BD_2 First time derivative of finite element node 4 (number of elements = 1; element order = 5) rotational displacement in Y, rad/s
        122   -5.402378103053E-002                                                     T               2         BD_2 First time derivative of finite element node 4 (number of elements = 1; element order = 5) rotational displacement in Z, rad/s
        123   -1.654789169217E-001                                                     T               2         BD_2 First time derivative of finite element node 5 (number of elements = 1; element order = 5) translational displacement in X, m/s
        124   -7.037600994211E+001                                                     T               2         BD_2 First time derivative of finite element node 5 (number of elements = 1; element order = 5) translational displacement in Y, m/s
        125    5.474254160809E-002                                                     T               2         BD_2 First time derivative of finite element node 5 (number of elements = 1; element order = 5) translational displacement in Z, m/s
        126    1.257422653455E+000                                                     T               2         BD_2 First time derivative of finite element node 5 (number of elements = 1; element order = 5) rotational displacement in X, rad/s