
Linearized model: Predictions were generated on 16-Apr-2024 at 21:15:18 using OpenFAST, compiled on Apr 16 2024 at 20:58:54 as a 64-bit application using double precision at commit -128-NOTFOUND
 linked with  NWTC Subroutine Library; ElastoDyn; BeamDyn; ServoDyn

Description from the FAST input file: FAST Certification Test #26: NREL 5.0 MW Baseline Wind Turbine (Onshore)

Simulation information:
   Simulation time:                     1.0005 s
   Rotor Speed:                         1.2670 rad/s
   Azimuth:                             1.2678 rad
   Wind Speed:                          0.0000 m/s
   Number of continuous states:       194
   Number of discrete states:           0
   Number of constraint states:         0
   Number of inputs:                    6
   Number of outputs:                  60
   Jacobians included in this file?    No

Order of continuous states:
   Row/Column Operating Point                                                   Rotating Frame? Derivative Order Description
   ---------- ---------------                                                   --------------- ---------------- -----------
          1   -1.854042528043E-002                                                     F               2         ED 1st tower fore-aft bending mode DOF (internal DOF index = DOF_TFA1), m
          2   -3.244508785858E-003                                                     F               2         ED 1st tower side-to-side bending mode DOF (internal DOF index = DOF_TSS1), m
          3   -3.132961278769E-005                                                     F               2         ED 2nd tower fore-aft bending mode DOF (internal DOF index = DOF_TFA2), m
          4    3.569523759870E-006                                                     F               2         ED 2nd tower side-to-side bending mode DOF (internal DOF index = DOF_TSS2), m
          5    2.169621432799E-005                                                     F               2         ED Nacelle yaw DOF (internal DOF index = DOF_Yaw), rad
          6    5.980173281464E+000                                                     F               2         ED Variable speed generator DOF (internal DOF index = DOF_GeAz), rad
          7   -1.703626503199E-006                                                     F               2         ED Drivetrain rotational-flexibility DOF (internal DOF index = DOF_DrTr), rad
          8   -2.347025564651E-002                                                     F               2         ED First time derivative of 1st tower fore-aft bending mode DOF (internal DOF index = DOF_TFA1), m/s
          9    4.889178868595E-003                                                     F               2         ED First time derivative of 1st tower side-to-side bending mode DOF (internal DOF index = DOF_TSS1), m/s
         10    6.972852644609E-004                                                     F               2         ED First time derivative of 2nd tower fore-aft bending mode DOF (internal DOF index = DOF_TFA2), m/s
         11    2.097245561607E-005                                                     F               2         ED First time derivative of 2nd tower side-to-side bending mode DOF (internal DOF index = DOF_TSS2), m/s
         12   -9.079407370525E-005                                                     F               2         ED First time derivative of Nacelle yaw DOF (internal DOF index = DOF_Yaw), rad/s
         13    1.267021533506E+000                                                     F               2         ED First time derivative of Variable speed generator DOF (internal DOF index = DOF_GeAz), rad/s
         14    1.106557461070E-005                                                     F               2         ED First time derivative of Drivetrain rotational-flexibility DOF (internal DOF index = DOF_DrTr), rad/s
         15   -2.846720311512E-001                                                     T               2         BD_1 finite element node 2 (number of elements = 1; element order = 5) translational displacement in X, m
         16   -8.317973582339E+000                                                     T               2         BD_1 finite element node 2 (number of elements = 1; element order = 5) translational displacement in Y, m
         17   -6.117053194729E+000                                                     T               2         BD_1 finite element node 2 (number of elements = 1; element order = 5) translational displacement in Z, m
         18    1.312227145265E+000                                                     T               2         BD_1 finite element node 2 (number of elements = 1; element order = 5) rotational displacement in X, rad
         19    2.943120448648E-004                                                     T               2         BD_1 finite element node 2 (number of elements = 1; element order = 5) rotational displacement in Y, rad
         20   -5.651241341790E-002                                                     T               2         BD_1 finite element node 2 (number of elements = 1; element order = 5) rotational displacement in Z, rad
         21   -7.035357360550E-001                                                     T               2         BD_1 finite element node 3 (number of elements = 1; element order = 5) translational displacement in X, m
         22   -2.240597201512E+001                                                     T               2         BD_1 finite element node 3 (number of elements = 1; element order = 5) translational displacement in Y, m
         23   -1.649964331723E+001                                                     T               2         BD_1 finite element node 3 (number of elements = 1; element order = 5) translational displacement in Z, m
         24    1.316744514151E+000                                                     T               2         BD_1 finite element node 3 (number of elements = 1; element order = 5) rotational displacement in X, rad
         25    3.461669234847E-003                                                     T               2         BD_1 finite element node 3 (number of elements = 1; element order = 5) rotational displacement in Y, rad
         26   -5.425400041737E-002                                                     T               2         BD_1 finite element node 3 (number of elements = 1; element order = 5) rotational displacement in Z, rad
         27   -1.115094230183E+000                                                     T               2         BD_1 finite element node 4 (number of elements = 1; element order = 5) translational displacement in X, m
         28   -3.918036220729E+001                                                     T               2         BD_1 finite element node 4 (number of elements = 1; element order = 5) translational displacement in Y, m
         29   -2.891161054265E+001                                                     T               2         BD_1 finite element node 4 (number of elements = 1; element order = 5) translational displacement in Z, m
         30    1.320588610670E+000                                                     T               2         BD_1 finite element node 4 (number of elements = 1; element order = 5) rotational displacement in X, rad
         31    9.077604145146E-003                                                     T               2         BD_1 finite element node 4 (number of elements = 1; element order = 5) rotational displacement in Y, rad
         32   -5.031052405853E-002                                                     T               2         BD_1 finite element node 4 (number of elements = 1; element order = 5) rotational displacement in Z, rad
         33   -1.377102464889E+000                                                     T               2         BD_1 finite element node 5 (number of elements = 1; element order = 5) translational displacement in X, m
         34   -5.330175090600E+001                                                     T               2         BD_1 finite element node 5 (number of elements = 1; element order = 5) translational displacement in Y, m
         35   -3.938333784256E+001                                                     T               2         BD_1 finite element node 5 (number of elements = 1; element order = 5) translational displacement in Z, m
         36    1.322040891948E+000                                                     T               2         BD_1 finite element node 5 (number of elements = 1; element order = 5) rotational displacement in X, rad
         37    1.345151869615E-002                                                     T               2         BD_1 finite element node 5 (number of elements = 1; element order = 5) rotational displacement in Y, rad
         38   -4.715255549179E-002                                                     T               2         BD_1 finite element node 5 (number of elements = 1; element order = 5) rotational displacement in Z, rad
         39   -1.483661810077E+000                                                     T               2         BD_1 finite element node 6 (number of elements = 1; element order = 5) translational displacement in X, m
         40   -6.021732022324E+001                                                     T               2         BD_1 finite element node 6 (number of elements = 1; element order = 5) translational displacement in Y, m
         41   -4.451635662257E+001                                                     T               2         BD_1 finite element node 6 (number of elements = 1; element order = 5) translational displacement in Z, m
         42    1.322295883289E+000                                                     T               2         BD_1 finite element node 6 (number of elements = 1; element order = 5) rotational displacement in X, rad
         43    1.439790458531E-002                                                     T               2         BD_1 finite element node 6 (number of elements = 1; element order = 5) rotational displacement in Y, rad
         44   -4.643262828440E-002                                                     T               2         BD_1 finite element node 6 (number of elements = 1; element order = 5) rotational displacement in Z, rad
         45   -4.786969731299E-001                                                     T               2         BD_1 First time derivative of finite element node 2 (number of elements = 1; element order = 5) translational displacement in X, m/s
         46   -3.294143880447E+000                                                     T               2         BD_1 First time derivative of finite element node 2 (number of elements = 1; element order = 5) translational displacement in Y, m/s
         47   -1.053244261324E+001                                                     T               2         BD_1 First time derivative of finite element node 2 (number of elements = 1; element order = 5) translational displacement in Z, m/s
         48    1.265325783408E+000                                                     T               2         BD_1 First time derivative of finite element node 2 (number of elements = 1; element order = 5) rotational displacement in X, rad/s
         49    2.047985561835E-004                                                     T               2         BD_1 First time derivative of finite element node 2 (number of elements = 1; element order = 5) rotational displacement in Y, rad/s
         50   -5.493243835875E-002                                                     T               2         BD_1 First time derivative of finite element node 2 (number of elements = 1; element order = 5) rotational displacement in Z, rad/s
         51   -1.251941733012E+000                                                     T               2         BD_1 First time derivative of finite element node 3 (number of elements = 1; element order = 5) translational displacement in X, m/s
         52   -8.798284505883E+000                                                     T               2         BD_1 First time derivative of finite element node 3 (number of elements = 1; element order = 5) translational displacement in Y, m/s
         53   -2.834075150631E+001                                                     T               2         BD_1 First time derivative of finite element node 3 (number of elements = 1; element order = 5) translational displacement in Z, m/s
         54    1.262996718460E+000                                                     T               2         BD_1 First time derivative of finite element node 3 (number of elements = 1; element order = 5) rotational displacement in X, rad/s
         55    3.793686349007E-004                                                     T               2         BD_1 First time derivative of finite element node 3 (number of elements = 1; element order = 5) rotational displacement in Y, rad/s
         56   -5.471522531057E-002                                                     T               2         BD_1 First time derivative of finite element node 3 (number of elements = 1; element order = 5) rotational displacement in Z, rad/s
         57   -2.144690477621E+000                                                     T               2         BD_1 First time derivative of finite element node 4 (number of elements = 1; element order = 5) translational displacement in X, m/s
         58   -1.524853369838E+001                                                     T               2         BD_1 First time derivative of finite element node 4 (number of elements = 1; element order = 5) translational displacement in Y, m/s
         59   -4.950196914560E+001                                                     T               2         BD_1 First time derivative of finite element node 4 (number of elements = 1; element order = 5) translational displacement in Z, m/s
         60    1.260836899622E+000                                                     T               2         BD_1 First time derivative of finite element node 4 (number of elements = 1; element order = 5) rotational displacement in X, rad/s
         61    1.539754511144E-003                                                     T               2         BD_1 First time derivative of finite element node 4 (number of elements = 1; element order = 5) rotational displacement in Y, rad/s
         62   -5.189117716047E-002                                                     T               2         BD_1 First time derivative of finite element node 4 (number of elements = 1; element order = 5) rotational displacement in Z, rad/s
         63   -2.841250863254E+000                                                     T               2         BD_1 First time derivative of finite element node 5 (number of elements = 1; element order = 5) translational displacement in X, m/s
         64   -2.063314422643E+001                                                     T               2         BD_1 First time derivative of finite element node 5 (number of elements = 1; element order = 5) translational displacement in Y, m/s
         65   -6.729603420843E+001                                                     T               2         BD_1 First time derivative of finite element node 5 (number of elements = 1; element order = 5) translational displacement in Z, m/s
         66    1.260109754099E+000                                                     T               2         BD_1 First time derivative of finite element node 5 (number of elements = 1; element order = 5) rotational displacement in X, rad/s
         67    2.901690907601E-003                                                     T               2         BD_1 First time derivative of finite element node 5 (number of elements = 1; element order = 5) rotational displacement in Y, rad/s
         68   -4.862505500157E-002                                                     T               2         BD_1 First time derivative of finite element node 5 (number of elements = 1; element order = 5) rotational displacement in Z, rad/s
         69   -3.169075543263E+000                                                     T               2         BD_1 First time derivative of finite element node 6 (number of elements = 1; element order = 5) translational displacement in X, m/s
         70   -2.326315583052E+001                                                     T               2         BD_1 First time derivative of finite element node 6 (number of elements = 1; element order = 5) translational displacement in Y, m/s
         71   -7.600846614358E+001                                                     T               2         BD_1 First time derivative of finite element node 6 (number of elements = 1; element order = 5) translational displacement in Z, m/s
         72    1.259946870107E+000                                                     T               2         BD_1 First time derivative of finite element node 6 (number of elements = 1; element order = 5) rotational displacement in X, rad/s
         73    2.957048252398E-003                                                     T               2         BD_1 First time derivative of finite element node 6 (number of elements = 1; element order = 5) rotational displacement in Y, rad/s
         74   -4.868320546171E-002                                                     T               2         BD_1 First time derivative of finite element node 6 (number of elements = 1; element order = 5) rotational displacement in Z, rad/s
         75   -2.805169410049E-001                                                     T               2         BD_2 finite element node 2 (number of elements = 1; element order = 5) translational displacement in X, m
         76   -8.324216774518E+000                                                     T               2         BD_2 finite element node 2 (number of elements = 1; element order = 5) translational displacement in Y, m
         77   -6.108018219077E+000                                                     T               2         BD_2 finite element node 2 (number of elements = 1; element order = 5) translational displacement in Z, m
         78    1.310429495172E+000                                                     T               2         BD_2 finite element node 2 (number of elements = 1; element order = 5) rotational displacement in X, rad
         79    9.437577854731E-004                                                     T               2         BD_2 finite element node 2 (number of elements = 1; element order = 5) rotational displacement in Y, rad
         80   -5.665806954551E-002                                                     T               2         BD_2 finite element node 2 (number of elements = 1; element order = 5) rotational displacement in Z, rad
         81   -6.968360674021E-001                                                     T               2         BD_2 finite element node 3 (number of elements = 1; element order = 5) translational displacement in X, m
         82   -2.239424314329E+001                                                     T               2         BD_2 finite element node 3 (number of elements = 1; element order = 5) translational displacement in Y, m
         83   -1.643103995236E+001                                                     T               2         BD_2 finite element node 3 (number of elements = 1; element order = 5) translational displacement in Z, m
         84    1.309930829824E+000                                                     T               2         BD_2 finite element node 3 (number of elements = 1; element order = 5) rotational displacement in X, rad
         85    3.419330158699E-003                                                     T               2         BD_2 finite element node 3 (number of elements = 1; element order = 5) rotational displacement in Y, rad
         86   -5.475999480406E-002                                                     T               2         BD_2 finite element node 3 (number of elements = 1; element order = 5) rotational displacement in Z, rad
         87   -1.121573691361E+000                                                     T               2         BD_2 finite element node 4 (number of elements = 1; element order = 5) translational displacement in X, m
         88   -3.912455549032E+001                                                     T               2         BD_2 finite element node 4 (number of elements = 1; element order = 5) translational displacement in Y, m
         89   -2.869941518499E+001                                                     T               2         BD_2 finite element node 4 (number of elements = 1; element order = 5) translational displacement in Z, m
         90    1.309867596897E+000                                                     T               2         BD_2 finite element node 4 (number of elements = 1; element order = 5) rotational displacement in X, rad
         91    7.814211441232E-003                                                     T               2         BD_2 finite element node 4 (number of elements = 1; element order = 5) rotational displacement in Y, rad
         92   -5.141256342830E-002                                                     T               2         BD_2 finite element node 4 (number of elements = 1; element order = 5) rotational displacement in Z, rad
         93   -1.409147355235E+000                                                     T               2         BD_2 finite element node 5 (number of elements = 1; element order = 5) translational displacement in X, m
         94   -5.319939702434E+001                                                     T               2         BD_2 finite element node 5 (number of elements = 1; element order = 5) translational displacement in Y, m
         95   -3.901998301955E+001                                                     T               2         BD_2 finite element node 5 (number of elements = 1; element order = 5) translational displacement in Z, m
         96    1.309933403196E+000                                                     T               2         BD_2 finite element node 5 (number of elements = 1; element order = 5) rotational displacement in X, rad
         97    1.148703174360E-002                                                     T               2         BD_2 finite element node 5 (number of elements = 1; element order = 5) rotational displacement in Y, rad
         98   -4.869485229472E-002                                                     T               2         BD_2 finite element node 5 (number of elements = 1; element order = 5) rotational displacement in Z, rad
         99   -1.531150135282E+000                                                     T               2         BD_2 finite element node 6 (number of elements = 1; element order = 5) translational displacement in X, m
        100   -6.009040351727E+001                                                     T               2         BD_2 finite element node 6 (number of elements = 1; element order = 5) translational displacement in Y, m
        101   -4.407387605872E+001                                                     T               2         BD_2 finite element node 6 (number of elements = 1; element order = 5) translational displacement in Z, m
        102    1.309897860549E+000                                                     T               2         BD_2 finite element node 6 (number of elements = 1; element order = 5) rotational displacement in X, rad
        103    1.231259374555E-002                                                     T               2         BD_2 finite element node 6 (number of elements = 1; element order = 5) rotational displacement in Y, rad
        104   -4.806945890449E-002                                                     T               2         BD_2 finite element node 6 (number of elements = 1; element order = 5) rotational displacement in Z, rad
        105   -4.843535040415E-001                                                     T               2         BD_2 First time derivative of finite element node 2 (number of elements = 1; element order = 5) translational displacement in X, m/s
        106   -3.295290795210E+000                                                     T               2         BD_2 First time derivative of finite element node 2 (number of elements = 1; element order = 5) translational displacement in Y, m/s
        107   -1.052200703681E+001                                                     T               2         BD_2 First time derivative of finite element node 2 (number of elements = 1; element order = 5) translational displacement in Z, m/s
        108    1.264906725512E+000                                                     T               2         BD_2 First time derivative of finite element node 2 (number of elements = 1; element order = 5) rotational displacement in X, rad/s
        109    2.493628407061E-004                                                     T               2         BD_2 First time derivative of finite element node 2 (number of elements = 1; element order = 5) rotational displacement in Y, rad/s
        110   -5.562773894840E-002                                                     T               2         BD_2 First time derivative of finite element node 2 (number of elements = 1; element order = 5) rotational displacement in Z, rad/s
        111   -1.265920459892E+000                                                     T               2         BD_2 First time derivative of finite element node 3 (number of elements = 1; element order = 5) translational displacement in X, m/s
        112   -8.870399386702E+000                                                     T               2         BD_2 First time derivative of finite element node 3 (number of elements = 1; element order = 5) translational displacement in Y, m/s
        113   -2.829674079702E+001                                                     T               2         BD_2 First time derivative of finite element node 3 (number of elements = 1; element order = 5) translational displacement in Z, m/s
        114    1.262050377359E+000                                                     T               2         BD_2 First time derivative of finite element node 3 (number of elements = 1; element order = 5) rotational displacement in X, rad/s
        115    1.828146800198E-005                                                     T               2         BD_2 First time derivative of finite element node 3 (number of elements = 1; element order = 5) rotational displacement in Y, rad/s
        116   -5.576779279767E-002                                                     T               2         BD_2 First time derivative of finite element node 3 (number of elements = 1; element order = 5) rotational displacement in Z, rad/s
        117   -2.219242865478E+000                                                     T               2         BD_2 First time derivative of finite element node 4 (number of elements = 1; element order = 5) translational displacement in X, m/s
        118   -1.549174974654E+001                                                     T               2         BD_2 First time derivative of finite element node 4 (number of elements = 1; element order = 5) translational displacement in Y, m/s
        119   -4.938124355771E+001                                                     T               2         BD_2 First time derivative of finite element node 4 (number of elements = 1; element order = 5) translational displacement in Z, m/s
        120    1.259010727989E+000                                                     T               2         BD_2 First time derivative of finite element node 4 (number of elements = 1; element order = 5) rotational displacement in X, rad/s
        121   -1.662164591958E-003                                                     T               2         BD_2 First time derivative of finite element node 4 (number of elements = 1; element order = 5) rotational displacement in Y, rad/s
        122   -5.862228235136E-002                                                     T               2         BD_2 First time derivative of finite element node 4 (number of elements = 1; element order = 5) rotational displacement in Z, rad/s
        123   -3.103283225827E+000                                                     T               2         BD_2 First time derivative of finite element node 5 (number of elements = 1; element order = 5) translational displacement in X, m/s
        124   -2.104997018305E+001                                                     T               2         BD_2 First time derivative of finite element node 5 (number of elements = 1; element order = 5) translational displacement in Y, m/s
        125   -6.708265847792E+001                                                     T               2         BD_2 First time derivative of finite element node 5 (number of elements = 1; element order = 5) translational displacement in Z, m/s
        126    1.256891450384E+000                                                     T               2         BD_2 First time derivative of finite element node 5 (number of elements = 1; element order = 5) rotational displacement in X, rad/s