
Linearized model: Predictions were generated on 16-Aug-2018 at 12:59:39 using OpenFAST, compiled as a 64-bit application using double precision at commit v1.0.0-189-gd9ea8ab4
 linked with  NWTC Subroutine Library; ElastoDyn; BeamDyn; ServoDyn

Description from the FAST input file: FAST Certification Test #26: NREL 5.0 MW Baseline Wind Turbine (Onshore)

Simulation information:
   Simulation time:                     0.0000 s
   Rotor Speed:                         1.2671 rad/s
   Azimuth:                             0.0000 rad
   Wind Speed:                          0.0000 m/s
   Number of continuous states:        60
   Number of discrete states:           0
   Number of constraint states:         0
   Number of inputs:                    0
   Number of outputs:                  12
   Jacobians included in this file?    No

Order of continuous states:
   Row/Column Operating Point                     Rotating Frame? Description
   ---------- ---------------                     --------------- -----------
          1    2.153E-03                                 T        finite element node 2 (number of elements = 1; element order = 5) translational displacement in X, m
          2    5.218E-03                                 T        finite element node 2 (number of elements = 1; element order = 5) translational displacement in Y, m
          3    6.310E-04                                 T        finite element node 2 (number of elements = 1; element order = 5) translational displacement in Z, m
          4   -1.236E-03                                 T        finite element node 2 (number of elements = 1; element order = 5) rotational displacement in X, rad
          5    5.544E-04                                 T        finite element node 2 (number of elements = 1; element order = 5) rotational displacement in Y, rad
          6    1.176E-05                                 T        finite element node 2 (number of elements = 1; element order = 5) rotational displacement in Z, rad
          7    2.687E-02                                 T        finite element node 3 (number of elements = 1; element order = 5) translational displacement in X, m
          8    5.183E-02                                 T        finite element node 3 (number of elements = 1; element order = 5) translational displacement in Y, m
          9    3.053E-03                                 T        finite element node 3 (number of elements = 1; element order = 5) translational displacement in Z, m
         10   -4.545E-03                                 T        finite element node 3 (number of elements = 1; element order = 5) rotational displacement in X, rad
         11    2.846E-03                                 T        finite element node 3 (number of elements = 1; element order = 5) rotational displacement in Y, rad
         12    1.234E-04                                 T        finite element node 3 (number of elements = 1; element order = 5) rotational displacement in Z, rad
         13    1.157E-01                                 T        finite element node 4 (number of elements = 1; element order = 5) translational displacement in X, m
         14    1.617E-01                                 T        finite element node 4 (number of elements = 1; element order = 5) translational displacement in Y, m
         15    7.342E-03                                 T        finite element node 4 (number of elements = 1; element order = 5) translational displacement in Z, m
         16   -6.982E-03                                 T        finite element node 4 (number of elements = 1; element order = 5) rotational displacement in X, rad
         17    7.256E-03                                 T        finite element node 4 (number of elements = 1; element order = 5) rotational displacement in Y, rad
         18    3.277E-04                                 T        finite element node 4 (number of elements = 1; element order = 5) rotational displacement in Z, rad
         19    2.565E-01                                 T        finite element node 5 (number of elements = 1; element order = 5) translational displacement in X, m
         20    2.757E-01                                 T        finite element node 5 (number of elements = 1; element order = 5) translational displacement in Y, m
         21    1.098E-02                                 T        finite element node 5 (number of elements = 1; element order = 5) translational displacement in Z, m
         22   -7.860E-03                                 T        finite element node 5 (number of elements = 1; element order = 5) rotational displacement in X, rad
         23    1.150E-02                                 T        finite element node 5 (number of elements = 1; element order = 5) rotational displacement in Y, rad
         24    3.966E-04                                 T        finite element node 5 (number of elements = 1; element order = 5) rotational displacement in Z, rad
         25    3.464E-01                                 T        finite element node 6 (number of elements = 1; element order = 5) translational displacement in X, m
         26    3.356E-01                                 T        finite element node 6 (number of elements = 1; element order = 5) translational displacement in Y, m
         27    1.143E-02                                 T        finite element node 6 (number of elements = 1; element order = 5) translational displacement in Z, m
         28   -8.080E-03                                 T        finite element node 6 (number of elements = 1; element order = 5) rotational displacement in X, rad
         29    1.274E-02                                 T        finite element node 6 (number of elements = 1; element order = 5) rotational displacement in Y, rad
         30    3.914E-04                                 T        finite element node 6 (number of elements = 1; element order = 5) rotational displacement in Z, rad
         31    2.884E-04                                 T        First time derivative of finite element node 2 (number of elements = 1; element order = 5) translational displacement in X, m/s
         32   -1.105E+01                                 T        First time derivative of finite element node 2 (number of elements = 1; element order = 5) translational displacement in Y, m/s
         33    6.605E-03                                 T        First time derivative of finite element node 2 (number of elements = 1; element order = 5) translational displacement in Z, m/s
         34    1.266E+00                                 T        First time derivative of finite element node 2 (number of elements = 1; element order = 5) rotational displacement in X, rad/s
         35   -8.237E-18                                 T        First time derivative of finite element node 2 (number of elements = 1; element order = 5) rotational displacement in Y, rad/s
         36   -5.527E-02                                 T        First time derivative of finite element node 2 (number of elements = 1; element order = 5) rotational displacement in Z, rad/s
         37    2.864E-03                                 T        First time derivative of finite element node 3 (number of elements = 1; element order = 5) translational displacement in X, m/s
         38   -2.973E+01                                 T        First time derivative of finite element node 3 (number of elements = 1; element order = 5) translational displacement in Y, m/s
         39    6.561E-02                                 T        First time derivative of finite element node 3 (number of elements = 1; element order = 5) translational displacement in Z, m/s
         40    1.266E+00                                 T        First time derivative of finite element node 3 (number of elements = 1; element order = 5) rotational displacement in X, rad/s
         41   -8.237E-18                                 T        First time derivative of finite element node 3 (number of elements = 1; element order = 5) rotational displacement in Y, rad/s
         42   -5.527E-02                                 T        First time derivative of finite element node 3 (number of elements = 1; element order = 5) rotational displacement in Z, rad/s
         43    8.935E-03                                 T        First time derivative of finite element node 4 (number of elements = 1; element order = 5) translational displacement in X, m/s
         44   -5.194E+01                                 T        First time derivative of finite element node 4 (number of elements = 1; element order = 5) translational displacement in Y, m/s
         45    2.046E-01                                 T        First time derivative of finite element node 4 (number of elements = 1; element order = 5) translational displacement in Z, m/s
         46    1.266E+00                                 T        First time derivative of finite element node 4 (number of elements = 1; element order = 5) rotational displacement in X, rad/s
         47   -8.237E-18                                 T        First time derivative of finite element node 4 (number of elements = 1; element order = 5) rotational displacement in Y, rad/s
         48   -5.527E-02                                 T        First time derivative of finite element node 4 (number of elements = 1; element order = 5) rotational displacement in Z, rad/s
         49    1.524E-02                                 T        First time derivative of finite element node 5 (number of elements = 1; element order = 5) translational displacement in X, m/s
         50   -7.063E+01                                 T        First time derivative of finite element node 5 (number of elements = 1; element order = 5) translational displacement in Y, m/s
         51    3.490E-01                                 T        First time derivative of finite element node 5 (number of elements = 1; element order = 5) translational displacement in Z, m/s
         52    1.266E+00                                 T        First time derivative of finite element node 5 (number of elements = 1; element order = 5) rotational displacement in X, rad/s
         53   -8.237E-18                                 T        First time derivative of finite element node 5 (number of elements = 1; element order = 5) rotational displacement in Y, rad/s
         54   -5.527E-02                                 T        First time derivative of finite element node 5 (number of elements = 1; element order = 5) rotational displacement in Z, rad/s
         55    1.855E-02                                 T        First time derivative of finite element node 6 (number of elements = 1; element order = 5) translational displacement in X, m/s
         56   -7.979E+01                                 T        First time derivative of finite element node 6 (number of elements = 1; element order = 5) translational displacement in Y, m/s
         57    4.249E-01                                 T        First time derivative of finite element node 6 (number of elements = 1; element order = 5) translational displacement in Z, m/s
         58    1.266E+00                                 T        First time derivative of finite element node 6 (number of elements = 1; element order = 5) rotational displacement in X, rad/s
         59   -8.237E-18                                 T        First time derivative of finite element node 6 (number of elements = 1; element order = 5) rotational displacement in Y, rad/s
         60   -5.527E-02                                 T        First time derivative of finite element node 6 (number of elements = 1; element order = 5) rotational displacement in Z, rad/s

Order of continuous state derivatives:
   Row/Column Operating Point                     Rotating Frame? Description
   ---------- ---------------                     --------------- -----------
          1    2.884E-04                                 T        First time derivative of finite element node 2 (number of elements = 1; element order = 5) translational displacement in X, m/s
          2   -1.105E+01                                 T        First time derivative of finite element node 2 (number of elements = 1; element order = 5) translational displacement in Y, m/s
          3    6.605E-03                                 T        First time derivative of finite element node 2 (number of elements = 1; element order = 5) translational displacement in Z, m/s
          4    1.266E+00                                 T        First time derivative of finite element node 2 (number of elements = 1; element order = 5) rotational displacement in X, rad/s
          5   -8.237E-18                                 T        First time derivative of finite element node 2 (number of elements = 1; element order = 5) rotational displacement in Y, rad/s
          6   -5.527E-02                                 T        First time derivative of finite element node 2 (number of elements = 1; element order = 5) rotational displacement in Z, rad/s
          7    2.864E-03                                 T        First time derivative of finite element node 3 (number of elements = 1; element order = 5) translational displacement in X, m/s
          8   -2.973E+01                                 T        First time derivative of finite element node 3 (number of elements = 1; element order = 5) translational displacement in Y, m/s
          9    6.561E-02                                 T        First time derivative of finite element node 3 (number of elements = 1; element order = 5) translational displacement in Z, m/s
         10    1.266E+00                                 T        First time derivative of finite element node 3 (number of elements = 1; element order = 5) rotational displacement in X, rad/s
         11   -8.237E-18                                 T        First time derivative of finite element node 3 (number of elements = 1; element order = 5) rotational displacement in Y, rad/s
         12   -5.527E-02                                 T        First time derivative of finite element node 3 (number of elements = 1; element order = 5) rotational displacement in Z, rad/s
         13    8.935E-03                                 T        First time derivative of finite element node 4 (number of elements = 1; element order = 5) translational displacement in X, m/s
         14   -5.194E+01                                 T        First time derivative of finite element node 4 (number of elements = 1; element order = 5) translational displacement in Y, m/s
         15    2.046E-01                                 T        First time derivative of finite element node 4 (number of elements = 1; element order = 5) translational displacement in Z, m/s
         16    1.266E+00                                 T        First time derivative of finite element node 4 (number of elements = 1; element order = 5) rotational displacement in X, rad/s
         17   -8.237E-18                                 T        First time derivative of finite element node 4 (number of elements = 1; element order = 5) rotational displacement in Y, rad/s
         18   -5.527E-02                                 T        First time derivative of finite element node 4 (number of elements = 1; element order = 5) rotational displacement in Z, rad/s
         19    1.524E-02                                 T        First time derivative of finite element node 5 (number of elements = 1; element order = 5) translational displacement in X, m/s
         20   -7.063E+01                                 T        First time derivative of finite element node 5 (number of elements = 1; element order = 5) translational displacement in Y, m/s
         21    3.490E-01                                 T        First time derivative of finite element node 5 (number of elements = 1; element order = 5) translational displacement in Z, m/s
         22    1.266E+00                                 T        First time derivative of finite element node 5 (number of elements = 1; element order = 5) rotational displacement in X, rad/s
         23   -8.237E-18                                 T        First time derivative of finite element node 5 (number of elements = 1; element order = 5) rotational displacement in Y, rad/s
         24   -5.527E-02                                 T        First time derivative of finite element node 5 (number of elements = 1; element order = 5) rotational displacement in Z, rad/s
         25    1.855E-02                                 T        First time derivative of finite element node 6 (number of elements = 1; element order = 5) translational displacement in X, m/s
         26   -7.979E+01                                 T        First time derivative of finite element node 6 (number of elements = 1; element order = 5) translational displacement in Y, m/s
         27    4.249E-01                                 T        First time derivative of finite element node 6 (number of elements = 1; element order = 5) translational displacement in Z, m/s
         28    1.266E+00                                 T        First time derivative of finite element node 6 (number of elements = 1; element order = 5) rotational displacement in X, rad/s
         29   -8.237E-18                                 T        First time derivative of finite element node 6 (number of elements = 1; element order = 5) rotational displacement in Y, rad/s
         30   -5.527E-02                                 T        First time derivative of finite element node 6 (number of elements = 1; element order = 5) rotational displacement in Z, rad/s
         31   -5.896E-01                                 T        First time derivative of First time derivative of finite element node 2 (number of elements = 1; element order = 5) translational displacement in X, m/s/s
         32   -3.133E-02                                 T        First time derivative of First time derivative of finite element node 2 (number of elements = 1; element order = 5) translational displacement in Y, m/s/s
         33   -1.400E+01                                 T        First time derivative of First time derivative of finite element node 2 (number of elements = 1; element order = 5) translational displacement in Z, m/s/s
         34    4.352E-05                                 T        First time derivative of First time derivative of finite element node 2 (number of elements = 1; element order = 5) rotational displacement in X, rad/s/s
         35   -4.605E-03                                 T        First time derivative of First time derivative of finite element node 2 (number of elements = 1; element order = 5) rotational displacement in Y, rad/s/s
         36    5.409E-03                                 T        First time derivative of First time derivative of finite element node 2 (number of elements = 1; element order = 5) rotational displacement in Z, rad/s/s
         37   -1.658E+00                                 T        First time derivative of First time derivative of finite element node 3 (number of elements = 1; element order = 5) translational displacement in X, m/s/s
         38   -6.696E-02                                 T        First time derivative of First time derivative of finite element node 3 (number of elements = 1; element order = 5) translational displacement in Y, m/s/s
         39   -3.762E+01                                 T        First time derivative of First time derivative of finite element node 3 (number of elements = 1; element order = 5) translational displacement in Z, m/s/s
         40    5.010E-05                                 T        First time derivative of First time derivative of finite element node 3 (number of elements = 1; element order = 5) rotational displacement in X, rad/s/s
         41    3.091E-03                                 T        First time derivative of First time derivative of finite element node 3 (number of elements = 1; element order = 5) rotational displacement in Y, rad/s/s
         42   -3.990E-03                                 T        First time derivative of First time derivative of finite element node 3 (number of elements = 1; element order = 5) rotational displacement in Z, rad/s/s
         43   -2.856E+00                                 T        First time derivative of First time derivative of finite element node 4 (number of elements = 1; element order = 5) translational displacement in X, m/s/s
         44   -2.765E-01                                 T        First time derivative of First time derivative of finite element node 4 (number of elements = 1; element order = 5) translational displacement in Y, m/s/s
         45   -6.577E+01                                 T        First time derivative of First time derivative of finite element node 4 (number of elements = 1; element order = 5) translational displacement in Z, m/s/s
         46   -1.340E-04                                 T        First time derivative of First time derivative of finite element node 4 (number of elements = 1; element order = 5) rotational displacement in X, rad/s/s
         47   -2.585E-03                                 T        First time derivative of First time derivative of finite element node 4 (number of elements = 1; element order = 5) rotational displacement in Y, rad/s/s
         48    4.331E-03                                 T        First time derivative of First time derivative of finite element node 4 (number of elements = 1; element order = 5) rotational displacement in Z, rad/s/s
         49   -3.926E+00                                 T        First time derivative of First time derivative of finite element node 5 (number of elements = 1; element order = 5) translational displacement in X, m/s/s
         50   -4.188E-01                                 T        First time derivative of First time derivative of finite element node 5 (number of elements = 1; element order = 5) translational displacement in Y, m/s/s
         51   -8.940E+01                                 T        First time derivative of First time derivative of finite element node 5 (number of elements = 1; element order = 5) translational displacement in Z, m/s/s
         52    3.220E-04                                 T        First time derivative of First time derivative of finite element node 5 (number of elements = 1; element order = 5) rotational displacement in X, rad/s/s
         53    7.153E-03                                 T        First time derivative of First time derivative of finite element node 5 (number of elements = 1; element order = 5) rotational displacement in Y, rad/s/s
         54   -5.451E-03                                 T        First time derivative of First time derivative of finite element node 5 (number of elements = 1; element order = 5) rotational displacement in Z, rad/s/s
         55   -4.324E+00                                 T        First time derivative of First time derivative of finite element node 6 (number of elements = 1; element order = 5) translational displacement in X, m/s/s
         56   -6.327E-01                                 T        First time derivative of First time derivative of finite element node 6 (number of elements = 1; element order = 5) translational displacement in Y, m/s/s
         57   -1.011E+02                                 T        First time derivative of First time derivative of finite element node 6 (number of elements = 1; element order = 5) translational displacement in Z, m/s/s
         58   -4.237E-04                                 T        First time derivative of First time derivative of finite element node 6 (number of elements = 1; element order = 5) rotational displacement in X, rad/s/s
         59   -1.030E-01                                 T        First time derivative of First time derivative of finite element node 6 (number of elements = 1; element order = 5) rotational displacement in Y, rad/s/s
         60    5.937E-02                                 T        First time derivative of First time derivative of finite element node 6 (number of elements = 1; element order = 5) rotational displacement in Z, rad/s/s

Order of outputs:
        Row   Operating Point                     Rotating Frame? Description
   ---------- ---------------                     --------------- -----------
          1    4.405E+04                                 T        RootFxr, (N)
          2    1.442E+05                                 T        RootFyr, (N)
          3    6.757E+05                                 T        RootFzr, (N)
          4   -2.915E+06                                 T        RootMxr, (N-m)
          5    1.128E+06                                 T        RootMyr, (N-m)
          6    5.062E+03                                 T        RootMzr, (N-m)
          7    3.464E-01                                 T        TipTDxr, (m)
          8    3.356E-01                                 T        TipTDyr, (m)
          9    1.143E-02                                 T        TipTDzr, (m)
         10   -8.080E-03                                 T        TipRDxr, (-)
         11    1.274E-02                                 T        TipRDyr, (-)
         12    3.914E-04                                 T        TipRDzr, (-)


Linearized state matrices:

A: 60 x 60
    0.000E+00  0.000E+00  0.000E+00  0.000E+00  0.000E+00  0.000E+00  0.000E+00  0.000E+00  0.000E+00  0.000E+00  0.000E+00  0.000E+00  0.000E+00  0.000E+00  0.000E+00  0.000E+00  0.000E+00  0.000E+00  0.000E+00  0.000E+00  0.000E+00  0.000E+00  0.000E+00  0.000E+00  0.000E+00  0.000E+00  0.000E+00  0.000E+00  0.000E+00  0.000E+00  1.000E+00  9.714E-17  8.327E-17  0.000E+00  0.000E+00  0.000E+00  0.000E+00  0.000E+00  0.000E+00  0.000E+00  0.000E+00  0.000E+00  0.000E+00  0.000E+00  0.000E+00  0.000E+00  0.000E+00  0.000E+00  0.000E+00  0.000E+00  0.000E+00  0.000E+00  0.000E+00  0.000E+00  0.000E+00  0.000E+00  0.000E+00  0.000E+00  0.000E+00  0.000E+00
    0.000E+00  0.000E+00  0.000E+00  0.000E+00  0.000E+00  0.000E+00  0.000E+00  0.000E+00  0.000E+00  0.000E+00  0.000E+00  0.000E+00  0.000E+00  0.000E+00  0.000E+00  0.000E+00  0.000E+00  0.000E+00  0.000E+00  0.000E+00  0.000E+00  0.000E+00  0.000E+00  0.000E+00  0.000E+00  0.000E+00  0.000E+00  0.000E+00  0.000E+00  0.000E+00  9.714E-17  1.000E+00  5.551E-17  0.000E+00  0.000E+00  0.000E+00  0.000E+00  0.000E+00  0.000E+00  0.000E+00  0.000E+00  0.000E+00  0.000E+00  0.000E+00  0.000E+00  0.000E+00  0.000E+00  0.000E+00  0.000E+00  0.000E+00  0.000E+00  0.000E+00  0.000E+00  0.000E+00  0.000E+00  0.000E+00  0.000E+00  0.000E+00  0.000E+00  0.000E+00
    0.000E+00  0.000E+00  0.000E+00  0.000E+00  0.000E+00  0.000E+00  0.000E+00  0.000E+00  0.000E+00  0.000E+00  0.000E+00  0.000E+00  0.000E+00  0.000E+00  0.000E+00  0.000E+00  0.000E+00  0.000E+00  0.000E+00  0.000E+00  0.000E+00  0.000E+00  0.000E+00  0.000E+00  0.000E+00  0.000E+00  0.000E+00  0.000E+00  0.000E+00  0.000E+00  8.327E-17  5.551E-17  1.000E+00  0.000E+00  0.000E+00  0.000E+00  0.000E+00  0.000E+00  0.000E+00  0.000E+00  0.000E+00  0.000E+00  0.000E+00  0.000E+00  0.000E+00  0.000E+00  0.000E+00  0.000E+00  0.000E+00  0.000E+00  0.000E+00  0.000E+00  0.000E+00  0.000E+00  0.000E+00  0.000E+00  0.000E+00  0.000E+00  0.000E+00  0.000E+00
    0.000E+00  0.000E+00  0.000E+00  0.000E+00  0.000E+00  0.000E+00  0.000E+00  0.000E+00  0.000E+00  0.000E+00  0.000E+00  0.000E+00  0.000E+00  0.000E+00  0.000E+00  0.000E+00  0.000E+00  0.000E+00  0.000E+00  0.000E+00  0.000E+00  0.000E+00  0.000E+00  0.000E+00  0.000E+00  0.000E+00  0.000E+00  0.000E+00  0.000E+00  0.000E+00  0.000E+00  0.000E+00  0.000E+00  1.000E+00  9.714E-17  8.327E-17  0.000E+00  0.000E+00  0.000E+00  0.000E+00  0.000E+00  0.000E+00  0.000E+00  0.000E+00  0.000E+00  0.000E+00  0.000E+00  0.000E+00  0.000E+00  0.000E+00  0.000E+00  0.000E+00  0.000E+00  0.000E+00  0.000E+00  0.000E+00  0.000E+00  0.000E+00  0.000E+00  0.000E+00
    0.000E+00  0.000E+00  0.000E+00  0.000E+00  0.000E+00  0.000E+00  0.000E+00  0.000E+00  0.000E+00  0.000E+00  0.000E+00  0.000E+00  0.000E+00  0.000E+00  0.000E+00  0.000E+00  0.000E+00  0.000E+00  0.000E+00  0.000E+00  0.000E+00  0.000E+00  0.000E+00  0.000E+00  0.000E+00  0.000E+00  0.000E+00  0.000E+00  0.000E+00  0.000E+00  0.000E+00  0.000E+00  0.000E+00  9.714E-17  1.000E+00  5.551E-17  0.000E+00  0.000E+00  0.000E+00  0.000E+00  0.000E+00  0.000E+00  0.000E+00  0.000E+00  0.000E+00  0.000E+00  0.000E+00  0.000E+00  0.000E+00  0.000E+00  0.000E+00  0.000E+00  0.000E+00  0.000E+00  0.000E+00  0.000E+00  0.000E+00  0.000E+00  0.000E+00  0.000E+00
    0.000E+00  0.000E+00  0.000E+00  0.000E+00  0.000E+00  0.000E+00  0.000E+00  0.000E+00  0.000E+00  0.000E+00  0.000E+00  0.000E+00  0.000E+00  0.000E+00  0.000E+00  0.000E+00  0.000E+00  0.000E+00  0.000E+00  0.000E+00  0.000E+00  0.000E+00  0.000E+00  0.000E+00  0.000E+00  0.000E+00  0.000E+00  0.000E+00  0.000E+00  0.000E+00  0.000E+00  0.000E+00  0.000E+00  8.327E-17  5.551E-17  1.000E+00  0.000E+00  0.000E+00  0.000E+00  0.000E+00  0.000E+00  0.000E+00  0.000E+00  0.000E+00  0.000E+00  0.000E+00  0.000E+00  0.000E+00  0.000E+00  0.000E+00  0.000E+00  0.000E+00  0.000E+00  0.000E+00  0.000E+00  0.000E+00  0.000E+00  0.000E+00  0.000E+00  0.000E+00