
Linearized model: Predictions were generated on 04-Mar-2024 at 23:42:33 using OpenFAST, compiled on Mar  4 2024 at 23:29:37 as a 64-bit application using double precision at commit -128-NOTFOUND
 linked with  NWTC Subroutine Library; ElastoDyn; BeamDyn; ServoDyn

Description from the FAST input file: FAST Certification Test #26: NREL 5.0 MW Baseline Wind Turbine (Onshore)

Simulation information:
   Simulation time:                     1.0005 s
   Rotor Speed:                         1.2670 rad/s
   Azimuth:                             1.2678 rad
   Wind Speed:                          0.0000 m/s
   Number of continuous states:       194
   Number of discrete states:           0
   Number of constraint states:         0
   Number of inputs:                    6
   Number of outputs:                  60
   Jacobians included in this file?    No

Order of continuous states:
   Row/Column Operating Point                                                   Rotating Frame? Derivative Order Description
   ---------- ---------------                                                   --------------- ---------------- -----------
          1   -1.854042463662E-002                                                     F               2         ED 1st tower fore-aft bending mode DOF (internal DOF index = DOF_TFA1), m
          2   -3.244508407712E-003                                                     F               2         ED 1st tower side-to-side bending mode DOF (internal DOF index = DOF_TSS1), m
          3   -3.132962031160E-005                                                     F               2         ED 2nd tower fore-aft bending mode DOF (internal DOF index = DOF_TFA2), m
          4    3.569531535522E-006                                                     F               2         ED 2nd tower side-to-side bending mode DOF (internal DOF index = DOF_TSS2), m
          5    2.169619614196E-005                                                     F               2         ED Nacelle yaw DOF (internal DOF index = DOF_Yaw), rad
          6    5.980173281451E+000                                                     F               2         ED Variable speed generator DOF (internal DOF index = DOF_GeAz), rad
          7   -1.703618287449E-006                                                     F               2         ED Drivetrain rotational-flexibility DOF (internal DOF index = DOF_DrTr), rad
          8   -2.347025501013E-002                                                     F               2         ED First time derivative of 1st tower fore-aft bending mode DOF (internal DOF index = DOF_TFA1), m/s
          9    4.889178576381E-003                                                     F               2         ED First time derivative of 1st tower side-to-side bending mode DOF (internal DOF index = DOF_TSS1), m/s
         10    6.972855477508E-004                                                     F               2         ED First time derivative of 2nd tower fore-aft bending mode DOF (internal DOF index = DOF_TFA2), m/s
         11    2.097238234421E-005                                                     F               2         ED First time derivative of 2nd tower side-to-side bending mode DOF (internal DOF index = DOF_TSS2), m/s
         12   -9.079412759395E-005                                                     F               2         ED First time derivative of Nacelle yaw DOF (internal DOF index = DOF_Yaw), rad/s
         13    1.267021533601E+000                                                     F               2         ED First time derivative of Variable speed generator DOF (internal DOF index = DOF_GeAz), rad/s
         14    1.106541772321E-005                                                     F               2         ED First time derivative of Drivetrain rotational-flexibility DOF (internal DOF index = DOF_DrTr), rad/s
         15    2.500502506562E-003                                                     T               2         BD_1 finite element node 2 (number of elements = 1; element order = 5) translational displacement in X, m
         16   -5.619091983654E-003                                                     T               2         BD_1 finite element node 2 (number of elements = 1; element order = 5) translational displacement in Y, m
         17    5.219366870551E-004                                                     T               2         BD_1 finite element node 2 (number of elements = 1; element order = 5) translational displacement in Z, m
         18    1.358832534410E-003                                                     T               2         BD_1 finite element node 2 (number of elements = 1; element order = 5) rotational displacement in X, rad
         19    7.261164933533E-004                                                     T               2         BD_1 finite element node 2 (number of elements = 1; element order = 5) rotational displacement in Y, rad
         20   -8.042126459130E-006                                                     T               2         BD_1 finite element node 2 (number of elements = 1; element order = 5) rotational displacement in Z, rad
         21    3.842666304744E-002                                                     T               2         BD_1 finite element node 3 (number of elements = 1; element order = 5) translational displacement in X, m
         22   -5.880055385299E-002                                                     T               2         BD_1 finite element node 3 (number of elements = 1; element order = 5) translational displacement in Y, m
         23    2.543171303741E-003                                                     T               2         BD_1 finite element node 3 (number of elements = 1; element order = 5) translational displacement in Z, m
         24    5.344691929836E-003                                                     T               2         BD_1 finite element node 3 (number of elements = 1; element order = 5) rotational displacement in X, rad
         25    4.337908380197E-003                                                     T               2         BD_1 finite element node 3 (number of elements = 1; element order = 5) rotational displacement in Y, rad
         26   -9.145826613596E-005                                                     T               2         BD_1 finite element node 3 (number of elements = 1; element order = 5) rotational displacement in Z, rad
         27    1.705573108824E-001                                                     T               2         BD_1 finite element node 4 (number of elements = 1; element order = 5) translational displacement in X, m
         28   -1.908987075957E-001                                                     T               2         BD_1 finite element node 4 (number of elements = 1; element order = 5) translational displacement in Y, m
         29    5.866582950773E-003                                                     T               2         BD_1 finite element node 4 (number of elements = 1; element order = 5) translational displacement in Z, m
         30    8.657909948864E-003                                                     T               2         BD_1 finite element node 4 (number of elements = 1; element order = 5) rotational displacement in X, rad
         31    1.060799652468E-002                                                     T               2         BD_1 finite element node 4 (number of elements = 1; element order = 5) rotational displacement in Y, rad
         32   -2.514808769975E-004                                                     T               2         BD_1 finite element node 4 (number of elements = 1; element order = 5) rotational displacement in Z, rad
         33    3.672130369371E-001                                                     T               2         BD_1 finite element node 5 (number of elements = 1; element order = 5) translational displacement in X, m
         34   -3.325668381354E-001                                                     T               2         BD_1 finite element node 5 (number of elements = 1; element order = 5) translational displacement in Y, m
         35    8.193693190143E-003                                                     T               2         BD_1 finite element node 5 (number of elements = 1; element order = 5) translational displacement in Z, m
         36    9.851973099998E-003                                                     T               2         BD_1 finite element node 5 (number of elements = 1; element order = 5) rotational displacement in X, rad
         37    1.550073951264E-002                                                     T               2         BD_1 finite element node 5 (number of elements = 1; element order = 5) rotational displacement in Y, rad
         38   -3.013609092900E-004                                                     T               2         BD_1 finite element node 5 (number of elements = 1; element order = 5) rotational displacement in Z, rad
         39    4.854208981979E-001                                                     T               2         BD_1 finite element node 6 (number of elements = 1; element order = 5) translational displacement in X, m
         40   -4.066564762670E-001                                                     T               2         BD_1 finite element node 6 (number of elements = 1; element order = 5) translational displacement in Y, m
         41    8.012646694905E-003                                                     T               2         BD_1 finite element node 6 (number of elements = 1; element order = 5) translational displacement in Z, m
         42    1.005721772588E-002                                                     T               2         BD_1 finite element node 6 (number of elements = 1; element order = 5) rotational displacement in X, rad
         43    1.657745120659E-002                                                     T               2         BD_1 finite element node 6 (number of elements = 1; element order = 5) rotational displacement in Y, rad
         44   -2.850975141430E-004                                                     T               2         BD_1 finite element node 6 (number of elements = 1; element order = 5) rotational displacement in Z, rad
         45   -2.288264866310E-002                                                     T               2         BD_1 First time derivative of finite element node 2 (number of elements = 1; element order = 5) translational displacement in X, m/s
         46   -1.104592030207E+001                                                     T               2         BD_1 First time derivative of finite element node 2 (number of elements = 1; element order = 5) translational displacement in Y, m/s
         47   -1.759753098594E-003                                                     T               2         BD_1 First time derivative of finite element node 2 (number of elements = 1; element order = 5) translational displacement in Z, m/s
         48    1.265302456829E+000                                                     T               2         BD_1 First time derivative of finite element node 2 (number of elements = 1; element order = 5) rotational displacement in X, rad/s
         49   -9.472828666614E-005                                                     T               2         BD_1 First time derivative of finite element node 2 (number of elements = 1; element order = 5) rotational displacement in Y, rad/s
         50   -5.546743522086E-002                                                     T               2         BD_1 First time derivative of finite element node 2 (number of elements = 1; element order = 5) rotational displacement in Z, rad/s
         51   -2.821256717203E-002                                                     T               2         BD_1 First time derivative of finite element node 3 (number of elements = 1; element order = 5) translational displacement in X, m/s
         52   -2.970134489317E+001                                                     T               2         BD_1 First time derivative of finite element node 3 (number of elements = 1; element order = 5) translational displacement in Y, m/s
         53   -6.840827766646E-002                                                     T               2         BD_1 First time derivative of finite element node 3 (number of elements = 1; element order = 5) translational displacement in Z, m/s
         54    1.262962648294E+000                                                     T               2         BD_1 First time derivative of finite element node 3 (number of elements = 1; element order = 5) rotational displacement in X, rad/s
         55    6.836558362208E-005                                                     T               2         BD_1 First time derivative of finite element node 3 (number of elements = 1; element order = 5) rotational displacement in Y, rad/s
         56   -5.549734694213E-002                                                     T               2         BD_1 First time derivative of finite element node 3 (number of elements = 1; element order = 5) rotational displacement in Z, rad/s
         57   -1.225333307586E-002                                                     T               2         BD_1 First time derivative of finite element node 4 (number of elements = 1; element order = 5) translational displacement in X, m/s
         58   -5.184117406301E+001                                                     T               2         BD_1 First time derivative of finite element node 4 (number of elements = 1; element order = 5) translational displacement in Y, m/s
         59   -2.344108583988E-001                                                     T               2         BD_1 First time derivative of finite element node 4 (number of elements = 1; element order = 5) translational displacement in Z, m/s
         60    1.260672107142E+000                                                     T               2         BD_1 First time derivative of finite element node 4 (number of elements = 1; element order = 5) rotational displacement in X, rad/s
         61    3.018362633696E-003                                                     T               2         BD_1 First time derivative of finite element node 4 (number of elements = 1; element order = 5) rotational displacement in Y, rad/s
         62   -5.569095204904E-002                                                     T               2         BD_1 First time derivative of finite element node 4 (number of elements = 1; element order = 5) rotational displacement in Z, rad/s
         63    5.359513112227E-002                                                     T               2         BD_1 First time derivative of finite element node 5 (number of elements = 1; element order = 5) translational displacement in X, m/s
         64   -7.044417672373E+001                                                     T               2         BD_1 First time derivative of finite element node 5 (number of elements = 1; element order = 5) translational displacement in Y, m/s
         65   -4.131146663428E-001                                                     T               2         BD_1 First time derivative of finite element node 5 (number of elements = 1; element order = 5) translational displacement in Z, m/s
         66    1.259790606079E+000                                                     T               2         BD_1 First time derivative of finite element node 5 (number of elements = 1; element order = 5) rotational displacement in X, rad/s
         67    6.509169818741E-003                                                     T               2         BD_1 First time derivative of finite element node 5 (number of elements = 1; element order = 5) rotational displacement in Y, rad/s
         68   -5.598814838586E-002                                                     T               2         BD_1 First time derivative of finite element node 5 (number of elements = 1; element order = 5) rotational displacement in Z, rad/s
         69    9.878019393906E-002                                                     T               2         BD_1 First time derivative of finite element node 6 (number of elements = 1; element order = 5) translational displacement in X, m/s
         70   -7.955021955263E+001                                                     T               2         BD_1 First time derivative of finite element node 6 (number of elements = 1; element order = 5) translational displacement in Y, m/s
         71   -5.071515675318E-001                                                     T               2         BD_1 First time derivative of finite element node 6 (number of elements = 1; element order = 5) translational displacement in Z, m/s
         72    1.259627390865E+000                                                     T               2         BD_1 First time derivative of finite element node 6 (number of elements = 1; element order = 5) rotational displacement in X, rad/s
         73    6.463514759752E-003                                                     T               2         BD_1 First time derivative of finite element node 6 (number of elements = 1; element order = 5) rotational displacement in Y, rad/s
         74   -5.605336974108E-002                                                     T               2         BD_1 First time derivative of finite element node 6 (number of elements = 1; element order = 5) rotational displacement in Z, rad/s
         75    2.312849306130E-003                                                     T               2         BD_2 finite element node 2 (number of elements = 1; element order = 5) translational displacement in X, m
         76    1.161379379285E-003                                                     T               2         BD_2 finite element node 2 (number of elements = 1; element order = 5) translational displacement in Y, m
         77    6.925499871800E-004                                                     T               2         BD_2 finite element node 2 (number of elements = 1; element order = 5) translational displacement in Z, m
         78   -2.577706071569E-004                                                     T               2         BD_2 finite element node 2 (number of elements = 1; element order = 5) rotational displacement in X, rad
         79    6.256719867713E-004                                                     T               2         BD_2 finite element node 2 (number of elements = 1; element order = 5) rotational displacement in Y, rad
         80    7.752424548295E-006                                                     T               2         BD_2 finite element node 2 (number of elements = 1; element order = 5) rotational displacement in Z, rad
         81    3.153561487456E-002                                                     T               2         BD_2 finite element node 3 (number of elements = 1; element order = 5) translational displacement in X, m
         82    9.971669496109E-003                                                     T               2         BD_2 finite element node 3 (number of elements = 1; element order = 5) translational displacement in Y, m
         83    3.371705319199E-003                                                     T               2         BD_2 finite element node 3 (number of elements = 1; element order = 5) translational displacement in Z, m
         84   -7.791817287506E-004                                                     T               2         BD_2 finite element node 3 (number of elements = 1; element order = 5) rotational displacement in X, rad
         85    3.429412307477E-003                                                     T               2         BD_2 finite element node 3 (number of elements = 1; element order = 5) rotational displacement in Y, rad
         86    7.037531122152E-005                                                     T               2         BD_2 finite element node 3 (number of elements = 1; element order = 5) rotational displacement in Z, rad
         87    1.363670275729E-001                                                     T               2         BD_2 finite element node 4 (number of elements = 1; element order = 5) translational displacement in X, m
         88    2.710624009659E-002                                                     T               2         BD_2 finite element node 4 (number of elements = 1; element order = 5) translational displacement in Y, m
         89    8.166652506344E-003                                                     T               2         BD_2 finite element node 4 (number of elements = 1; element order = 5) translational displacement in Z, m
         90   -9.595006369071E-004                                                     T               2         BD_2 finite element node 4 (number of elements = 1; element order = 5) rotational displacement in X, rad
         91    8.414347667754E-003                                                     T               2         BD_2 finite element node 4 (number of elements = 1; element order = 5) rotational displacement in Y, rad
         92    1.591047496924E-004                                                     T               2         BD_2 finite element node 4 (number of elements = 1; element order = 5) rotational displacement in Z, rad
         93    2.942877507133E-001                                                     T               2         BD_2 finite element node 5 (number of elements = 1; element order = 5) translational displacement in X, m
         94    4.219148734713E-002                                                     T               2         BD_2 finite element node 5 (number of elements = 1; element order = 5) translational displacement in Y, m
         95    1.228297882825E-002                                                     T               2         BD_2 finite element node 5 (number of elements = 1; element order = 5) translational displacement in Z, m
         96   -9.994306496027E-004                                                     T               2         BD_2 finite element node 5 (number of elements = 1; element order = 5) rotational displacement in X, rad
         97    1.254043531046E-002                                                     T               2         BD_2 finite element node 5 (number of elements = 1; element order = 5) rotational displacement in Y, rad
         98    1.741843472884E-004                                                     T               2         BD_2 finite element node 5 (number of elements = 1; element order = 5) rotational displacement in Z, rad
         99    3.903798939142E-001                                                     T               2         BD_2 finite element node 6 (number of elements = 1; element order = 5) translational displacement in X, m
        100    5.014556507788E-002                                                     T               2         BD_2 finite element node 6 (number of elements = 1; element order = 5) translational displacement in Y, m
        101    1.291962546326E-002                                                     T               2         BD_2 finite element node 6 (number of elements = 1; element order = 5) translational displacement in Z, m
        102   -1.053556700723E-003                                                     T               2         BD_2 finite element node 6 (number of elements = 1; element order = 5) rotational displacement in X, rad
        103    1.347457320710E-002                                                     T               2         BD_2 finite element node 6 (number of elements = 1; element order = 5) rotational displacement in Y, rad
        104    1.885010122717E-004                                                     T               2         BD_2 finite element node 6 (number of elements = 1; element order = 5) rotational displacement in Z, rad
        105   -2.377958129453E-002                                                     T               2         BD_2 First time derivative of finite element node 2 (number of elements = 1; element order = 5) translational displacement in X, m/s
        106   -1.103655745982E+001                                                     T               2         BD_2 First time derivative of finite element node 2 (number of elements = 1; element order = 5) translational displacement in Y, m/s
        107    2.405256947258E-003                                                     T               2         BD_2 First time derivative of finite element node 2 (number of elements = 1; element order = 5) translational displacement in Z, m/s
        108    1.264928449894E+000                                                     T               2         BD_2 First time derivative of finite element node 2 (number of elements = 1; element order = 5) rotational displacement in X, rad/s
        109   -1.851852957302E-004                                                     T               2         BD_2 First time derivative of finite element node 2 (number of elements = 1; element order = 5) rotational displacement in Y, rad/s
        110   -5.513178516796E-002                                                     T               2         BD_2 First time derivative of finite element node 2 (number of elements = 1; element order = 5) rotational displacement in Z, rad/s
        111   -2.700452593699E-002                                                     T               2         BD_2 First time derivative of finite element node 3 (number of elements = 1; element order = 5) translational displacement in X, m/s
        112   -2.968149544188E+001                                                     T               2         BD_2 First time derivative of finite element node 3 (number of elements = 1; element order = 5) translational displacement in Y, m/s
        113    1.337358136776E-002                                                     T               2         BD_2 First time derivative of finite element node 3 (number of elements = 1; element order = 5) translational displacement in Z, m/s
        114    1.262089753135E+000                                                     T               2         BD_2 First time derivative of finite element node 3 (number of elements = 1; element order = 5) rotational displacement in X, rad/s
        115   -5.068843922546E-004                                                     T               2         BD_2 First time derivative of finite element node 3 (number of elements = 1; element order = 5) rotational displacement in Y, rad/s
        116   -5.486712871027E-002                                                     T               2         BD_2 First time derivative of finite element node 3 (number of elements = 1; element order = 5) rotational displacement in Z, rad/s
        117   -5.668225648165E-002                                                     T               2         BD_2 First time derivative of finite element node 4 (number of elements = 1; element order = 5) translational displacement in X, m/s
        118   -5.180175802577E+001                                                     T               2         BD_2 First time derivative of finite element node 4 (number of elements = 1; element order = 5) translational displacement in Y, m/s
        119    3.492009100246E-002                                                     T               2         BD_2 First time derivative of finite element node 4 (number of elements = 1; element order = 5) translational displacement in Z, m/s
        120    1.259211410281E+000                                                     T               2         BD_2 First time derivative of finite element node 4 (number of elements = 1; element order = 5) rotational displacement in X, rad/s
        121   -3.857049861147E-003                                                     T               2         BD_2 First time derivative of finite element node 4 (number of elements = 1; element order = 5) rotational displacement in Y, rad/s
        122   -5.402868250977E-002                                                     T               2         BD_2 First time derivative of finite element node 4 (number of elements = 1; element order = 5) rotational displacement in Z, rad/s
        123   -1.651983730867E-001                                                     T               2         BD_2 First time derivative of finite element node 5 (number of elements = 1; element order = 5) translational displacement in X, m/s
        124   -7.037602137443E+001                                                     T               2         BD_2 First time derivative of finite element node 5 (number of elements = 1; element order = 5) translational displacement in Y, m/s
        125    5.486134650098E-002                                                     T               2         BD_2 First time derivative of finite element node 5 (number of elements = 1; element order = 5) translational displacement in Z, m/s
        126    1.257438255041E+000                                                     T               2         BD_2 First time derivative of finite element node 5 (number of elements = 1; element order = 5) rotational displacement in X, rad/s