
Linearized model: Predictions were generated on 11-Oct-2025 at 16:04:45 using OpenFAST, compiled on Oct 10 2025 at 17:31:28 as a 64-bit application using double precision at commit v4.1.2-727-g39496902
 linked with  NWTC Subroutine Library; ElastoDyn; SubDyn

Description from the FAST input file: FAST Certification Test #19: NREL 5.0 MW Baseline Wind Turbine with OC3 Monopile RF Configuration, for use in offshore analysis

Simulation information:
   Simulation time:                     0.0000 s
   Rotor Speed:                         1.2671 rad/s
   Azimuth:                             0.0000 rad
   Wind Speed:                          0.0000 m/s
   Number of continuous states:        44
   Number of discrete states:           0
   Number of constraint states:         0
   Number of inputs:                    9
   Number of outputs:                  41
   Jacobians included in this file?    No

Order of continuous states:
   Row/Column Operating Point                                                   Rotating Frame? Derivative Order Description
   ---------- ---------------                                                   --------------- ---------------- -----------
          1    0.000000000000E+000                                                     F               2         ED Platform horizontal surge translation DOF (internal DOF index = DOF_Sg), m
          2    0.000000000000E+000                                                     F               2         ED Platform horizontal sway translation DOF (internal DOF index = DOF_Sw), m
          3   -9.000000000000E-004                                                     F               2         ED Platform vertical heave translation DOF (internal DOF index = DOF_Hv), m
          4    0.000000000000E+000                                                     F               2         ED Platform roll tilt rotation DOF (internal DOF index = DOF_R), rad
          5    0.000000000000E+000                                                     F               2         ED Platform pitch tilt rotation DOF (internal DOF index = DOF_P), rad
          6    0.000000000000E+000                                                     F               2         ED Platform yaw rotation DOF (internal DOF index = DOF_Y), rad
          7    0.000000000000E+000                                                     F               2         ED 1st tower fore-aft bending mode DOF (internal DOF index = DOF_TFA1), m
          8    0.000000000000E+000                                                     F               2         ED 1st tower side-to-side bending mode DOF (internal DOF index = DOF_TSS1), m
          9    0.000000000000E+000                                                     F               2         ED 2nd tower fore-aft bending mode DOF (internal DOF index = DOF_TFA2), m
         10    0.000000000000E+000                                                     F               2         ED 2nd tower side-to-side bending mode DOF (internal DOF index = DOF_TSS2), m
         11    0.000000000000E+000                                                     F               2         ED Nacelle yaw DOF (internal DOF index = DOF_Yaw), rad
         12    4.712388980385E+000                                                     F               2         ED Variable speed generator DOF (internal DOF index = DOF_GeAz), rad
         13    0.000000000000E+000                                                     F               2         ED Drivetrain rotational-flexibility DOF (internal DOF index = DOF_DrTr), rad
         14    0.000000000000E+000                                                     T               2         ED 1st flapwise bending-mode DOF of blade 1 (internal DOF index = DOF_BF(1,1)), m
         15    0.000000000000E+000                                                     T               2         ED 1st flapwise bending-mode DOF of blade 2 (internal DOF index = DOF_BF(2,1)), m
         16    0.000000000000E+000                                                     T               2         ED 1st flapwise bending-mode DOF of blade 3 (internal DOF index = DOF_BF(3,1)), m
         17    0.000000000000E+000                                                     T               2         ED 1st edgewise bending-mode DOF of blade 1 (internal DOF index = DOF_BE(1,1)), m
         18    0.000000000000E+000                                                     T               2         ED 1st edgewise bending-mode DOF of blade 2 (internal DOF index = DOF_BE(2,1)), m
         19    0.000000000000E+000                                                     T               2         ED 1st edgewise bending-mode DOF of blade 3 (internal DOF index = DOF_BE(3,1)), m
         20    0.000000000000E+000                                                     T               2         ED 2nd flapwise bending-mode DOF of blade 1 (internal DOF index = DOF_BF(1,2)), m
         21    0.000000000000E+000                                                     T               2         ED 2nd flapwise bending-mode DOF of blade 2 (internal DOF index = DOF_BF(2,2)), m
         22    0.000000000000E+000                                                     T               2         ED 2nd flapwise bending-mode DOF of blade 3 (internal DOF index = DOF_BF(3,2)), m
         23    0.000000000000E+000                                                     F               2         ED First time derivative of Platform horizontal surge translation DOF (internal DOF index = DOF_Sg), m/s
         24    0.000000000000E+000                                                     F               2         ED First time derivative of Platform horizontal sway translation DOF (internal DOF index = DOF_Sw), m/s
         25    0.000000000000E+000                                                     F               2         ED First time derivative of Platform vertical heave translation DOF (internal DOF index = DOF_Hv), m/s
         26    0.000000000000E+000                                                     F               2         ED First time derivative of Platform roll tilt rotation DOF (internal DOF index = DOF_R), rad/s
         27    0.000000000000E+000                                                     F               2         ED First time derivative of Platform pitch tilt rotation DOF (internal DOF index = DOF_P), rad/s
         28    0.000000000000E+000                                                     F               2         ED First time derivative of Platform yaw rotation DOF (internal DOF index = DOF_Y), rad/s
         29    0.000000000000E+000                                                     F               2         ED First time derivative of 1st tower fore-aft bending mode DOF (internal DOF index = DOF_TFA1), m/s
         30    0.000000000000E+000                                                     F               2         ED First time derivative of 1st tower side-to-side bending mode DOF (internal DOF index = DOF_TSS1), m/s
         31    0.000000000000E+000                                                     F               2         ED First time derivative of 2nd tower fore-aft bending mode DOF (internal DOF index = DOF_TFA2), m/s
         32    0.000000000000E+000                                                     F               2         ED First time derivative of 2nd tower side-to-side bending mode DOF (internal DOF index = DOF_TSS2), m/s
         33    0.000000000000E+000                                                     F               2         ED First time derivative of Nacelle yaw DOF (internal DOF index = DOF_Yaw), rad/s
         34    1.267109036948E+000                                                     F               2         ED First time derivative of Variable speed generator DOF (internal DOF index = DOF_GeAz), rad/s
         35    0.000000000000E+000                                                     F               2         ED First time derivative of Drivetrain rotational-flexibility DOF (internal DOF index = DOF_DrTr), rad/s
         36    0.000000000000E+000                                                     T               2         ED First time derivative of 1st flapwise bending-mode DOF of blade 1 (internal DOF index = DOF_BF(1,1)), m/s
         37    0.000000000000E+000                                                     T               2         ED First time derivative of 1st flapwise bending-mode DOF of blade 2 (internal DOF index = DOF_BF(2,1)), m/s
         38    0.000000000000E+000                                                     T               2         ED First time derivative of 1st flapwise bending-mode DOF of blade 3 (internal DOF index = DOF_BF(3,1)), m/s
         39    0.000000000000E+000                                                     T               2         ED First time derivative of 1st edgewise bending-mode DOF of blade 1 (internal DOF index = DOF_BE(1,1)), m/s
         40    0.000000000000E+000                                                     T               2         ED First time derivative of 1st edgewise bending-mode DOF of blade 2 (internal DOF index = DOF_BE(2,1)), m/s
         41    0.000000000000E+000                                                     T               2         ED First time derivative of 1st edgewise bending-mode DOF of blade 3 (internal DOF index = DOF_BE(3,1)), m/s
         42    0.000000000000E+000                                                     T               2         ED First time derivative of 2nd flapwise bending-mode DOF of blade 1 (internal DOF index = DOF_BF(1,2)), m/s
         43    0.000000000000E+000                                                     T               2         ED First time derivative of 2nd flapwise bending-mode DOF of blade 2 (internal DOF index = DOF_BF(2,2)), m/s
         44    0.000000000000E+000                                                     T               2         ED First time derivative of 2nd flapwise bending-mode DOF of blade 3 (internal DOF index = DOF_BF(3,2)), m/s

Order of continuous state derivatives:
   Row/Column Operating Point                                                   Rotating Frame? Derivative Order Description
   ---------- ---------------                                                   --------------- ---------------- -----------
          1    0.000000000000E+000                                                     F               2         First time derivative of ED Platform horizontal surge translation DOF (internal DOF index = DOF_Sg), m/s
          2    0.000000000000E+000                                                     F               2         First time derivative of ED Platform horizontal sway translation DOF (internal DOF index = DOF_Sw), m/s
          3    0.000000000000E+000                                                     F               2         First time derivative of ED Platform vertical heave translation DOF (internal DOF index = DOF_Hv), m/s
          4    0.000000000000E+000                                                     F               2         First time derivative of ED Platform roll tilt rotation DOF (internal DOF index = DOF_R), rad/s
          5    0.000000000000E+000                                                     F               2         First time derivative of ED Platform pitch tilt rotation DOF (internal DOF index = DOF_P), rad/s
          6    0.000000000000E+000                                                     F               2         First time derivative of ED Platform yaw rotation DOF (internal DOF index = DOF_Y), rad/s
          7    0.000000000000E+000                                                     F               2         First time derivative of ED 1st tower fore-aft bending mode DOF (internal DOF index = DOF_TFA1), m/s
          8    0.000000000000E+000                                                     F               2         First time derivative of ED 1st tower side-to-side bending mode DOF (internal DOF index = DOF_TSS1), m/s
          9    0.000000000000E+000                                                     F               2         First time derivative of ED 2nd tower fore-aft bending mode DOF (internal DOF index = DOF_TFA2), m/s
         10    0.000000000000E+000                                                     F               2         First time derivative of ED 2nd tower side-to-side bending mode DOF (internal DOF index = DOF_TSS2), m/s
         11    0.000000000000E+000                                                     F               2         First time derivative of ED Nacelle yaw DOF (internal DOF index = DOF_Yaw), rad/s
         12    1.267109036948E+000                                                     F               2         First time derivative of ED Variable speed generator DOF (internal DOF index = DOF_GeAz), rad/s
         13    0.000000000000E+000                                                     F               2         First time derivative of ED Drivetrain rotational-flexibility DOF (internal DOF index = DOF_DrTr), rad/s
         14    0.000000000000E+000                                                     T               2         First time derivative of ED 1st flapwise bending-mode DOF of blade 1 (internal DOF index = DOF_BF(1,1)), m/s
         15    0.000000000000E+000                                                     T               2         First time derivative of ED 1st flapwise bending-mode DOF of blade 2 (internal DOF index = DOF_BF(2,1)), m/s
         16    0.000000000000E+000                                                     T               2         First time derivative of ED 1st flapwise bending-mode DOF of blade 3 (internal DOF index = DOF_BF(3,1)), m/s
         17    0.000000000000E+000                                                     T               2         First time derivative of ED 1st edgewise bending-mode DOF of blade 1 (internal DOF index = DOF_BE(1,1)), m/s
         18    0.000000000000E+000                                                     T               2         First time derivative of ED 1st edgewise bending-mode DOF of blade 2 (internal DOF index = DOF_BE(2,1)), m/s
         19    0.000000000000E+000                                                     T               2         First time derivative of ED 1st edgewise bending-mode DOF of blade 3 (internal DOF index = DOF_BE(3,1)), m/s
         20    0.000000000000E+000                                                     T               2         First time derivative of ED 2nd flapwise bending-mode DOF of blade 1 (internal DOF index = DOF_BF(1,2)), m/s
         21    0.000000000000E+000                                                     T               2         First time derivative of ED 2nd flapwise bending-mode DOF of blade 2 (internal DOF index = DOF_BF(2,2)), m/s
         22    0.000000000000E+000                                                     T               2         First time derivative of ED 2nd flapwise bending-mode DOF of blade 3 (internal DOF index = DOF_BF(3,2)), m/s
         23   -3.715694150225E-002                                                     F               2         First time derivative of ED First time derivative of Platform horizontal surge translation DOF (internal DOF index = DOF_Sg), m/s/s
         24    1.383759174724E-004                                                     F               2         First time derivative of ED First time derivative of Platform horizontal sway translation DOF (internal DOF index = DOF_Sw), m/s/s
         25    1.607577845087E-002                                                     F               2         First time derivative of ED First time derivative of Platform vertical heave translation DOF (internal DOF index = DOF_Hv), m/s/s
         26   -1.027870563295E-004                                                     F               2         First time derivative of ED First time derivative of Platform roll tilt rotation DOF (internal DOF index = DOF_R), rad/s/s
         27   -2.298358781979E-002                                                     F               2         First time derivative of ED First time derivative of Platform pitch tilt rotation DOF (internal DOF index = DOF_P), rad/s/s
         28    1.302659338328E-017                                                     F               2         First time derivative of ED First time derivative of Platform yaw rotation DOF (internal DOF index = DOF_Y), rad/s/s
         29    3.947912937973E+000                                                     F               2         First time derivative of ED First time derivative of 1st tower fore-aft bending mode DOF (internal DOF index = DOF_TFA1), m/s/s
         30    1.603868061479E-002                                                     F               2         First time derivative of ED First time derivative of 1st tower side-to-side bending mode DOF (internal DOF index = DOF_TSS1), m/s/s
         31   -2.308250711224E+000                                                     F               2         First time derivative of ED First time derivative of 2nd tower fore-aft bending mode DOF (internal DOF index = DOF_TFA2), m/s/s
         32   -7.368993746657E-003                                                     F               2         First time derivative of ED First time derivative of 2nd tower side-to-side bending mode DOF (internal DOF index = DOF_TSS2), m/s/s
         33   -1.018454315448E-002                                                     F               2         First time derivative of ED First time derivative of Nacelle yaw DOF (internal DOF index = DOF_Yaw), rad/s/s
         34   -7.071901902994E-006                                                     F               2         First time derivative of ED First time derivative of Variable speed generator DOF (internal DOF index = DOF_GeAz), rad/s/s
         35   -6.004165377978E-003                                                     F               2         First time derivative of ED First time derivative of Drivetrain rotational-flexibility DOF (internal DOF index = DOF_DrTr), rad/s/s
         36    1.461784832981E+001                                                     T               2         First time derivative of ED First time derivative of 1st flapwise bending-mode DOF of blade 1 (internal DOF index = DOF_BF(1,1)), m/s/s
         37    1.237996959088E+001                                                     T               2         First time derivative of ED First time derivative of 1st flapwise bending-mode DOF of blade 2 (internal DOF index = DOF_BF(2,1)), m/s/s
         38    2.853602353162E+000                                                     T               2         First time derivative of ED First time derivative of 1st flapwise bending-mode DOF of blade 3 (internal DOF index = DOF_BF(3,1)), m/s/s
         39    2.343028043996E+000                                                     T               2         First time derivative of ED First time derivative of 1st edgewise bending-mode DOF of blade 1 (internal DOF index = DOF_BE(1,1)), m/s/s
         40   -1.549506902739E+001                                                     T               2         First time derivative of ED First time derivative of 1st edgewise bending-mode DOF of blade 2 (internal DOF index = DOF_BE(2,1)), m/s/s
         41    1.804189253575E+001                                                     T               2         First time derivative of ED First time derivative of 1st edgewise bending-mode DOF of blade 3 (internal DOF index = DOF_BE(3,1)), m/s/s
         42   -9.390561930171E+000                                                     T               2         First time derivative of ED First time derivative of 2nd flapwise bending-mode DOF of blade 1 (internal DOF index = DOF_BF(1,2)), m/s/s
         43   -9.217894752570E+000                                                     T               2         First time derivative of ED First time derivative of 2nd flapwise bending-mode DOF of blade 2 (internal DOF index = DOF_BF(2,2)), m/s/s
         44   -2.554071612377E+000                                                     T               2         First time derivative of ED First time derivative of 2nd flapwise bending-mode DOF of blade 3 (internal DOF index = DOF_BF(3,2)), m/s/s

Order of inputs:
     Column   Operating Point                                                   Rotating Frame? Derivative Order Description
   ---------- ---------------                                                   --------------- ---------------- -----------
          1    0.000000000000E+000                                                     T               0         ED Blade 1 pitch command, rad
          2    0.000000000000E+000                                                     T               0         ED Blade 2 pitch command, rad
          3    0.000000000000E+000                                                     T               0         ED Blade 3 pitch command, rad
          4    0.000000000000E+000                                                     T               0         ED Blade 1 pitch moment, Nm
          5    0.000000000000E+000                                                     T               0         ED Blade 2 pitch moment, Nm
          6    0.000000000000E+000                                                     T               0         ED Blade 3 pitch moment, Nm
          7    0.000000000000E+000                                                     F               0         ED Yaw moment, Nm
          8    0.000000000000E+000                                                     F               0         ED Generator torque, Nm
          9    0.000000000000E+000                                                     F               0         ED Extended input: collective blade-pitch command, rad

Order of outputs:
        Row   Operating Point                                                   Rotating Frame? Derivative Order Description
   ---------- ---------------                                                   --------------- ---------------- -----------
          1    0.000000000000E+000                                                     T               0         ED OoPDefl1, (m)
          2    0.000000000000E+000                                                     T               0         ED IPDefl1, (m)
          3    0.000000000000E+000                                                     T               0         ED TwstDefl1, (deg)
          4    0.000000000000E+000                                                     T               0         ED BldPitch1, (deg)
          5    0.000000000000E+000                                                     F               0         ED Azimuth, (deg)
          6    1.210000000000E+001                                                     F               0         ED RotSpeed, (rpm)
          7    1.173700000000E+003                                                     F               0         ED GenSpeed, (rpm)
          8    0.000000000000E+000                                                     F               0         ED TwHt1TPxi, (m)
          9    0.000000000000E+000                                                     F               0         ED TwHt1TPyi, (m)
         10    0.000000000000E+000                                                     F               0         ED TTDspTwst, (deg)
         11    0.000000000000E+000                                                     F               0         ED PtfmSurge, (m)
         12    0.000000000000E+000                                                     F               0         ED PtfmSway, (m)
         13    0.000000000000E+000                                                     F               0         ED PtfmRoll, (deg)
         14    0.000000000000E+000                                                     F               0         ED PtfmPitch, (deg)
         15    5.281621966879E+000                                                     T               0         ED Spn2MLxb1, (kN-m)
         16   -1.533736101567E+001                                                     T               0         ED Spn2MLyb1, (kN-m)
         17    1.686884647146E+001                                                     T               0         ED RootFxc1, (kN)
         18   -4.898616658052E-001                                                     T               0         ED RootFyc1, (kN)
         19    4.554228534581E+002                                                     T               0         ED RootFzc1, (kN)
         20    2.455972244312E+000                                                     T               0         ED RootMxc1, (kN-m)
         21    1.562553668537E+002                                                     T               0         ED RootMyc1, (kN-m)
         22    2.738740307193E-015                                                     T               0         ED RootMzc1, (kN-m)
         23   -4.494182803683E-013                                                     F               0         ED RotTorq, (kN-m)
         24   -1.842047986190E+003                                                     F               0         ED LSSGagMya, (kN-m)
         25   -4.166651378307E+001                                                     F               0         ED LSSGagMza, (kN-m)
         26    1.631560257618E+001                                                     F               0         ED YawBrFxp, (kN)
         27   -1.073123890477E-001                                                     F               0         ED YawBrFyp, (kN)
         28   -3.323400893507E+003                                                     F               0         ED YawBrFzp, (kN)
         29   -1.123713262316E+000                                                     F               0         ED YawBrMxp, (kN-m)
         30   -2.235840078581E+002                                                     F               0         ED YawBrMyp, (kN-m)
         31    5.820784931823E-014                                                     F               0         ED YawBrMzp, (kN-m)
         32   -6.876051789330E-014                                                     F               0         SD M2N1MKxe, (N*m)
         33    7.503034480461E-010                                                     F               0         SD M2N1MKye, (N*m)
         34    6.875997555243E-014                                                     F               0         SD M1N1MKxe, (N*m)
         35   -7.502975301119E-010                                                     F               0         SD M1N1MKye, (N*m)
         36   -1.500373092710E-010                                                     F               0         SD -ReactFXss, (N)
         37   -1.374996092002E-014                                                     F               0         SD -ReactFYss, (N)
         38   -8.298277330838E+006                                                     F               0         SD -ReactFZss, (N)
         39   -6.873384652851E-014                                                     F               0         SD -ReactMXss, (N*m)
         40    7.500124145057E-010                                                     F               0         SD -ReactMYss, (N*m)
         41    0.000000000000E+000                                                     F               0         SD -ReactMZss, (N*m)


Linearized state matrices:

A: 44 x 44
    0.000000000000E+000  0.000000000000E+000  0.000000000000E+000  0.000000000000E+000  0.000000000000E+000  0.000000000000E+000  0.000000000000E+000  0.000000000000E+000  0.000000000000E+000  0.000000000000E+000  0.000000000000E+000  0.000000000000E+000  0.000000000000E+000  0.000000000000E+000  0.000000000000E+000  0.000000000000E+000  0.000000000000E+000  0.000000000000E+000  0.000000000000E+000  0.000000000000E+000  0.000000000000E+000  0.000000000000E+000  1.000000000000E+000  0.000000000000E+000  0.000000000000E+000  0.000000000000E+000  0.000000000000E+000  0.000000000000E+000  0.000000000000E+000  0.000000000000E+000  0.000000000000E+000  0.000000000000E+000  0.000000000000E+000  0.000000000000E+000  0.000000000000E+000  0.000000000000E+000  0.000000000000E+000  0.000000000000E+000  0.000000000000E+000  0.000000000000E+000  0.000000000000E+000  0.000000000000E+000  0.000000000000E+000  0.000000000000E+000
    0.000000000000E+000  0.000000000000E+000  0.000000000000E+000  0.000000000000E+000  0.000000000000E+000  0.000000000000E+000  0.000000000000E+000  0.000000000000E+000  0.000000000000E+000  0.000000000000E+000  0.000000000000E+000  0.000000000000E+000  0.000000000000E+000  0.000000000000E+000  0.000000000000E+000  0.000000000000E+000  0.000000000000E+000  0.000000000000E+000  0.000000000000E+000  0.000000000000E+000  0.000000000000E+000  0.000000000000E+000  0.000000000000E+000  1.000000000000E+000  0.000000000000E+000  0.000000000000E+000  0.000000000000E+000  0.000000000000E+000  0.000000000000E+000  0.000000000000E+000  0.000000000000E+000  0.000000000000E+000  0.000000000000E+000  0.000000000000E+000  0.000000000000E+000  0.000000000000E+000  0.000000000000E+000  0.000000000000E+000  0.000000000000E+000  0.000000000000E+000  0.000000000000E+000  0.000000000000E+000  0.000000000000E+000  0.000000000000E+000