# vtk DataFile Version 3.0
HighT1
ASCII
DATASET STRUCTURED_POINTS
DIMENSIONS 16 16 19
ORIGIN 929.001000000000 929.001000000000 5.001000000000
SPACING 10.000000000000 10.000000000000 10.000000000000
POINT_DATA 4864
 FIELD attributes 1
U 3 4864 float
4.027 	0.483 	0.049
 3.887 	1.042 	0.055
 4.698 	1.206 	0.288
 3.565 	0.715 	0.782
 3.471 	0.689 	0.367
 3.281 	0.455 	0.156
 3.421 	-0.199 	0.169
 4.504 	0.293 	-0.269
 4.718 	1.281 	0.321
 4.055 	0.643 	-0.089
 4.277 	2.020 	0.233
 4.800 	0.521 	0.333
 4.535 	-0.486 	-0.047
 4.305 	-0.315 	0.318
 3.719 	-0.386 	0.156
 3.964 	-0.537 	0.332
 3.569 	0.220 	0.337
 2.826 	0.516 	0.413
 2.686 	0.387 	0.264
 3.125 	-0.235 	0.222
 3.704 	0.066 	0.115
 4.348 	-0.739 	0.159
 4.085 	-0.568 	-0.315
 4.556 	0.214 	-0.513
 4.497 	1.430 	0.016
 4.792 	1.369 	0.100
 4.758 	1.440 	-0.294
 5.032 	1.046 	-0.544
 4.691 	-0.302 	-0.296
 5.213 	-0.070 	-0.018
 4.985 	-0.284 	0.177
 4.009 	0.313 	-0.121
 3.941 	0.549 	0.273
 4.322 	-0.047 	-0.370
 4.036 	0.480 	-0.124
 3.450 	0.480 	0.055
 2.961 	-0.014 	0.329
 2.293 	0.172 	0.136
 2.308 	0.012 	0.322
 3.061 	0.668 	0.027
 3.384 	1.269 	0.110
 4.061 	0.910 	-0.083
 4.269 	1.301 	-0.302
 4.764 	0.264 	-0.358
 4.109 	0.102 	0.455
 3.450 	-0.220 	0.110
 3.195 	0.217 	0.231
 3.468 	0.279 	0.282
 3.522 	0.409 	-0.066
 3.748 	-0.107 	-0.226
 3.770 	0.544 	-0.141
 4.149 	0.476 	-0.528
 4.138 	-0.200 	0.225
 3.524 	0.386 	-0.261
 3.117 	-0.411 	-0.311
 3.380 	0.201 	0.349
 3.086 	0.547 	-0.135
 2.611 	0.219 	0.163
 3.039 	1.028 	0.009
 2.617 	0.420 	0.667
 2.968 	-0.352 	0.397
 2.928 	-0.771 	0.243
 3.562 	0.003 	-0.224
 3.766 	0.106 	0.209
 3.843 	0.190 	-0.074
 3.935 	-0.831 	-0.124
 3.600 	0.108 	0.119
 2.658 	0.196 	0.444
 3.133 	0.092 	0.069
 3.132 	0.155 	-0.166
 3.211 	-0.105 	0.087
 2.791 	0.023 	0.211
 2.978 	-0.008 	0.067
 3.133 	-0.082 	0.252
 2.981 	0.379 	0.209
 3.086 	-0.142 	0.101
 2.903 	-0.391 	-0.186
 3.296 	-0.307 	-0.387
 3.092 	0.623 	-0.094
 2.913 	-0.255 	0.203
 4.764 	-0.211 	-0.071
 4.678 	-0.107 	-0.017
 3.851 	0.308 	0.035
 3.857 	-0.102 	-0.078
 3.778 	-0.580 	0.225
 4.004 	0.115 	-0.028
 4.181 	0.446 	-0.163
 4.059 	-0.205 	0.136
 3.697 	-0.695 	0.206
 3.056 	-0.753 	0.118
 3.759 	0.409 	0.002
 3.633 	-0.090 	0.177
 3.811 	0.356 	-0.085
 3.464 	-0.438 	-0.173
 2.896 	-0.154 	0.441
 3.200 	-0.701 	0.253
 4.024 	-0.372 	0.005
 4.560 	-0.181 	-0.042
 4.721 	0.506 	0.014
 5.016 	0.521 	-0.255
 4.516 	-0.281 	-0.111
 4.766 	-0.368 	0.011
 4.407 	0.223 	-0.029
 4.551 	0.061 	0.048
 4.356 	-0.253 	0.095
 3.448 	-0.254 	0.329
 3.532 	0.114 	-0.005
 3.585 	-0.059 	-0.052
 3.411 	-0.037 	0.184
 3.895 	0.430 	-0.275
 4.531 	0.061 	-0.271
 4.378 	-0.500 	-0.304
 4.644 	0.267 	-0.270
 4.486 	0.141 	-0.166
 4.684 	0.436 	-0.233
 4.583 	0.485 	-0.187
 4.375 	0.439 	0.290
 3.198 	-0.654 	0.111
 4.278 	-0.085 	-0.458
 4.842 	0.339 	-0.531
 4.641 	0.548 	-0.475
 3.727 	0.604 	0.264
 3.087 	0.189 	-0.016
 3.629 	0.218 	-0.460
 3.782 	-0.412 	-0.287
 3.958 	-0.342 	-0.447
 4.255 	0.204 	-0.224
 4.551 	-0.191 	-0.148
 3.332 	0.235 	0.556
 3.854 	0.591 	-0.078
 3.701 	0.510 	0.361
 4.101 	0.858 	0.388
 4.004 	0.565 	-0.048
 4.410 	0.147 	-0.220
 3.095 	-0.342 	0.619
 2.599 	0.759 	0.573
 3.206 	1.320 	-0.004
 3.996 	0.799 	-0.147
 3.974 	0.557 	-0.178
 4.648 	0.429 	-0.548
 4.253 	-0.219 	0.065
 3.936 	-0.175 	-0.025
 3.947 	-0.314 	0.116
 3.995 	-0.088 	0.096
 3.476 	-0.353 	0.191
 3.551 	0.261 	0.051
 3.821 	0.083 	0.257
 3.984 	0.314 	-0.203
 3.994 	-0.022 	-0.254
 4.273 	0.212 	0.271
 4.238 	0.406 	-0.188
 4.082 	0.691 	0.003
 3.451 	0.487 	0.195
 4.165 	1.166 	-0.043
 4.441 	0.883 	-0.328
 4.266 	0.722 	-0.117
 4.439 	0.229 	0.126
 3.577 	-0.127 	0.117
 3.089 	-0.527 	0.285
 3.128 	0.110 	0.112
 3.653 	-0.594 	0.158
 3.948 	0.154 	-0.038
 3.759 	-0.604 	-0.377
 3.268 	-0.135 	0.359
 3.555 	-0.345 	0.042
 3.505 	-0.128 	0.075
 4.008 	0.651 	-0.093
 4.456 	0.788 	-0.121
 4.588 	0.485 	-0.112
 4.253 	0.342 	0.162
 4.387 	1.159 	0.006
 4.394 	0.676 	-0.108
 3.994 	0.449 	-0.216
 4.161 	0.413 	0.082
 3.831 	0.353 	-0.102
 3.866 	-0.098 	-0.149
 4.091 	0.280 	-0.278
 3.670 	0.430 	-0.218
 2.973 	-0.342 	0.066
 3.183 	0.008 	0.137
 2.536 	-0.722 	0.188
 3.140 	0.037 	-0.172
 3.345 	0.591 	0.085
 3.259 	0.276 	0.206
 2.870 	-0.043 	0.329
 3.247 	-0.142 	0.036
 3.168 	0.104 	0.151
 2.966 	0.466 	0.113
 3.014 	0.357 	0.263
 2.790 	0.213 	0.327
 3.282 	0.137 	0.268
 3.584 	0.040 	0.039
 3.334 	0.766 	0.078
 3.597 	0.098 	0.279
 3.807 	0.111 	-0.624
 3.986 	-0.545 	0.034
 4.149 	-0.382 	0.323
 2.418 	0.034 	0.418
 2.779 	0.153 	0.133
 3.391 	-0.567 	0.032
 3.394 	-0.390 	0.170
 2.500 	-0.253 	0.102
 2.561 	-0.123 	0.297
 2.477 	0.256 	0.269
 2.810 	0.906 	0.238
 3.247 	-0.057 	0.008
 3.411 	-0.388 	0.029
 3.408 	-0.321 	-0.021
 3.873 	0.648 	0.274
 4.218 	0.163 	0.003
 3.611 	-0.162 	-0.148
 3.899 	-0.157 	-0.020
 3.754 	-0.273 	-0.199
 3.846 	0.286 	-0.206
 3.801 	0.123 	-0.057
 4.548 	0.341 	-0.280
 3.384 	-0.502 	0.194
 3.223 	-0.687 	-0.074
 3.517 	-0.463 	-0.224
 3.758 	-0.043 	-0.017
 3.760 	0.287 	-0.059
 4.011 	-0.143 	-0.297
 3.916 	-0.089 	-0.148
 4.160 	0.246 	-0.181
 4.041 	-0.123 	-0.185
 4.251 	0.080 	-0.098
 4.316 	0.553 	0.075
 3.522 	0.108 	0.126
 3.103 	-0.327 	0.023
 3.544 	-0.312 	0.058
 3.527 	0.197 	-0.031
 3.496 	0.354 	-0.004
 3.998 	-0.169 	-0.101
 3.755 	-0.200 	0.064
 3.590 	-0.122 	-0.091
 3.481 	-0.142 	-0.049
 3.419 	0.167 	0.033
 3.433 	0.112 	-0.068
 3.505 	0.409 	-0.086
 3.776 	0.390 	-0.249
 2.484 	-0.679 	0.049
 2.992 	-0.021 	-0.148
 3.571 	0.216 	-0.063
 3.667 	0.344 	0.178
 3.711 	-0.521 	0.033
 3.063 	-0.580 	0.125
 3.128 	-0.169 	0.275
 3.622 	0.459 	-0.167
 2.932 	-0.219 	0.112
 3.169 	-0.012 	-0.233
 3.059 	0.160 	0.097
 2.864 	0.051 	0.323
 2.624 	-0.128 	0.114
 3.090 	0.347 	0.156
 3.043 	0.286 	0.081
 2.926 	0.067 	0.220
 6.842 	0.214 	-0.166
 4.990 	0.098 	0.463
 4.400 	0.525 	1.046
 5.024 	0.988 	0.823
 5.048 	0.450 	0.529
 5.165 	0.631 	0.216
 5.209 	1.116 	0.276
 5.335 	0.231 	0.256
 5.118 	-0.294 	0.421
 5.688 	0.627 	0.174
 6.087 	1.115 	-0.007
 5.722 	1.641 	0.132
 5.446 	1.007 	0.596
 5.341 	0.209 	0.407
 5.247 	0.199 	-0.025
 5.852 	0.573 	0.053
 4.738 	0.220 	0.711
 4.121 	0.955 	0.348
 4.322 	1.045 	0.393
 4.701 	0.702 	0.469
 5.483 	0.126 	0.039
 5.963 	0.532 	-0.188
 5.680 	0.210 	0.061
 5.850 	-0.898 	-0.465
 5.184 	-0.009 	-0.260
 5.080 	0.951 	0.309
 4.912 	0.249 	0.287
 5.631 	1.453 	0.280
 5.646 	0.935 	0.301
 6.041 	0.716 	0.050
 6.055 	0.469 	-0.326
 5.896 	0.420 	-0.646
 5.491 	0.992 	0.239
 5.571 	1.134 	0.249
 5.814 	0.102 	-0.242
 5.350 	0.240 	0.362
 4.498 	-0.169 	0.809
 4.983 	0.881 	0.384
 5.164 	-0.045 	-0.149
 4.970 	0.420 	-0.191
 4.964 	-0.039 	0.127
 5.664 	0.265 	0.042
 5.120 	0.415 	-0.392
 5.563 	1.180 	0.034
 4.939 	0.303 	0.778
 5.215 	0.758 	0.061
 4.349 	-0.022 	0.132
 4.726 	0.252 	0.001
 5.027 	0.746 	0.551
 4.938 	0.156 	0.558
 5.023 	0.213 	0.307
 5.168 	0.465 	0.195
 4.027 	-0.212 	0.755
 3.851 	0.105 	0.467
 4.572 	0.498 	-0.447
 5.099 	0.815 	-0.458
 5.131 	0.093 	-0.185
 4.914 	0.174 	-0.374
 4.524 	0.357 	0.375
 3.675 	0.531 	0.617
 4.020 	0.411 	0.590
 5.406 	0.996 	-0.369
 5.493 	0.912 	0.013
 4.327 	-0.141 	0.053
 4.908 	-0.210 	0.568
 4.887 	-0.148 	0.156
 4.622 	-0.658 	0.477
 5.074 	-0.081 	0.051
 4.297 	-0.237 	0.143
 3.458 	0.043 	0.462
 3.789 	-0.010 	0.148
 4.227 	0.825 	0.195
 3.822 	-0.110 	0.199
 4.135 	0.187 	0.416
 4.305 	0.200 	0.312
 4.174 	0.441 	-0.106
 4.082 	0.505 	-0.011
 3.732 	0.347 	0.060
 3.952 	0.455 	0.006
 4.403 	-0.335 	-0.037
 5.231 	-0.085 	0.203
 4.863 	0.117 	0.258
 5.330 	-0.061 	0.130
 5.168 	0.086 	0.219
 5.245 	-0.394 	0.539
 5.308 	-0.438 	0.118
 5.331 	-0.043 	0.060
 5.645 	0.533 	0.098
 5.230 	-0.185 	-0.096
 4.485 	-0.512 	0.535
 4.616 	-0.097 	0.190
 4.645 	0.503 	0.475
 4.557 	0.643 	0.003
 4.461 	0.620 	-0.294
 4.187 	0.273 	0.319
 4.345 	-0.140 	0.397
 5.558 	0.090 	0.148
 5.393 	-0.648 	-0.205
 4.989 	-0.250 	-0.105
 5.508 	-0.058 	-0.070
 5.583 	-0.279 	-0.090
 5.734 	-0.083 	-0.414
 5.672 	-0.184 	-0.455
 5.974 	0.074 	-0.133
 6.241 	0.211 	-0.556
 5.613 	-0.048 	-0.167
 5.496 	-0.203 	0.431
 4.652 	0.295 	0.237
 4.469 	-0.329 	0.578
 4.882 	0.194 	-0.214
 5.080 	0.969 	-0.692
 5.053 	0.383 	-0.618
 5.177 	-0.252 	-0.701
 4.632 	-0.485 	-0.148
 4.299 	-0.574 	0.078
 4.799 	-0.263 	-0.100
 5.168 	0.108 	-0.494
 5.214 	-0.380 	-0.176
 5.345 	-0.469 	-0.076
 5.529 	-0.127 	-0.478
 5.393 	0.518 	-0.187
 5.307 	0.620 	0.163
 5.365 	0.285 	-0.248
 5.131 	0.090 	0.003
 5.291 	0.229 	-0.130
 4.786 	0.102 	0.014
 4.378 	0.214 	0.305
 4.883 	0.676 	0.002
 3.805 	-0.826 	1.087
 3.963 	-0.717 	0.435
 3.897 	-0.798 	0.156
 3.287 	-0.795 	-0.037
 3.672 	0.051 	0.502
 4.201 	-0.998 	-0.476
 4.506 	-0.248 	0.197
 5.195 	-0.254 	0.071
 5.141 	0.154 	-0.203
 5.161 	0.586 	-0.325
 5.023 	0.141 	-0.408
 4.832 	-0.314 	-0.596
 4.974 	0.339 	-0.006
 4.573 	0.637 	0.117
 4.207 	-0.547 	0.677
 4.562 	-0.143 	0.035
 4.945 	-0.475 	0.551
 4.549 	-1.105 	0.423
 4.016 	-0.551 	0.530
 3.662 	-0.560 	0.308
 3.878 	-0.671 	0.547
 4.491 	-0.875 	-0.302
 4.405 	-0.540 	-0.039
 4.500 	0.157 	-0.332
 4.569 	-0.142 	-0.085
 4.889 	0.269 	0.300
 4.367 	0.310 	0.252
 4.512 	0.423 	-0.746
 4.858 	0.832 	-0.216
 4.588 	0.442 	-0.272
 5.038 	0.044 	-0.067
 4.477 	-0.129 	0.060
 5.283 	-0.435 	0.288
 4.653 	-0.716 	0.157
 4.552 	-0.322 	0.306
 4.438 	-0.354 	0.049
 3.919 	-0.643 	0.079
 3.831 	-0.832 	-0.182
 4.107 	-0.423 	-0.466
 4.020 	-0.056 	0.333
 4.115 	-0.256 	0.406
 4.251 	-0.416 	0.745
 4.455 	0.345 	0.451
 3.932 	0.319 	-0.105
 4.005 	0.615 	-0.005
 4.465 	0.469 	0.251
 4.863 	0.690 	-0.444
 4.945 	0.062 	-0.202
 5.774 	-0.001 	-0.598
 5.548 	0.427 	-0.232
 4.247 	-0.004 	-0.243
 4.395 	-0.385 	0.156
 4.340 	-0.425 	0.435
 4.190 	-0.866 	0.401
 4.039 	-0.281 	-0.076
 3.407 	0.232 	0.283
 3.034 	-0.156 	0.322
 3.633 	-0.485 	0.016
 3.453 	-0.024 	0.411
 3.483 	0.067 	0.834
 3.679 	0.715 	0.376
 4.018 	0.636 	-0.210
 4.405 	0.627 	-0.238
 4.373 	0.196 	-0.218
 4.869 	0.042 	0.024
 5.260 	0.090 	-0.062
 5.201 	0.899 	-0.321
 5.594 	0.932 	-0.480
 5.344 	-0.447 	0.018
 4.922 	-0.445 	0.191
 4.049 	0.198 	0.037
 3.708 	0.276 	0.285
 3.743 	-0.355 	0.385
 3.825 	-0.023 	0.353
 3.080 	-0.039 	0.518
 3.247 	-0.079 	0.443
 3.790 	0.246 	-0.230
 4.040 	0.553 	-0.134
 4.227 	0.825 	0.013
 4.518 	0.893 	-0.648
 4.959 	-0.008 	0.323
 5.185 	0.398 	-0.180
 5.493 	0.560 	-0.209
 4.516 	0.325 	0.403
 4.448 	0.013 	0.208
 4.002 	-0.243 	0.106
 4.134 	-0.014 	-0.226
 4.528 	-0.162 	-0.268
 4.445 	-0.075 	-0.027
 4.501 	-0.372 	-0.175
 4.037 	-0.079 	0.179
 3.813 	-0.585 	0.200
 3.963 	-0.355 	0.018
 4.027 	0.670 	0.027
 4.151 	0.909 	0.065
 4.374 	0.790 	-0.379
 5.146 	0.008 	0.521
 4.832 	0.284 	0.690
 5.362 	0.815 	0.167
 4.465 	0.401 	0.461
 4.372 	-0.036 	0.129
 4.167 	-0.027 	0.165
 4.450 	-0.419 	0.030
 4.465 	-0.195 	-0.115
 4.255 	-0.017 	-0.117
 4.261 	-0.162 	-0.102
 4.169 	-0.170 	-0.002
 3.721 	-0.661 	0.193
 3.280 	-0.717 	0.103
 3.516 	-0.176 	0.225
 3.661 	0.112 	0.286
 4.261 	0.267 	0.173
 4.645 	-0.489 	0.301
 4.927 	0.090 	0.365
 4.480 	-0.086 	0.597
 4.154 	0.412 	0.558
 4.239 	-0.152 	0.327
 4.076 	-0.053 	-0.016
 3.814 	-0.657 	0.120
 4.066 	-0.247 	0.086
 3.996 	0.115 	-0.128
 3.715 	-0.148 	-0.051
 3.625 	-0.466 	0.154
 3.148 	-0.474 	0.490
 3.238 	-0.967 	0.300
 3.223 	-1.030 	0.256
 3.595 	-1.224 	0.164
 3.418 	-0.999 	0.080
 6.767 	0.186 	0.721
 6.003 	0.401 	0.280
 5.833 	-0.175 	0.289
 5.952 	0.351 	0.451
 5.839 	-0.139 	0.474
 5.946 	1.056 	0.995
 5.914 	1.134 	0.676
 6.302 	0.826 	0.059
 6.795 	-0.344 	0.068
 6.553 	-0.348 	-0.198
 6.145 	0.161 	0.179
 6.826 	1.149 	0.311
 6.588 	2.202 	0.566
 6.550 	1.107 	-0.133
 6.089 	1.554 	0.111
 5.360 	1.842 	-0.112
 5.822 	0.261 	1.432
 6.706 	0.803 	0.512
 5.620 	0.941 	0.338
 6.388 	0.060 	0.424
 6.518 	0.358 	0.252
 6.201 	0.613 	-0.138
 6.514 	0.949 	-0.054
 6.811 	0.343 	-0.845
 6.815 	0.488 	-0.471
 6.692 	0.501 	0.672
 6.181 	0.574 	0.406
 6.199 	0.051 	1.033
 6.189 	1.761 	0.834
 6.669 	0.865 	0.333
 6.648 	1.453 	0.229
 6.668 	0.504 	0.155
 6.008 	0.540 	0.623
 6.153 	0.818 	-0.003
 6.110 	0.909 	-0.122
 5.370 	-0.030 	0.761
 6.885 	0.692 	-0.160
 7.344 	0.972 	-0.885
 6.764 	0.580 	-0.478
 6.679 	0.319 	-0.604
 6.771 	0.293 	0.048
 6.912 	0.712 	0.534
 6.772 	0.091 	0.466
 5.512 	-0.135 	0.420
 5.838 	0.839 	0.443
 6.267 	1.518 	0.180
 5.569 	0.673 	0.237
 5.665 	1.035 	0.390
 5.059 	0.538 	1.102
 5.329 	0.565 	0.780
 5.688 	1.231 	1.084
 5.503 	0.589 	0.271
 5.707 	0.379 	0.588
 6.320 	0.304 	0.512
 6.448 	1.039 	-0.178
 6.555 	0.729 	0.019
 5.346 	0.454 	0.950
 4.605 	0.031 	0.201
 4.423 	-0.351 	1.006
 4.061 	0.303 	0.386
 3.821 	0.028 	0.724
 5.309 	0.442 	0.310
 5.087 	0.531 	0.464
 5.447 	0.782 	0.455
 4.908 	0.192 	1.224
 4.551 	0.792 	0.560
 5.063 	1.024 	0.216
 5.416 	0.286 	0.474
 5.648 	0.514 	0.680
 5.238 	-0.238 	0.485
 5.539 	0.777 	-0.108
 5.518 	1.394 	0.349
 4.458 	0.220 	0.624
 4.432 	-0.012 	0.534
 5.181 	-0.117 	0.684
 4.884 	-0.059 	0.754
 5.132 	-0.186 	0.200
 4.309 	-0.196 	0.367
 4.766 	-0.093 	0.588
 4.554 	0.186 	0.709
 5.004 	0.137 	0.113
 5.442 	-0.253 	0.179
 5.865 	0.809 	-0.114
 5.984 	0.133 	0.013
 5.613 	0.128 	1.019
 5.814 	0.418 	0.327
 5.655 	0.743 	0.147
 6.057 	1.291 	0.646
 5.665 	0.396 	0.553
 5.480 	0.084 	0.388
 5.317 	-0.272 	0.395
 5.334 	-0.465 	0.456
 5.568 	-0.473 	-0.023
 5.671 	-0.237 	-0.482
 5.576 	-0.035 	-0.047
 4.594 	0.580 	0.409
 5.683 	0.140 	-0.058
 6.248 	-0.532 	-0.268
 5.838 	0.322 	-0.103
 6.470 	0.079 	0.073
 5.774 	0.393 	0.225
 5.191 	-0.136 	-0.001
 5.570 	-0.613 	-0.281
 6.112 	0.209 	0.159
 6.100 	0.052 	-0.391
 5.635 	0.179 	0.098
 5.161 	-0.082 	0.772
 5.379 	-0.045 	-0.069
 5.588 	-0.361 	0.270
 5.431 	-0.155 	-0.211
 5.273 	0.270 	-0.273
 5.838 	0.030 	0.009
 6.113 	0.570 	-0.163
 6.196 	0.035 	0.038
 4.900 	-0.430 	0.160
 5.660 	-0.002 	0.315
 5.607 	0.744 	0.079
 5.012 	-0.731 	0.218
 5.361 	-0.792 	0.306
 5.387 	-0.064 	-0.339
 5.528 	0.064 	-0.401
 5.497 	0.185 	-0.031
 5.697 	0.091 	0.382
 5.691 	0.090 	-0.526
 5.429 	0.170 	0.294
 5.159 	-0.057 	-0.306
 5.250 	-0.146 	0.058
 5.468 	0.386 	-0.493
 4.122 	0.330 	0.906
 4.125 	0.198 	1.085
 4.836 	-0.927 	0.977
 4.765 	-0.914 	0.559
 4.438 	-0.785 	0.380
 4.587 	-1.087 	-0.263
 4.424 	-1.204 	0.217
 4.305 	-0.537 	0.422
 4.550 	-0.157 	0.441
 4.748 	0.066 	0.454
 5.451 	0.311 	-0.034
 5.517 	0.525 	-0.517
 5.052 	0.045 	-0.035
 4.864 	-0.010 	-0.187
 4.661 	0.300 	0.501
 4.606 	0.316 	0.655
 5.480 	0.593 	0.573
 5.231 	-0.586 	0.078
 5.717 	-0.732 	0.127
 5.391 	-0.840 	0.518
 5.617 	-0.890 	0.247
 6.055 	-0.914 	-0.164
 5.795 	-0.612 	-0.467
 4.670 	-0.636 	0.122
 3.704 	-0.865 	0.476
 3.898 	-0.656 	0.125
 4.535 	-1.227 	-0.103
 5.087 	-0.102 	-0.833
 4.980 	0.026 	-0.777
 5.185 	0.531 	-0.235
 4.873 	0.528 	-0.214
 4.689 	0.621 	-0.362
 5.612 	0.612 	0.308
 5.910 	-0.527 	0.089
 5.893 	-0.448 	0.339
 5.960 	-0.779 	0.154
 5.839 	-0.816 	0.106
 5.324 	-0.866 	-0.184
 5.431 	-0.485 	-0.335
 4.693 	-0.288 	0.288
 3.472 	-0.491 	0.633
 3.331 	-0.752 	0.432
 4.132 	-0.932 	0.038
 4.672 	-0.492 	0.301
 4.551 	0.131 	-0.611
 4.976 	0.569 	-0.472
 5.007 	0.418 	-0.212
 5.214 	0.739 	-0.612
 5.461 	-0.964 	-0.690
 5.911 	-0.626 	-0.594
 5.937 	-0.995 	-0.629
 5.854 	-0.113 	0.023
 5.398 	-0.153 	0.345
 4.940 	-0.066 	0.283
 4.344 	-0.836 	0.707
 4.533 	0.113 	0.307
 4.614 	-0.460 	0.241
 3.814 	-0.654 	0.542
 3.643 	-0.299 	0.127
 3.721 	-0.128 	0.981
 4.148 	-0.202 	0.224
 4.694 	0.315 	-0.489
 4.669 	0.479 	-0.443
 5.091 	0.558 	-0.499
 5.575 	-1.243 	-0.285
 6.088 	-0.952 	-0.459
 5.895 	-0.766 	-0.485
 5.939 	-0.630 	-0.921
 6.318 	0.357 	-0.262
 6.503 	0.164 	-0.267
 6.131 	-0.014 	-0.019
 5.022 	-0.257 	0.513
 4.440 	-0.430 	0.779
 4.071 	-0.877 	0.142
 4.049 	0.170 	0.648
 4.323 	-0.313 	0.270
 5.005 	-0.171 	0.347
 5.069 	0.682 	-0.075
 5.250 	0.183 	-0.425
 5.230 	0.482 	-0.763
 5.270 	-1.041 	0.075
 5.311 	-0.728 	0.260
 4.920 	-0.570 	-0.026
 5.188 	-0.280 	-0.069
 5.249 	0.366 	0.469
 6.011 	0.511 	0.457
 6.057 	0.823 	0.090
 5.898 	0.227 	0.299
 5.370 	-0.349 	0.386
 4.384 	0.044 	-0.090
 3.859 	0.027 	0.715
 4.274 	-0.008 	0.619
 4.397 	-0.086 	0.465
 4.728 	-0.115 	0.275
 4.792 	0.171 	0.247
 5.086 	0.382 	-0.145
 4.954 	-1.077 	0.380
 4.973 	-0.491 	0.350
 4.860 	-0.443 	0.179
 5.043 	0.146 	0.406
 4.689 	0.025 	0.793
 4.996 	0.020 	0.268
 4.929 	0.006 	0.436
 5.402 	-0.155 	-0.253
 4.882 	0.196 	0.044
 4.440 	0.187 	-0.272
 4.306 	-0.047 	0.164
 4.491 	-0.474 	-0.038
 4.203 	-0.237 	0.130
 3.928 	-0.605 	0.376
 4.098 	-0.185 	0.554
 4.512 	0.320 	0.413
 5.007 	-0.902 	0.630
 4.288 	-0.334 	0.441
 4.230 	-0.341 	0.262
 4.524 	0.298 	0.925
 4.612 	0.083 	0.863
 4.282 	-0.185 	0.404
 4.373 	-0.365 	0.320
 4.541 	-0.166 	0.243
 4.760 	0.287 	-0.207
 4.654 	0.509 	0.154
 4.829 	0.019 	0.173
 4.271 	-0.291 	0.428
 4.306 	0.219 	0.217
 4.136 	0.248 	-0.060
 3.715 	0.025 	0.293
 3.808 	-0.215 	0.480
 6.576 	-0.651 	0.794
 7.489 	0.305 	0.203
 5.630 	0.137 	0.874
 5.422 	0.634 	0.829
 5.699 	0.243 	0.242
 5.752 	1.037 	0.373
 5.773 	1.429 	0.594
 6.846 	0.367 	-0.237
 7.515 	-0.133 	-0.481
 7.503 	0.185 	-0.324
 7.240 	-0.353 	0.038
 7.339 	0.640 	0.458
 7.638 	0.778 	-0.097
 7.729 	1.603 	0.493
 7.476 	0.592 	0.182
 7.035 	1.245 	0.692
 6.130 	-0.401 	0.601
 6.375 	0.381 	0.153
 6.844 	0.711 	0.420
 6.771 	0.476 	0.254
 6.587 	0.691 	0.211
 7.018 	0.565 	-0.318
 7.531 	0.821 	0.132
 7.119 	0.255 	-0.701
 5.954 	-0.352 	0.528
 5.692 	0.233 	-0.412
 6.316 	-0.366 	0.280
 6.837 	0.338 	1.365
 6.581 	0.954 	0.701
 7.386 	1.128 	0.329
 6.518 	0.560 	0.456
 6.846 	1.388 	0.752
 6.434 	-0.591 	-0.208
 6.668 	0.175 	-0.206
 6.623 	0.819 	0.163
 6.924 	0.748 	-0.096
 6.830 	0.414 	-0.599
 6.946 	0.386 	-0.822
 6.954 	0.816 	-0.750
 7.228 	0.666 	-0.975
 6.533 	-0.312 	0.917
 5.612 	0.232 	0.622
 5.532 	-0.215 	1.148
 5.354 	0.293 	0.439
 6.370 	1.148 	0.870
 5.977 	0.639 	0.634
 5.944 	0.622 	0.487
 5.528 	-0.373 	0.426
 5.932 	-0.128 	0.574
 5.759 	0.622 	0.317
 5.574 	0.091 	0.838
 6.624 	0.990 	0.553
 7.215 	0.802 	0.334
 7.334 	0.713 	0.515
 6.987 	0.881 	0.101
 6.289 	0.889 	1.010
 5.833 	0.319 	0.661
 4.821 	0.448 	0.692
 4.443 	0.074 	0.844
 4.216 	-0.131 	0.797
 4.396 	0.451 	0.786
 4.842 	-0.064 	0.644
 5.646 	0.966 	0.106
 4.859 	-0.214 	0.425
 5.158 	1.349 	1.010
 5.667 	0.853 	0.065
 5.697 	0.871 	-0.301
 5.911 	0.336 	0.436
 6.153 	0.593 	0.919
 6.532 	0.371 	1.267
 6.949 	1.215 	0.196
 6.294 	0.976 	0.858
 5.708 	0.820 	0.982
 4.894 	0.091 	0.998
 4.870 	0.334 	0.427
 4.929 	0.106 	0.502
 5.083 	0.120 	0.851
 4.690 	-0.510 	0.975
 4.367 	0.087 	1.036
 4.795 	0.120 	0.718
 5.055 	1.520 	0.270
 5.240 	0.375 	0.313
 6.135 	-0.249 	-0.071
 6.385 	0.118 	-0.174
 6.209 	0.269 	0.334
 6.679 	-0.059 	-0.244
 6.548 	1.115 	0.596
 6.159 	1.033 	1.336
 5.711 	0.256 	1.001
 5.652 	-0.044 	0.521
 5.717 	-0.010 	0.585
 5.722 	0.027 	0.663
 5.903 	-0.462 	0.065
 5.593 	-0.518 	0.101
 5.341 	-0.109 	0.196
 6.113 	-0.122 	0.165
 5.859 	0.341 	0.171
 6.088 	0.345 	0.161
 6.588 	0.110 	0.523
 5.980 	-0.113 	0.334
 6.133 	0.622 	0.454
 5.746 	0.208 	0.868
 5.659 	0.816 	0.433
 6.326 	0.812 	0.318
 6.529 	0.443 	-0.386
 6.390 	-0.183 	0.184
 6.152 	-0.137 	0.429
 6.341 	0.017 	-0.435
 6.252 	-0.273 	0.165
 6.020 	-0.097 	-0.165
 5.583 	-0.292 	-0.182
 5.776 	-0.367 	-0.495
 6.340 	-0.207 	-0.112
 6.652 	0.478 	-0.074
 5.158 	-0.370 	1.110
 4.334 	-1.082 	1.141
 5.140 	-0.200 	0.981
 5.558 	0.865 	0.622
 5.357 	-0.318 	0.555
 6.201 	-0.514 	-0.479
 6.256 	-0.396 	-0.224
 6.133 	0.028 	0.249
 6.123 	0.199 	0.330
 6.009 	-0.025 	-0.376
 5.988 	0.101 	0.350
 5.638 	0.013 	0.044
 5.690 	-0.361 	-0.233
 5.031 	-0.238 	-0.321
 4.360 	-0.012 	1.163
 3.910 	0.416 	1.223
 4.083 	-0.471 	0.817
 4.873 	-0.646 	0.210
 4.947 	-0.754 	0.098
 5.148 	0.136 	-0.055
 4.854 	-0.799 	0.166
 5.022 	-1.327 	0.812
 5.743 	-0.281 	0.285
 5.863 	-0.009 	0.088
 5.288 	0.058 	-0.196
 5.239 	0.040 	-0.435
 5.464 	0.207 	0.126
 5.397 	-0.157 	0.017
 4.789 	0.308 	0.382
 5.444 	-0.277 	-0.303
 5.260 	0.812 	0.625
 5.280 	0.775 	0.124
 4.758 	0.148 	-0.121
 4.900 	-0.214 	-0.399
 5.352 	-0.267 	-0.066
 5.499 	-0.703 	-0.144
 5.685 	-0.767 	-0.046
 5.518 	-0.775 	0.307
 4.615 	-0.610 	0.450
 4.705 	0.013 	0.109
 4.939 	0.031 	0.132
 5.045 	0.206 	0.043
 5.231 	-0.485 	-0.122
 5.223 	0.197 	-0.074
 5.662 	0.426 	-0.144
 5.806 	0.225 	-0.434
 5.768 	0.841 	0.472
 5.289 	0.552 	0.098
 6.011 	0.136 	-0.212
 6.136 	-0.485 	0.299
 6.409 	-0.137 	-0.815
 6.214 	-0.254 	0.111
 5.544 	-0.098 	-0.044
 5.115 	-0.395 	1.204
 4.790 	-0.868 	0.438
 4.813 	-0.287 	0.203
 5.472 	-0.289 	-0.388
 5.506 	-0.401 	-0.505
 5.481 	-0.554 	-0.291
 5.259 	-0.300 	-0.375
 5.586 	0.207 	-0.044
 5.621 	0.002 	-0.289
 5.570 	0.151 	0.120
 6.178 	0.178 	0.029
 6.157 	0.004 	-0.123
 6.470 	-0.041 	0.119
 6.580 	-0.444 	-0.105
 5.900 	-0.209 	0.468
 5.754 	0.461 	0.154
 5.747 	-0.120 	0.834
 5.529 	-0.488 	0.725
 4.391 	-0.192 	0.758
 4.967 	-0.744 	0.316
 5.592 	-0.028 	0.224
 5.791 	-0.411 	-0.598
 5.515 	-0.697 	0.194
 5.695 	-0.144 	-0.698
 5.399 	-0.090 	-0.235
 5.699 	-0.259 	0.264
 6.020 	-0.526 	-0.169
 6.185 	-0.663 	-0.936
 5.985 	-0.858 	-0.347
 5.803 	-0.505 	-0.543
 5.556 	0.250 	-0.078
 6.513 	0.278 	-0.372
 5.996 	0.134 	0.406
 5.852 	-0.262 	0.658
 5.413 	-0.158 	0.547
 5.918 	-0.922 	0.034
 6.125 	-0.840 	0.083
 5.675 	-0.284 	-0.438
 5.430 	-0.179 	0.132
 5.686 	-0.382 	-0.210
 5.968 	0.005 	-0.928
 5.572 	-0.727 	-0.056
 5.576 	-0.953 	0.026
 5.066 	-0.794 	0.161
 4.975 	-0.294 	-0.118
 5.049 	-0.508 	-0.179
 5.144 	-0.051 	0.044
 5.662 	-0.092 	-0.283
 6.154 	0.523 	0.360
 6.621 	-0.040 	0.789
 5.909 	-0.513 	0.081
 5.917 	-0.032 	0.218
 5.363 	-0.559 	0.229
 4.662 	0.162 	0.450
 5.186 	-0.120 	0.307
 5.549 	-0.444 	0.078
 5.472 	-0.107 	-0.181
 5.412 	-1.073 	0.188
 5.204 	-0.609 	0.314
 4.807 	-0.543 	-0.021
 4.388 	-0.583 	0.639
 4.534 	-0.102 	0.929
 5.034 	-0.611 	0.582
 5.294 	-0.211 	0.589
 5.745 	0.418 	0.386
 6.084 	0.447 	0.155
 6.272 	0.210 	-0.305
 5.993 	0.399 	0.070
 4.685 	-0.330 	0.618
 4.481 	-0.084 	0.549
 4.800 	-1.144 	0.386
 4.772 	-0.234 	0.457
 4.782 	-0.305 	0.514
 5.431 	-0.721 	0.328
 4.562 	-0.395 	0.496
 4.690 	-0.337 	0.566
 4.380 	-0.210 	0.554
 4.537 	-0.008 	0.293
 4.438 	0.115 	0.263
 4.309 	-0.518 	0.138
 4.670 	-0.355 	-0.113
 4.812 	-0.179 	-0.089
 4.645 	0.113 	-0.005
 5.048 	0.197 	0.160
 5.269 	-0.065 	0.213
 5.112 	0.089 	0.134
 4.823 	-0.611 	0.030
 4.375 	-0.493 	0.730
 4.284 	-0.146 	0.724
 6.832 	-0.528 	0.483
 6.858 	-0.108 	0.417
 6.829 	-0.364 	0.357
 6.944 	-0.017 	0.076
 6.594 	0.072 	0.116
 7.067 	-0.081 	0.352
 7.297 	0.352 	0.101
 7.107 	0.363 	0.098
 7.457 	-0.578 	-0.678
 8.327 	0.139 	-0.362
 7.988 	0.249 	0.105
 8.344 	0.666 	0.301
 8.823 	1.054 	0.464
 7.462 	0.590 	0.780
 7.465 	0.800 	0.622
 7.907 	1.094 	0.553
 6.948 	-0.510 	0.063
 6.977 	0.109 	0.288
 6.773 	-0.256 	0.038
 6.603 	0.358 	0.302
 7.026 	0.236 	0.192
 6.347 	-0.532 	-0.201
 6.687 	0.203 	0.271
 7.082 	0.607 	-0.275
 7.475 	-0.756 	0.438
 6.628 	0.413 	0.168
 6.373 	0.069 	1.033
 6.504 	0.550 	1.527
 6.023 	0.819 	0.864
 5.895 	0.189 	0.605
 6.335 	0.946 	0.542
 6.829 	1.220 	0.741
 6.104 	-0.637 	0.166
 6.254 	-0.149 	-0.228
 6.440 	0.314 	0.150
 6.899 	0.537 	-0.001
 6.718 	0.145 	-0.730
 6.375 	-0.284 	-0.324
 6.227 	-0.462 	-0.718
 6.548 	0.467 	0.096
 5.371 	-0.053 	0.979
 4.895 	-0.155 	1.245
 6.011 	-0.119 	1.058
 5.566 	0.600 	0.872
 5.570 	-0.046 	0.787
 5.598 	0.300 	1.033
 5.655 	0.518 	0.918
 6.413 	0.772 	0.881
 6.160 	-0.804 	0.138
 5.523 	-0.098 	0.208
 6.204 	0.100 	-0.086
 6.541 	-0.187 	1.226
 7.377 	0.026 	0.678
 5.983 	-0.217 	0.280
 6.801 	-0.365 	0.121
 5.974 	0.523 	0.292
 6.094 	0.234 	1.696
 6.192 	0.618 	1.113
 4.567 	-0.119 	0.788
 4.774 	0.168 	1.014
 4.906 	-0.221 	1.077
 5.430 	-0.022 	0.330
 5.655 	0.394 	0.681
 5.856 	-0.505 	0.266
 5.448 	0.160 	0.711
 5.555 	-0.089 	0.092
 6.631 	0.064 	-0.106
 6.056 	-0.209 	-0.236
 6.486 	0.228 	0.880
 7.063 	-0.273 	0.461
 6.185 	0.430 	-0.017
 5.927 	0.789 	1.259
 5.520 	0.825 	1.638
 5.245 	0.289 	1.028
 5.449 	0.234 	0.720
 4.715 	0.165 	0.670
 4.691 	0.100 	0.752
 4.695 	0.136 	0.812
 5.282 	-0.539 	0.895
 5.769 	-0.923 	0.476
 5.366 	0.109 	1.159
 5.790 	0.083 	0.205
 5.979 	-0.539 	-0.157
 6.152 	-0.554 	-0.001
 6.194 	0.643 	0.365
 6.106 	-0.356 	-0.068
 5.940 	1.113 	0.645
 5.740 	1.332 	1.682
 6.264 	1.276 	0.929
 6.111 	0.128 	0.972
 6.041 	0.141 	1.037
 6.087 	-0.231 	0.554
 6.014 	-0.387 	0.178
 6.265 	0.057 	-0.001
 5.967 	-0.404 	0.086
 6.048 	-0.801 	0.054
 6.282 	-0.039 	-0.084
 6.012 	-0.501 	0.225
 6.009 	-0.185 	0.399
 6.500 	-0.305 	0.188
 6.114 	0.213 	0.090
 5.254 	0.005 	0.898
 5.113 	0.360 	0.965
 5.900 	0.530 	0.523
 6.974 	0.320 	0.424
 6.970 	0.044 	0.369
 6.982 	0.188 	0.277
 6.770 	0.107 	0.059
 6.412 	-0.424 	0.010
 6.179 	-0.222 	0.114
 6.251 	-0.373 	-0.003
 6.475 	-0.603 	-0.353
 5.589 	-0.384 	-0.173
 5.650 	-0.551 	0.571
 5.354 	-0.151 	1.808
 5.753 	0.935 	1.300
 5.381 	0.602 	1.114
 5.521 	0.371 	1.076
 5.654 	0.019 	0.342
 6.061 	-1.160 	-0.018
 5.912 	-0.489 	0.599
 6.274 	-0.193 	0.637
 6.288 	0.296 	0.219
 6.393 	-0.038 	-0.115
 5.968 	-0.345 	0.059
 5.904 	-0.732 	0.407
 5.936 	-1.017 	-0.258
 6.880 	-1.165 	-0.536
 5.966 	-0.439 	0.272
 5.843 	0.004 	1.193
 5.402 	0.225 	0.484
 5.115 	0.619 	0.222
 5.305 	0.145 	0.153
 5.316 	0.252 	-0.142
 5.545 	-0.159 	0.214
 5.710 	-1.630 	0.432
 6.240 	-0.859 	-0.216
 5.959 	-0.274 	0.297
 5.771 	0.201 	-0.022
 5.923 	0.258 	-0.149
 5.868 	-0.219 	0.351
 6.277 	-0.692 	-0.025
 6.707 	-0.612 	-0.492
 6.868 	-0.883 	-0.699
 5.691 	-0.207 	0.026
 5.784 	0.562 	0.755
 5.453 	0.485 	0.302
 5.816 	0.015 	-0.395
 5.336 	0.283 	-0.136
 5.376 	0.128 	-0.275
 6.135 	-0.935 	-0.015
 6.093 	-0.487 	-0.169
 4.966 	-0.737 	0.963
 5.140 	-0.149 	0.270
 5.207 	0.254 	0.016
 5.461 	-0.125 	-0.254
 5.713 	-0.552 	-0.129
 6.309 	-0.621 	-0.498
 6.751 	-0.426 	-0.612
 6.903 	-0.254 	-0.658
 5.681 	0.038 	0.114
 6.010 	0.519 	0.201
 6.593 	-0.154 	-0.585
 6.840 	-0.450 	-0.042
 6.305 	0.358 	0.149
 6.550 	-0.374 	0.072
 6.074 	-0.384 	0.178
 5.850 	-0.376 	0.999
 6.321 	-0.440 	0.860
 6.022 	-0.320 	0.481
 5.698 	-0.190 	-0.113
 5.888 	-0.025 	-0.381
 6.114 	-0.281 	-0.507
 5.679 	-0.659 	-0.148
 6.036 	-0.162 	-0.294
 6.027 	0.046 	-0.324
 6.430 	0.295 	0.045
 6.157 	-0.379 	0.208
 6.361 	-0.369 	-0.095
 6.166 	-0.563 	-0.044
 6.383 	-0.192 	-0.132
 6.655 	-0.317 	-0.036
 6.213 	-0.151 	-0.027
 5.863 	0.372 	0.692
 5.985 	-0.342 	0.887
 6.165 	-0.132 	0.217
 5.759 	-0.589 	0.441
 6.101 	-0.569 	0.203
 6.411 	-0.227 	-0.288
 6.293 	-0.361 	-0.189
 5.799 	0.028 	-0.010
 5.819 	-0.064 	-0.047
 5.736 	0.451 	0.216
 5.773 	-0.678 	0.416
 6.126 	-0.445 	0.338
 5.862 	-0.412 	0.313
 5.817 	-0.584 	-0.104
 5.905 	-0.313 	-0.006
 6.383 	-0.088 	-0.226
 6.476 	0.431 	0.079
 6.252 	0.195 	0.584
 6.689 	-0.230 	0.718
 6.504 	-0.582 	0.324
 5.902 	-0.884 	0.144
 6.032 	-0.364 	-0.494
 6.180 	-0.424 	0.022
 5.753 	-0.307 	-0.059
 5.734 	-0.499 	-0.460
 5.673 	0.458 	0.450
 5.909 	-0.676 	-0.402
 6.145 	-0.909 	-0.127
 6.054 	-0.164 	-0.042
 5.414 	-0.957 	-0.314
 5.728 	-1.157 	0.406
 5.871 	-0.786 	-0.504
 5.873 	0.620 	-0.086
 5.906 	0.462 	0.763
 6.284 	-0.353 	0.099
 5.668 	-0.309 	0.070
 5.136 	-0.454 	0.343
 5.101 	-0.374 	0.323
 5.022 	-0.779 	0.521
 5.206 	-0.744 	-0.226
 5.479 	-0.874 	-0.055
 5.084 	0.382 	-0.048
 5.821 	-0.566 	0.649
 5.103 	-0.299 	0.549
 4.742 	-0.206 	0.753
 5.288 	-0.203 	0.046
 5.489 	-0.689 	-0.962
 5.526 	-0.660 	0.526
 5.538 	0.393 	0.141
 5.505 	0.423 	0.130
 5.322 	-0.110 	0.209
 5.098 	0.097 	0.314
 4.642 	-0.265 	0.631
 4.783 	-0.485 	0.703
 4.801 	-0.719 	0.322
 5.130 	-0.639 	0.184
 5.150 	-0.540 	0.061
 6.124 	0.406 	0.102
 5.674 	-0.603 	0.661
 5.702 	-0.978 	1.180
 5.898 	-0.854 	0.879
 5.460 	0.022 	0.166
 4.970 	-0.068 	-0.166
 5.502 	-0.566 	-0.297
 5.737 	-0.605 	-0.006
 6.075 	0.395 	0.632
 5.430 	-0.446 	0.161
 5.308 	-0.167 	0.122
 5.460 	-0.038 	0.073
 5.328 	-0.599 	0.016
 5.000 	-0.362 	0.089
 4.763 	-0.465 	0.976
 4.694 	-0.334 	0.632
 7.134 	-1.017 	0.554
 7.189 	-0.447 	0.577
 6.802 	-0.583 	0.372
 6.587 	-0.084 	0.776
 6.721 	-0.522 	-0.280
 7.128 	-0.196 	0.656
 7.266 	0.590 	0.376
 7.215 	-0.529 	0.046
 7.202 	-0.953 	-0.369
 8.235 	0.500 	-0.797
 7.776 	0.564 	0.628
 8.336 	0.740 	0.301
 8.301 	0.453 	1.045
 7.707 	0.427 	0.680
 7.841 	0.698 	0.973
 7.646 	1.236 	0.748
 6.382 	-0.804 	0.195
 6.632 	-0.137 	0.311
 6.759 	-0.335 	0.223
 6.401 	-0.043 	-0.106
 6.318 	-0.295 	-0.329
 6.279 	0.228 	-0.501
 6.677 	0.419 	0.414
 6.519 	-0.265 	-0.185
 7.109 	-0.566 	0.015
 7.182 	-0.204 	-0.011
 7.184 	0.191 	1.642
 6.317 	-0.298 	1.064
 7.176 	0.660 	1.307
 6.842 	0.835 	0.846
 6.329 	0.440 	0.646
 6.602 	0.945 	0.701
 6.276 	-0.560 	0.007
 6.419 	-0.625 	-0.298
 6.705 	-0.826 	-0.045
 6.589 	-0.616 	0.283
 6.698 	0.126 	-0.568
 6.499 	0.005 	0.157
 6.591 	-0.541 	-0.261
 6.222 	-0.185 	-0.540
 6.789 	-0.230 	0.249
 6.924 	0.275 	1.174
 6.033 	-0.018 	1.414
 5.536 	-0.221 	1.466
 5.952 	0.969 	1.010
 5.939 	0.767 	0.853
 6.009 	0.335 	0.919
 6.675 	0.516 	0.839
 5.981 	-0.708 	0.097
 6.168 	-0.761 	-0.235
 5.907 	-0.687 	0.095
 6.312 	-1.077 	1.022
 6.576 	-0.325 	0.418
 6.817 	-0.051 	0.188
 6.434 	-0.174 	-0.129
 5.953 	0.518 	1.171
 6.265 	1.149 	1.058
 5.583 	0.641 	1.577
 5.642 	-0.271 	1.023
 5.872 	-0.644 	1.103
 5.399 	0.382 	0.734
 6.433 	0.460 	0.588
 6.400 	0.448 	0.645
 5.832 	-0.218 	0.931
 6.568 	-0.402 	0.148
 6.014 	-0.972 	-0.179
 5.877 	-0.447 	-0.116
 5.925 	-1.119 	0.033
 5.929 	-0.587 	-0.143
 6.353 	-0.230 	0.382
 6.683 	0.077 	0.389
 6.032 	1.085 	1.287
 5.212 	0.707 	1.526
 6.038 	0.188 	0.843
 6.272 	-0.412 	0.485
 6.242 	0.016 	0.875
 6.053 	-0.578 	0.581
 5.810 	0.312 	0.543
 6.344 	1.339 	0.727
 6.108 	-0.394 	0.284
 6.402 	-0.564 	0.675
 6.802 	0.094 	0.166
 6.289 	-0.449 	-0.083