# vtk DataFile Version 3.0
HighT1
ASCII
DATASET STRUCTURED_POINTS
DIMENSIONS 16 16 19
ORIGIN 929.001000000000 929.001000000000 5.001000000000
SPACING 10.000000000000 10.000000000000 10.000000000000
POINT_DATA 4864
FIELD attributes 1
U 3 4864 float
1.970 	0.817 	0.907
 2.300 	0.794 	1.129
 2.400 	0.638 	0.472
 3.297 	-0.468 	0.166
 3.670 	-1.010 	-0.242
 3.043 	-0.624 	0.195
 2.999 	-0.216 	0.107
 3.202 	0.027 	0.270
 3.304 	0.184 	0.235
 3.447 	-0.137 	0.203
 3.310 	-0.510 	0.168
 3.363 	-0.564 	-0.069
 3.577 	-0.464 	-0.006
 3.681 	-0.571 	0.064
 3.905 	-0.295 	0.169
 4.061 	-0.479 	0.016
 3.765 	0.560 	-0.303
 3.254 	0.180 	-0.330
 3.460 	0.047 	-0.732
 4.280 	-0.631 	-0.451
 4.664 	-0.296 	-0.318
 4.732 	0.406 	-0.469
 4.489 	-0.292 	0.265
 4.332 	-0.320 	0.102
 3.349 	0.027 	-0.033
 3.046 	-0.041 	0.008
 3.044 	-0.371 	-0.042
 3.498 	-0.323 	-0.254
 3.611 	-1.069 	0.044
 4.510 	-1.129 	-0.130
 5.156 	-0.471 	-0.372
 5.088 	-0.724 	-0.190
 3.682 	0.281 	0.018
 3.708 	0.513 	-0.257
 3.965 	0.388 	-0.305
 4.093 	0.436 	-0.205
 3.796 	0.063 	0.169
 4.207 	0.092 	0.034
 4.755 	1.113 	0.037
 2.984 	0.080 	0.533
 3.174 	0.292 	0.334
 3.817 	-0.688 	0.488
 3.996 	-1.130 	0.222
 3.989 	-1.230 	0.026
 4.592 	-0.724 	0.019
 4.565 	-0.757 	-0.076
 3.237 	-0.834 	0.104
 3.045 	-0.157 	0.300
 4.005 	0.489 	0.269
 3.215 	0.089 	0.186
 3.410 	0.339 	0.032
 4.192 	0.396 	-0.249
 4.901 	0.422 	-0.532
 5.148 	0.109 	-0.377
 4.687 	0.381 	0.130
 5.337 	1.077 	-0.072
 5.097 	0.690 	-0.248
 5.264 	-0.105 	-0.034
 5.312 	-0.844 	0.014
 5.133 	-1.151 	0.203
 3.980 	-0.927 	-0.141
 3.466 	-1.151 	-0.046
 3.700 	-0.084 	-0.087
 2.945 	-0.439 	0.749
 3.390 	0.501 	0.258
 3.370 	0.016 	0.208
 3.056 	-0.158 	0.191
 3.176 	0.131 	0.127
 3.540 	0.590 	-0.049
 4.299 	0.805 	-0.422
 4.891 	0.703 	-0.120
 5.116 	0.865 	-0.017
 5.317 	0.342 	-0.029
 5.359 	-0.045 	-0.138
 4.511 	-0.222 	-0.115
 4.038 	-0.524 	0.036
 3.129 	-1.103 	0.014
 2.014 	0.150 	0.210
 2.822 	-0.280 	0.558
 4.357 	-1.339 	0.133
 3.696 	-0.217 	-0.096
 3.670 	-0.371 	-0.083
 3.594 	-0.107 	-0.134
 3.679 	-0.118 	-0.197
 3.800 	0.133 	-0.013
 4.025 	0.452 	0.019
 4.486 	0.668 	-0.035
 4.787 	0.696 	-0.004
 4.924 	0.129 	0.018
 4.712 	-0.134 	-0.187
 4.639 	0.198 	-0.052
 4.311 	0.073 	0.085
 4.413 	0.156 	-0.081
 5.105 	0.011 	-0.445
 5.355 	-1.030 	-0.412
 5.887 	-1.032 	-0.572
 2.532 	-0.062 	0.199
 2.603 	-0.077 	0.311
 2.912 	-0.254 	0.304
 3.479 	-0.392 	0.286
 3.860 	-0.567 	0.357
 3.897 	-0.370 	0.390
 4.171 	0.139 	0.177
 4.356 	0.233 	0.100
 4.587 	0.024 	0.100
 4.686 	0.114 	0.099
 4.588 	-0.657 	0.207
 4.897 	-0.712 	0.192
 4.998 	-0.501 	0.169
 5.359 	-0.373 	-0.132
 5.725 	-0.085 	-0.459
 5.905 	-0.982 	-0.138
 3.888 	0.421 	-0.343
 4.147 	0.059 	-0.317
 4.492 	-0.235 	-0.270
 4.635 	-0.279 	-0.250
 4.965 	-0.174 	-0.179
 5.139 	-0.036 	-0.095
 5.415 	0.208 	-0.191
 5.811 	-0.032 	-0.033
 5.407 	-0.246 	0.214
 5.341 	-0.379 	-0.058
 5.582 	-0.662 	-0.351
 5.813 	-0.572 	-0.346
 6.346 	-0.185 	-0.348
 5.995 	-0.247 	-0.333
 5.525 	-0.095 	-0.230
 6.429 	-0.665 	-0.298
 4.053 	0.428 	0.008
 4.427 	0.587 	-0.212
 4.503 	0.066 	-0.188
 4.531 	-0.149 	-0.073
 4.634 	-0.316 	-0.026
 5.059 	-0.031 	-0.109
 5.459 	-0.097 	-0.040
 5.337 	0.194 	0.010
 4.993 	-0.176 	0.141
 5.005 	-0.476 	-0.286
 5.209 	-0.120 	-0.420
 5.400 	-0.100 	-0.206
 5.258 	-0.286 	-0.084
 5.554 	-0.079 	0.065
 5.673 	-0.523 	-0.328
 4.542 	0.407 	0.624
 3.290 	-0.324 	0.274
 3.676 	0.322 	-0.105
 4.472 	0.071 	-0.262
 5.013 	0.089 	-0.362
 4.473 	0.089 	-0.019
 5.104 	-0.341 	0.054
 5.694 	-0.129 	-0.170
 5.473 	-0.095 	0.099
 4.942 	-0.211 	0.078
 4.125 	-0.037 	-0.071
 4.138 	0.368 	-0.126
 4.127 	-0.305 	0.129
 4.792 	-0.322 	0.170
 5.506 	0.045 	-0.245
 5.295 	0.383 	-0.489
 5.398 	1.435 	0.170
 4.372 	-0.336 	0.486
 3.267 	0.081 	0.026
 3.960 	-0.334 	-0.069
 4.861 	0.290 	-0.232
 4.809 	0.316 	0.011
 4.353 	-0.127 	0.327
 4.133 	-0.133 	0.222
 3.831 	-0.325 	0.315
 3.891 	-0.505 	0.179
 3.958 	-0.463 	0.301
 4.155 	-0.412 	0.200
 4.997 	-0.404 	0.045
 5.989 	0.096 	-0.371
 4.998 	0.083 	0.042
 5.098 	0.215 	0.078
 5.543 	0.456 	0.232
 4.318 	0.151 	0.329
 4.724 	-0.078 	0.015
 4.088 	0.122 	0.112
 3.665 	0.245 	-0.091
 3.501 	0.377 	0.202
 3.718 	-0.195 	0.278
 3.270 	-1.088 	-0.059
 4.031 	-0.813 	-0.450
 4.224 	-1.388 	-0.449
 5.112 	-0.627 	-1.033
 5.544 	-0.274 	-0.908
 5.821 	-0.207 	-0.570
 6.355 	0.643 	-0.519
 5.827 	0.456 	-0.042
 5.396 	0.619 	0.176
 5.295 	0.913 	0.086
 3.823 	-0.016 	-0.048
 3.824 	-0.338 	0.165
 3.841 	0.653 	0.189
 3.363 	0.537 	0.249
 3.795 	0.661 	-0.162
 4.947 	0.002 	-0.259
 4.219 	-1.323 	0.404
 3.540 	-0.622 	-0.168
 3.192 	-0.996 	0.008
 3.478 	-0.358 	-0.221
 3.944 	0.400 	-0.093
 4.490 	0.662 	0.283
 4.784 	1.118 	0.193
 4.103 	1.081 	0.116
 3.520 	0.857 	0.090
 4.052 	0.636 	-0.081
 5.851 	0.411 	-0.411
 6.131 	0.404 	-0.481
 5.279 	0.604 	-0.283
 4.819 	0.608 	0.049
 5.159 	0.333 	-0.178
 5.772 	0.018 	-0.218
 5.227 	0.051 	0.286
 4.465 	0.130 	-0.134
 3.622 	-0.166 	-0.170
 3.090 	-0.108 	0.154
 3.154 	0.157 	0.234
 3.491 	0.356 	0.338
 3.573 	0.560 	-0.097
 3.962 	1.181 	-0.055
 4.137 	0.940 	-0.171
 4.130 	0.275 	-0.055
 4.648 	0.420 	-0.152
 5.237 	0.566 	0.056
 5.314 	0.498 	-0.018
 5.548 	0.589 	-0.155
 5.587 	0.549 	0.374
 4.762 	0.382 	0.002
 4.040 	0.170 	0.113
 3.411 	-0.248 	0.182
 3.590 	0.186 	-0.178
 4.184 	-0.382 	-0.033
 3.850 	-0.205 	0.149
 4.218 	-0.287 	0.243
 3.677 	0.396 	0.237
 3.183 	0.901 	0.077
 3.264 	0.312 	0.321
 3.159 	0.143 	0.243
 2.664 	0.166 	0.363
 3.733 	0.300 	-0.067
 3.815 	0.908 	1.062
 4.531 	0.869 	-0.036
 5.044 	0.776 	-0.073
 5.438 	1.170 	-0.119
 5.775 	1.546 	-0.406
 4.546 	-0.315 	0.331
 5.039 	0.394 	-0.322
 4.640 	-0.152 	0.081
 4.878 	-0.289 	-0.078
 4.939 	0.197 	0.034
 4.408 	-0.320 	0.082
 3.465 	0.909 	0.470
 3.152 	0.827 	-0.172
 4.010 	0.244 	-0.387
 4.617 	0.119 	0.369
 4.451 	0.622 	-0.167
 4.438 	1.607 	-1.199
 4.092 	0.828 	0.715
 4.421 	-0.769 	-0.619
 4.846 	-0.354 	-0.301
 4.883 	0.909 	0.206
 4.332 	0.835 	0.666
 3.945 	0.600 	0.890
 3.946 	0.540 	0.877
 3.855 	0.754 	0.338
 3.893 	0.652 	-0.027
 4.387 	0.107 	-0.016
 4.780 	-0.652 	0.047
 5.079 	-0.745 	-0.244
 5.269 	-0.636 	-0.187
 3.880 	0.471 	0.137
 3.598 	0.981 	-0.264
 3.861 	0.861 	-0.209
 5.333 	0.648 	-0.730
 4.801 	-0.056 	-0.481
 4.529 	-0.691 	-0.575
 4.972 	0.944 	0.121
 4.707 	0.788 	0.319
 4.684 	0.382 	0.198
 4.427 	0.542 	0.041
 4.614 	0.660 	-0.440
 4.735 	-0.062 	-0.367
 5.061 	0.105 	-0.433
 4.967 	0.250 	0.099
 5.433 	-0.575 	0.305
 4.850 	-0.811 	0.948
 5.634 	0.734 	0.151
 5.062 	0.472 	0.143
 5.344 	0.425 	-0.654
 5.213 	0.011 	-0.473
 4.731 	0.487 	-0.011
 4.611 	-0.213 	0.105
 4.736 	0.199 	-0.276
 5.374 	0.720 	-0.097
 5.362 	0.429 	-0.028
 4.480 	0.687 	0.307
 4.453 	0.525 	-0.513
 4.532 	0.509 	-0.157
 4.744 	0.079 	0.023
 5.343 	-0.465 	-0.053
 5.829 	-1.077 	0.319
 5.368 	-0.471 	0.268
 4.729 	1.203 	0.930
 5.422 	0.450 	0.141
 6.106 	0.029 	-0.360
 6.152 	0.719 	-0.945
 6.194 	0.581 	-0.794
 5.361 	0.266 	-0.171
 5.138 	-0.027 	-0.204
 5.460 	0.638 	-0.405
 5.148 	1.196 	-0.037
 4.239 	0.847 	-0.090
 4.425 	1.283 	-0.477
 5.277 	0.184 	-0.167
 6.030 	-0.678 	0.192
 6.174 	-1.050 	0.426
 5.771 	-0.552 	0.126
 5.732 	-0.021 	0.250
 5.496 	1.166 	0.051
 5.409 	0.868 	0.049
 5.235 	0.626 	0.094
 5.636 	0.883 	-0.333
 6.355 	0.777 	-0.208
 6.526 	0.723 	-0.505
 5.481 	0.428 	0.208
 4.785 	0.969 	-0.521
 4.975 	1.089 	-0.070
 5.537 	0.903 	0.088
 5.978 	0.231 	-0.118
 6.410 	-0.094 	-0.302
 6.768 	-0.252 	-0.412
 6.590 	-0.344 	-0.222
 6.550 	-0.450 	0.276
 6.457 	-0.456 	-0.003
 4.706 	0.886 	0.335
 5.030 	1.203 	0.023
 5.622 	0.760 	-0.456
 5.866 	0.931 	-0.526
 6.072 	0.852 	-0.363
 5.954 	0.882 	-0.210
 6.061 	0.770 	-0.065
 5.716 	0.691 	-0.022
 5.753 	0.868 	0.023
 6.172 	0.749 	-0.275
 6.260 	0.315 	0.060
 6.501 	0.290 	-0.082
 6.881 	0.370 	-0.343
 6.677 	0.430 	-0.677
 6.672 	-0.176 	-0.388
 6.623 	-0.639 	-0.110
 4.553 	0.291 	0.184
 4.583 	0.297 	0.210
 4.361 	0.542 	0.201
 4.596 	0.855 	0.066
 4.456 	0.763 	0.311
 4.293 	0.563 	0.293
 4.435 	0.302 	0.386
 4.615 	0.490 	0.451
 4.958 	0.728 	0.244
 5.087 	0.798 	0.580
 5.556 	0.598 	0.552
 6.172 	0.861 	-0.307
 6.644 	0.735 	-0.780
 6.879 	0.664 	-0.838
 6.959 	0.274 	-0.356
 6.525 	-0.570 	-0.198
 5.066 	0.230 	-0.314
 5.055 	0.093 	-0.146
 4.987 	0.307 	-0.107
 5.283 	0.357 	-0.297
 5.701 	0.369 	-0.385
 5.906 	0.154 	-0.519
 6.381 	-0.318 	-0.467
 6.253 	0.553 	-0.595
 6.175 	0.475 	0.098
 5.997 	0.325 	-0.190
 5.873 	0.540 	-0.077
 6.419 	0.570 	-0.498
 6.258 	0.858 	-0.417
 6.497 	0.202 	-0.187
 6.614 	-0.241 	-0.352
 6.756 	-0.451 	-0.244
 5.476 	-0.171 	-0.074
 5.742 	0.243 	-0.502
 5.686 	0.072 	-0.469
 5.461 	0.097 	-0.231
 5.527 	0.153 	0.057
 5.954 	-0.210 	0.276
 5.837 	-0.212 	0.504
 6.150 	0.021 	0.077
 6.783 	0.618 	-0.055
 6.592 	0.430 	-0.329
 6.520 	0.683 	-0.751
 7.093 	0.276 	-0.736
 6.946 	1.221 	-0.626
 6.618 	-0.232 	-0.235
 6.371 	-0.653 	-0.187
 7.150 	-0.351 	-0.250
 4.936 	-0.289 	0.379
 5.662 	0.103 	-0.377
 5.908 	0.425 	-0.681
 5.732 	0.041 	-0.069
 5.625 	-0.386 	0.101
 5.739 	-0.297 	-0.080
 5.927 	0.124 	0.079
 6.271 	0.192 	0.321
 6.219 	0.489 	0.038
 6.571 	0.434 	-0.342
 6.432 	0.667 	-0.194
 6.465 	0.216 	-0.181
 7.047 	0.210 	-0.188
 6.565 	-0.043 	0.104
 6.312 	-0.426 	-0.561
 6.113 	-0.068 	0.262
 5.522 	0.159 	-0.014
 6.108 	0.555 	-0.827
 6.131 	0.407 	-0.384
 5.938 	-0.099 	0.158
 6.023 	-0.816 	-0.242
 5.366 	-0.115 	0.064
 4.402 	-0.651 	0.886
 4.335 	-0.292 	1.179
 5.899 	0.693 	0.231
 6.360 	0.775 	-0.145
 6.532 	0.731 	-0.462
 6.847 	0.211 	-0.415
 6.286 	0.715 	-0.362
 6.296 	0.773 	0.187
 6.178 	0.297 	0.010
 5.785 	-0.104 	-0.067
 5.130 	0.493 	0.120
 5.771 	0.106 	-0.391
 6.345 	-0.499 	0.106
 6.188 	-0.265 	0.272
 6.304 	-0.716 	-0.312
 5.671 	0.196 	0.477
 6.048 	-0.081 	-0.247
 6.597 	-0.041 	0.111
 5.340 	0.736 	-0.195
 5.767 	0.200 	-0.518
 6.117 	-0.129 	-0.514
 5.694 	-0.078 	-0.313
 5.511 	0.202 	-0.306
 4.968 	0.594 	-0.046
 4.450 	0.094 	-0.156
 4.510 	-0.695 	0.055
 6.140 	-0.222 	-0.347
 6.250 	-0.476 	0.047
 6.705 	-0.277 	-0.057
 6.397 	-0.388 	-0.720
 6.795 	-0.207 	-0.010
 6.529 	0.178 	-0.429
 6.060 	0.097 	-0.518
 5.650 	-0.386 	0.644
 6.208 	-0.338 	-0.196
 5.483 	-0.915 	0.372
 5.612 	-0.596 	-0.111
 5.086 	-0.181 	0.103
 4.912 	0.072 	-0.073
 4.105 	0.578 	0.488
 4.263 	0.270 	-0.117
 5.053 	-0.094 	-0.354
 6.075 	-0.332 	-0.599
 6.210 	-0.393 	-0.218
 6.220 	-0.289 	-0.113
 6.228 	-0.343 	-0.020
 6.384 	-0.713 	-0.160
 6.190 	-0.233 	-0.593
 6.762 	0.085 	-0.265
 6.561 	0.035 	0.683
 6.165 	0.188 	0.164
 6.173 	0.192 	-0.446
 5.979 	-0.319 	0.433
 4.852 	-1.070 	0.038
 5.527 	-0.482 	0.239
 4.573 	0.391 	0.867
 4.046 	0.331 	0.099
 4.589 	-0.844 	-0.455
 5.403 	-0.753 	-0.483
 5.542 	-0.404 	-0.154
 5.823 	-0.155 	-0.028
 5.982 	0.239 	-0.157
 5.091 	-0.509 	-0.475
 5.935 	-0.014 	-0.058
 6.033 	0.926 	-0.075
 5.871 	0.660 	0.512
 6.342 	0.120 	-0.404
 6.074 	0.888 	-0.121
 5.197 	0.060 	0.502
 5.385 	-0.600 	-0.019
 5.393 	-0.173 	0.048
 4.700 	0.583 	1.059
 4.071 	0.083 	0.480
 3.968 	-0.059 	-0.304
 4.601 	-0.894 	0.376
 4.792 	-0.548 	0.174
 4.804 	-0.763 	0.163
 5.189 	-0.231 	-0.354
 5.173 	-0.636 	-0.694
 5.183 	0.611 	-0.427
 5.086 	0.784 	0.060
 5.885 	0.850 	-0.119
 6.385 	0.575 	-0.878
 6.283 	0.996 	-0.084
 6.054 	0.636 	-0.418
 4.839 	0.089 	0.495
 4.931 	0.386 	0.214
 5.094 	-0.354 	0.788
 5.878 	0.075 	-0.149
 4.891 	0.497 	-0.692
 4.813 	-1.281 	0.411
 5.187 	-1.307 	-0.672
 5.756 	-0.424 	-1.196
 6.309 	0.099 	-0.085
 6.108 	0.028 	0.029
 5.527 	-0.392 	-0.167
 5.238 	0.334 	0.220
 4.666 	1.247 	1.173
 4.182 	0.981 	1.099
 3.989 	0.923 	0.902
 4.150 	0.737 	0.628
 4.951 	1.394 	-0.174
 5.019 	1.613 	0.208
 5.008 	0.737 	-0.233
 5.467 	0.246 	-0.505
 5.206 	-0.276 	-0.133
 5.552 	-0.862 	1.214
 6.122 	-0.813 	-0.061
 5.846 	-0.665 	0.112
 5.939 	0.113 	-0.377
 5.803 	0.238 	-0.253
 4.880 	-0.281 	-0.345
 5.078 	0.268 	-0.143
 5.494 	1.351 	0.755
 5.762 	1.260 	0.542
 5.382 	0.837 	0.389
 4.732 	0.375 	-0.104
 4.948 	1.089 	0.140
 5.399 	1.025 	-0.279
 5.634 	0.366 	-0.112
 5.552 	0.654 	-0.204
 5.246 	0.024 	0.781
 7.317 	-0.214 	0.206
 7.227 	-0.121 	0.164
 6.998 	-0.185 	-0.300
 6.851 	-0.017 	-0.232
 5.884 	0.672 	-0.242
 5.487 	0.328 	-0.098
 4.764 	0.065 	0.265
 5.445 	0.601 	0.023
 5.524 	0.924 	-0.201
 5.484 	0.945 	0.179
 5.446 	0.522 	-0.411
 4.592 	0.877 	-0.000
 4.515 	1.133 	-0.086
 5.191 	0.292 	0.478
 5.132 	0.544 	0.098
 5.404 	-0.241 	0.127
 7.011 	0.062 	0.078
 7.173 	0.120 	-0.396
 7.313 	0.286 	-0.825
 7.248 	0.290 	-0.336
 6.151 	0.675 	-0.330
 5.653 	0.304 	-0.260
 6.216 	-0.116 	-0.385
 5.862 	-0.281 	-0.133
 5.613 	0.799 	0.255
 5.799 	0.943 	-0.208
 5.498 	0.772 	-0.348
 5.294 	1.493 	-0.359
 5.721 	0.525 	-0.117
 5.448 	0.186 	0.109
 5.352 	-0.081 	0.273
 5.535 	0.190 	0.111
 6.594 	0.309 	0.362
 6.860 	0.700 	-0.450
 6.919 	0.314 	-0.732
 6.661 	0.384 	-0.360
 6.606 	0.711 	-0.204
 6.508 	0.380 	-0.007
 6.105 	0.143 	0.204
 6.008 	0.189 	-0.417
 5.491 	0.680 	0.294
 5.201 	1.340 	-0.153
 5.570 	1.020 	-0.560
 6.250 	0.962 	-0.678
 6.927 	0.080 	-0.780
 7.329 	0.100 	-0.505
 6.995 	-0.179 	0.067
 6.598 	-0.239 	0.339
 6.110 	0.248 	0.363
 6.733 	0.442 	-0.083
 6.665 	0.590 	-0.695
 6.820 	0.696 	-0.484
 6.523 	0.152 	-0.123
 6.100 	0.214 	0.134
 6.052 	0.102 	0.181
 6.227 	0.082 	-0.092
 6.522 	0.412 	-0.285
 6.623 	0.872 	0.040
 6.630 	0.545 	-0.128
 6.765 	-0.044 	-0.392
 6.946 	-0.503 	-0.455
 7.087 	0.074 	-0.667
 7.234 	0.197 	-0.540
 7.048 	-0.096 	-0.089
 5.203 	0.080 	0.140
 5.341 	-0.106 	0.104
 5.553 	0.216 	0.005
 5.952 	0.565 	0.150
 5.700 	0.493 	0.208
 5.737 	0.343 	0.141
 6.072 	-0.068 	0.161
 6.204 	-0.088 	0.196
 6.554 	0.424 	0.092
 6.914 	0.562 	0.158
 6.694 	0.878 	-0.059
 6.556 	-0.083 	-0.497
 6.190 	-0.559 	-0.995
 6.270 	-0.365 	-0.984
 6.454 	-0.217 	-0.324
 6.906 	-0.180 	-0.117
 5.725 	0.065 	-0.126
 5.701 	-0.018 	-0.209
 5.698 	-0.099 	-0.078
 5.874 	0.223 	0.054
 6.211 	-0.101 	-0.020
 6.235 	0.178 	-0.085
 6.459 	-0.037 	-0.082
 6.527 	0.176 	-0.021
 6.511 	0.588 	0.267
 7.057 	0.730 	0.156
 7.208 	1.055 	-0.345
 7.006 	0.033 	-0.425
 6.494 	-0.393 	-0.005
 6.233 	-0.249 	0.071
 6.343 	-0.193 	-0.240
 6.757 	-0.737 	-0.453
 6.311 	0.446 	-0.221
 6.073 	0.362 	-0.549
 5.908 	0.407 	-0.371
 5.762 	-0.221 	-0.209
 5.894 	-0.513 	-0.003
 6.402 	-0.183 	-0.006
 6.619 	-0.477 	0.037
 6.710 	-0.105 	-0.068
 6.683 	0.304 	0.121
 6.806 	0.688 	-0.380
 6.954 	1.106 	-0.234
 6.737 	0.096 	-0.266
 6.881 	-0.436 	-0.139
 6.739 	0.264 	0.322
 6.582 	-0.666 	0.025
 6.612 	-0.413 	-0.099
 6.160 	0.518 	-0.120
 6.251 	0.577 	-0.262
 5.788 	0.215 	-0.437
 5.274 	-0.480 	0.211
 5.187 	-0.388 	0.305
 5.427 	-0.486 	0.346
 6.146 	-0.465 	0.273
 6.226 	0.018 	-0.022
 6.302 	0.188 	0.014
 6.161 	0.520 	-0.039
 6.306 	-0.000 	-0.203
 6.723 	-0.552 	-0.594
 7.207 	0.182 	-0.464
 6.881 	0.116 	-0.197
 6.075 	-0.305 	0.246
 6.175 	-0.571 	-0.147
 5.270 	0.351 	0.046
 5.488 	0.257 	-0.059
 5.573 	-0.361 	0.281
 6.035 	-0.837 	0.166
 6.294 	-0.809 	0.189
 5.946 	-0.511 	0.278
 5.874 	-0.378 	0.135
 6.235 	-0.310 	0.599
 6.495 	-0.717 	0.298
 6.396 	0.039 	0.230
 6.576 	-0.677 	-0.408
 6.592 	-0.424 	-0.742
 5.912 	0.189 	-0.175
 5.992 	0.318 	0.200
 4.791 	-0.425 	0.325
 4.497 	-0.589 	-0.108
 5.721 	-0.230 	-0.363
 6.202 	-0.551 	-0.552
 6.632 	-0.755 	-0.139
 6.753 	-0.871 	-0.170
 6.710 	-0.381 	-0.130
 6.657 	-0.556 	0.288
 6.438 	-0.217 	-0.252
 5.908 	-0.183 	0.375
 6.391 	-0.316 	0.240
 6.268 	-0.630 	-0.059
 6.384 	-0.547 	-0.336
 6.631 	0.256 	-0.298
 5.600 	0.030 	0.315
 4.723 	0.190 	0.561
 5.107 	0.201 	-0.155
 5.197 	-0.440 	0.027
 6.131 	-0.643 	-0.011
 6.210 	-0.865 	-0.111
 6.068 	-0.759 	-0.079
 6.076 	-0.754 	-0.295
 6.718 	-0.694 	-0.339
 6.627 	-0.034 	-0.036
 6.084 	0.294 	0.278
 5.761 	0.204 	-0.198
 5.991 	-0.114 	0.128
 5.866 	-0.738 	-0.010
 5.970 	-0.156 	0.196
 5.526 	0.222 	0.403
 5.166 	0.157 	0.637
 5.419 	0.634 	0.364
 5.168 	0.323 	-0.198
 5.342 	0.252 	-0.492
 5.703 	-0.682 	-0.159
 5.586 	-1.047 	-0.112
 5.701 	-0.693 	-0.150
 5.491 	-1.056 	-0.605
 5.761 	-0.857 	-0.291
 6.137 	0.082 	-0.130
 6.362 	0.306 	-0.093
 6.436 	-0.153 	0.019
 5.823 	0.571 	-0.118
 6.088 	-0.338 	0.247
 5.470 	0.638 	0.616
 4.855 	0.074 	-0.264
 4.410 	0.171 	0.649
 5.078 	0.802 	0.703
 5.360 	0.117 	-0.053
 5.518 	-0.311 	-0.171
 5.454 	-1.103 	-0.106
 5.329 	-1.018 	-0.289
 5.328 	-0.743 	-0.015
 5.536 	-0.778 	-0.203
 5.341 	-0.868 	-0.323
 5.362 	-0.232 	-0.512
 5.585 	0.053 	-0.469
 6.268 	-0.071 	-0.199
 6.665 	0.221 	-0.328
 6.207 	0.451 	0.147
 5.804 	0.652 	0.084
 5.944 	0.603 	-0.283
 4.394 	0.235 	0.604
 4.476 	0.879 	1.717
 5.979 	0.025 	0.019
 5.980 	-0.034 	0.123
 4.289 	-1.381 	0.147
 4.381 	-1.307 	0.250
 4.793 	-0.770 	0.161
 5.109 	-0.563 	-0.365
 5.036 	-0.556 	-0.529
 4.949 	-0.633 	-0.336
 4.852 	-0.395 	-0.503
 5.252 	-0.140 	-0.608
 5.591 	0.126 	-0.838
 6.196 	0.513 	-0.473
 6.567 	0.672 	-0.474
 6.719 	0.684 	-0.068
 6.732 	0.620 	0.068
 7.046 	0.181 	0.215
 6.846 	-0.231 	-0.081
 6.176 	0.051 	-0.106
 6.615 	-0.720 	-0.159
 5.789 	-0.602 	0.103
 6.156 	0.464 	-0.419
 6.240 	-0.091 	0.150
 6.011 	-0.264 	0.322
 5.733 	-0.067 	-0.188
 5.546 	-0.055 	-0.157
 5.659 	0.176 	0.890
 5.793 	1.104 	0.926
 5.809 	1.507 	1.014
 5.585 	0.644 	0.727
 5.708 	1.596 	0.322
 5.925 	1.782 	0.054
 6.088 	1.128 	0.079
 5.726 	0.484 	-0.258
 5.646 	0.542 	-0.465
 7.198 	-0.383 	0.438
 6.589 	-0.085 	-0.401
 5.986 	-0.418 	-0.035
 6.676 	-0.432 	-0.405
 6.457 	0.057 	-0.206
 5.783 	0.385 	-0.113
 4.883 	-0.054 	-0.092
 5.362 	0.586 	0.810
 6.046 	0.961 	0.722
 6.667 	1.446 	0.761
 5.922 	0.468 	0.391
 5.387 	0.967 	0.510
 5.693 	1.617 	0.096
 5.537 	0.688 	-0.017
 5.561 	0.509 	-0.084
 5.782 	0.670 	0.419
 6.844 	-0.086 	-0.032
 6.906 	-0.117 	0.090
 6.862 	-0.492 	-0.637
 6.569 	-0.124 	-0.062
 5.959 	0.614 	-0.048
 5.320 	0.528 	0.105
 5.228 	0.444 	0.262
 5.643 	0.056 	0.403
 5.525 	0.410 	0.329
 5.997 	0.670 	0.382
 6.178 	0.730 	-0.085
 5.510 	0.608 	-0.004
 5.079 	1.326 	0.183
 5.114 	0.366 	0.718
 5.123 	-0.023 	0.574
 4.928 	0.250 	0.639
 7.067 	0.022 	-0.433
 6.988 	-0.259 	-0.509
 6.665 	-0.092 	-0.696
 6.222 	0.609 	0.025
 5.875 	0.716 	0.121
 5.741 	0.247 	-0.161
 6.490 	0.498 	-0.623
 6.507 	0.093 	-0.208
 6.607 	-0.234 	0.123
 5.927 	0.277 	-0.083
 5.661 	0.649 	-0.180
 5.922 	0.614 	-0.032
 5.740 	0.778 	0.079
 5.763 	0.416 	0.146
 6.214 	0.154 	0.406
 6.242 	-0.080 	0.418
 7.057 	-0.120 	-0.455
 7.146 	-0.199 	-0.386
 7.101 	-0.104 	-0.623
 6.596 	0.473 	-0.087
 6.595 	0.558 	0.056
 6.510 	0.120 	0.273
 6.525 	0.034 	0.123
 6.522 	0.053 	-0.127
 6.770 	0.089 	0.055
 7.032 	0.022 	-0.042
 6.961 	0.570 	-0.379
 6.614 	0.905 	-0.219
 7.028 	0.313 	-0.421
 6.447 	0.606 	-0.390
 6.430 	0.263 	-0.190
 6.838 	-0.117 	0.312
 5.985 	-0.089 	0.419
 6.725 	-0.051 	-0.004
 7.100 	-0.110 	-0.667
 6.704 	0.337 	-0.540
 6.710 	0.461 	0.203
 6.703 	0.074 	0.614
 6.941 	-0.287 	0.124
 7.228 	-0.281 	-0.268
 7.603 	0.166 	-0.197
 7.167 	0.045 	-0.062
 6.746 	0.133 	-0.016
 6.644 	0.256 	-0.354
 6.926 	-0.041 	-0.601
 6.971 	0.622 	-0.586
 7.180 	0.321 	-0.171
 7.080 	-0.213 	-0.181
 6.229 	-0.164 	0.183
 6.038 	-0.078 	0.111
 6.184 	0.202 	-0.034
 6.317 	0.760 	0.078
 6.794 	0.747 	0.153
 6.978 	0.128 	0.037
 7.117 	-0.176 	-0.361
 7.490 	0.009 	-0.059
 7.292 	0.119 	-0.213
 6.750 	0.633 	-0.036
 6.632 	0.437 	-0.067
 6.604 	-0.251 	-0.123
 6.627 	-0.540 	-0.054
 6.754 	-0.295 	0.016
 6.984 	-0.326 	-0.023
 7.207 	-0.191 	-0.054
 7.056 	0.201 	-0.271
 6.726 	0.294 	-0.361
 6.446 	0.660 	-0.288
 6.496 	0.587 	-0.202
 6.823 	0.402 	-0.052
 7.009 	0.264 	-0.324
 6.804 	0.156 	-0.096
 6.460 	0.187 	0.374
 6.367 	0.431 	0.196
 6.449 	0.734 	-0.096
 6.977 	0.067 	-0.206
 6.850 	-0.330 	-0.393
 6.748 	-0.580 	-0.169
 6.834 	-0.645 	-0.218
 7.126 	-0.401 	-0.364
 7.193 	-0.672 	-0.424
 6.902 	0.430 	-0.243
 6.335 	0.270 	-0.356
 6.219 	0.371 	-0.549
 6.323 	0.459 	-0.113
 6.618 	0.345 	0.119
 6.597 	0.303 	-0.127
 6.766 	0.432 	0.098
 6.865 	0.164 	0.128
 6.980 	0.158 	0.163
 6.803 	0.115 	0.034
 6.704 	-0.148 	-0.048
 6.822 	-0.110 	-0.523
 6.938 	-0.199 	-0.544
 7.022 	-0.275 	-0.067
 7.532 	-0.200 	-0.265
 7.240 	-0.284 	-0.608
 6.500 	0.729 	-0.486
 6.347 	0.607 	-0.103
 6.128 	0.530 	0.339
 6.003 	0.235 	0.589
 6.172 	0.105 	0.324
 5.996 	-0.257 	0.611
 6.018 	-0.358 	0.643
 6.251 	-0.023 	0.464
 6.276 	0.086 	0.219
 6.336 	0.047 	0.055
 6.532 	-0.137 	-0.072
 6.803 	-0.583 	-0.416
 7.240 	-0.370 	-0.707
 7.394 	-0.090 	-0.455
 7.351 	-0.054 	-0.233
 6.853 	-0.149 	0.136
 4.651 	-0.262 	0.569
 5.263 	0.342 	0.762
 5.420 	0.378 	0.519
 5.638 	0.093 	-0.025
 6.308 	-0.516 	-0.123
 6.956 	-0.713 	-0.127
 6.888 	-0.451 	-0.059
 5.999 	-0.400 	0.274
 6.078 	0.004 	0.489
 6.487 	-0.201 	0.072
 7.136 	-0.599 	-0.171
 6.981 	-0.735 	-0.762
 6.272 	-0.296 	0.152
 5.771 	0.163 	0.581
 5.334 	0.046 	0.512
 5.376 	-0.240 	0.203
 6.120 	-0.646 	0.008
 6.215 	-0.277 	0.060
 6.504 	-0.270 	0.074
 6.848 	-0.776 	0.065
 6.799 	-1.036 	-0.337
 6.906 	-0.814 	-0.274
 7.026 	-0.374 	-0.542
 7.302 	-0.117 	-0.116
 6.864 	-0.087 	0.211
 7.466 	-0.262 	0.187
 6.707 	-0.563 	-0.285
 6.181 	0.081 	-0.169
 5.372 	0.114 	0.626
 5.228 	0.077 	0.494
 5.708 	0.165 	-0.120
 5.241 	-0.090 	-0.240
 6.758 	-0.671 	-0.292
 6.684 	-0.684 	-0.137
 6.691 	-0.868 	-0.027
 6.627 	-0.958 	-0.284
 6.794 	-0.921 	-0.333
 6.670 	-0.633 	-0.226
 6.607 	-0.018 	0.278
 7.064 	0.072 	-0.125
 6.803 	-0.086 	0.559
 6.033 	-0.264 	-0.320
 5.920 	-0.007 	-0.036
 5.592 	0.297 	0.940
 5.776 	-0.096 	0.318
 6.568 	-0.109 	-0.014
 6.773 	-0.185 	-0.497
 6.195 	-0.131 	-0.284
 6.494 	-0.540 	-0.058
 6.715 	-0.523 	-0.165
 6.743 	-0.930 	-0.214
 6.817 	-0.755 	-0.435
 6.506 	-0.940 	-0.213
 5.828 	-0.555 	-0.320
 6.243 	-0.136 	0.095
 6.976 	-0.199 	0.149
 6.659 	0.171 	0.447
 6.241 	-0.234 	-0.113
 6.243 	-0.206 	-0.124
 6.217 	0.689 	0.523
 6.070 	0.072 	0.107
 6.155 	-0.097 	0.717
 6.685 	-0.017 	-0.148
 6.373 	-0.339 	0.011
 6.542 	-0.539 	0.174
 6.578 	-0.626 	0.125
 6.228 	-0.375 	-0.209
 6.385 	-0.346 	-0.197
 6.269 	-1.234 	0.048
 6.230 	-0.335 	-0.070
 5.816 	-0.160 	-0.542
 5.577 	-0.097 	-0.514
 6.063 	0.266 	-0.132
 6.145 	-0.420 	-0.474
 6.355 	0.279 	-0.233
 6.755 	0.606 	0.030
 6.811 	0.328 	0.207
 7.204 	-0.155 	0.580
 7.199 	-0.074 	0.065
 6.732 	-0.198 	0.422
 6.636 	-0.476 	-0.091
 6.640 	-0.621 	0.213
 6.503 	-0.202 	-0.109
 6.835 	-0.310 	-0.329
 7.136 	-0.214 	-0.603
 6.970 	-0.838 	-0.126
 6.075 	-0.185 	-0.101
 6.129 	-0.087 	-0.555
 6.344 	-0.151 	-0.641
 6.852 	-0.202 	-0.634
 6.292 	-0.704 	-0.663
 6.870 	0.312 	-0.151
 6.766 	0.440 	0.469
 6.355 	-0.115 	0.482
 6.100 	-0.516 	0.134
 6.202 	-0.371 	0.091
 5.967 	0.083 	0.092
 6.208 	0.036 	0.031
 6.360 	-0.458 	-0.029
 6.926 	0.056 	-0.094
 6.907 	0.346 	0.316
 7.282 	0.575 	-0.184
 5.929 	-0.063 	0.060
 5.822 	-0.386 	-0.021
 6.356 	0.209 	0.411
 6.406 	0.899 	0.322
 6.390 	0.855 	1.066
 6.489 	0.994 	0.531
 6.468 	1.564 	0.526
 6.169 	1.416 	0.568
 6.422 	1.105 	-0.030
 6.337 	0.696 	-0.275
 6.440 	0.022 	0.265
 6.682 	0.133 	-0.155
 6.877 	0.083 	-0.544
 6.714 	-0.347 	0.061
 6.871 	0.090 	-0.100
 6.411 	0.562 	-0.023
 5.947 	0.261 	0.268
 5.568 	0.151 	0.273
 5.810 	0.493 	1.072
 6.023 	0.943 	1.084
 6.033 	0.456 	0.995
 5.903 	0.835 	0.420
 6.045 	1.543 	0.584
 5.922 	1.281 	0.177
 5.736 	0.573 	0.144
 6.157 	0.325 	0.531
 7.052 	0.032 	-0.245
 6.951 	0.217 	-0.222
 6.947 	0.217 	-0.610
 6.743 	-0.103 	-0.153
 6.679 	0.370 	-0.083
 6.686 	0.867 	0.323
 5.966 	0.703 	-0.103
 5.538 	0.565 	0.119
 5.500 	0.331 	0.399
 5.853 	0.308 	0.473
 6.068 	0.253 	0.358
 5.664 	0.657 	0.397
 5.498 	1.184 	0.094
 5.231 	1.171 	0.759
 5.307 	0.336 	0.742
 5.269 	-0.093 	1.123
 7.608 	-0.034 	-0.548
 7.278 	0.282 	-0.303
 7.067 	0.331 	-0.466
 6.425 	0.249 	0.325
 6.219 	0.498 	0.099
 6.521 	0.965 	-0.171
 6.485 	0.842 	-0.096
 6.200 	0.810 	-0.052
 6.446 	0.374 	0.213
 6.485 	0.208 	0.052
 6.230 	0.143 	0.053
 5.592 	0.930 	0.250
 5.451 	1.230 	0.372
 6.153 	0.821 	0.264
 5.601 	0.529 	-0.076
 5.905 	-0.065 	0.178
 7.277 	0.047 	-0.323
 7.140 	0.539 	-0.284
 6.783 	0.528 	-0.199
 6.421 	0.716 	0.452
 6.380 	0.628 	0.349
 6.361 	0.414 	0.336
 6.483 	0.337 	0.264
 6.684 	0.276 	0.107
 6.918 	0.258 	-0.048
 6.786 	0.083 	0.173
 7.175 	0.582 	0.008
 6.698 	0.684 	-0.105
 6.765 	0.809 	0.043
 6.350 	0.972 	-0.145
 6.135 	0.652 	-0.500
 6.470 	0.020 	-0.103
 6.654 	-0.193 	0.108
 6.895 	0.235 	-0.215
 7.265 	0.604 	-0.532
 6.918 	0.481 	-0.063
 6.935 	0.619 	0.300
 7.205 	0.346 	0.515
 7.193 	0.223 	-0.168
 7.257 	0.241 	-0.356
 7.300 	0.309 	-0.056
 7.102 	0.054 	-0.010
 6.854 	0.274 	0.248
 7.287 	0.847 	-0.058
 7.083 	0.850 	-0.062
 6.554 	1.107 	-0.479
 6.701 	0.636 	-0.355
 6.934 	0.124 	-0.237
 6.937 	-0.260 	0.175
 6.988 	-0.100 	0.073
 6.705 	-0.036 	-0.135
 6.877 	0.094 	-0.404
 7.180 	0.253 	-0.252
 7.541 	0.309 	-0.298
 7.444 	0.200 	-0.439
 7.401 	0.014 	-0.321
 7.342 	0.213 	-0.175
 7.060 	0.347 	0.024
 6.948 	0.444 	0.036
 6.817 	0.740 	-0.130
 6.882 	0.948 	-0.209
 6.889 	1.059 	-0.038
 7.085 	0.702 	-0.240
 7.229 	0.181 	-0.458
 6.209 	-0.315 	-0.262
 6.500 	-0.165 	-0.323
 6.432 	-0.240 	-0.319
 6.574 	-0.074 	-0.247
 6.638 	0.041 	-0.249
 6.850 	0.294 	-0.296
 6.775 	0.159 	-0.134
 6.489 	0.048 	0.417
 6.534 	0.022 	0.219
 6.818 	0.428 	-0.053
 6.787 	0.401 	0.027
 6.625 	0.811 	-0.102
 6.607 	0.899 	-0.306
 6.684 	0.862 	-0.302
 7.130 	0.200 	-0.457
 7.329 	-0.109 	-0.165
 5.574 	-0.756 	-0.315
 6.060 	-0.045 	-0.308
 5.996 	-0.028 	-0.608
 6.146 	0.143 	-0.122
 6.260 	0.311 	0.031
 6.137 	0.225 	-0.018
 6.352 	0.187 	0.225
 6.644 	-0.194 	0.369
 6.886 	-0.399 	0.417
 6.894 	-0.013 	0.356
 6.759 	0.141 	0.079
 6.779 	0.182 	0.003
 6.877 	0.234 	0.067
 7.222 	0.120 	0.088
 7.452 	-0.200 	-0.131
 7.463 	-0.654 	-0.096
 5.548 	-0.497 	0.121
 5.109 	-0.160 	0.272
 5.279 	-0.097 	0.586
 5.717 	0.021 	0.763
 5.826 	0.145 	0.813
 5.891 	-0.030 	0.901
 6.063 	-0.478 	1.125
 6.315 	-0.817 	0.857
 6.679 	-0.759 	0.418
 6.881 	-0.484 	0.144
 7.033 	-0.131 	-0.071
 7.099 	-0.644 	-0.147
 7.485 	-0.672 	-0.110
 7.469 	-0.520 	-0.132
 7.017 	-0.436 	-0.094
 6.916 	-0.467 	-0.198
 4.730 	-0.352 	0.641
 5.005 	-0.046 	0.320
 5.643 	-0.161 	0.103
 6.226 	-0.411 	0.085
 6.811 	-0.375 	0.151
 7.090 	-0.471 	-0.051
 6.864 	-0.506 	0.007
 6.864 	-0.552 	0.165
 6.928 	-0.744 	0.058
 7.118 	-0.506 	-0.244
 7.175 	-0.616 	-0.422
 7.169 	-0.845 	-0.197
 6.615 	-0.530 	0.437
 6.014 	-0.146 	0.527
 6.293 	-0.225 	0.181
 6.626 	-0.629 	0.115
 5.774 	-0.252 	0.522
 5.967 	-0.250 	0.849
 6.828 	-0.627 	0.640
 7.121 	-1.040 	0.166
 6.917 	-0.828 	-0.225
 6.666 	-0.415 	-0.335
 6.765 	-0.158 	-0.407
 6.908 	-0.167 	-0.290
 7.128 	-0.202 	-0.063
 7.151 	-0.422 	-0.010
 7.046 	-0.710 	0.184
 6.612 	-0.116 	0.017
 5.847 	0.121 	0.643
 6.118 	-0.054 	0.471
 6.795 	-0.651 	0.093
 6.462 	-0.831 	-0.027
 6.605 	-0.665 	-0.007
 6.739 	-0.966 	-0.026
 7.167 	-0.956 	0.033
 6.980 	-0.822 	-0.223
 6.717 	-0.891 	-0.110
 6.688 	-0.694 	-0.131
 6.599 	-0.675 	0.021
 6.662 	-0.379 	-0.236
 6.994 	-0.295 	0.195
 6.924 	-0.024 	0.229
 6.360 	-0.341 	0.392
 6.078 	0.263 	0.313
 6.796 	0.102 	0.094
 6.943 	-0.485 	-0.071
 6.444 	-0.803 	-0.107
 6.242 	-0.700 	-0.092
 6.856 	-0.988 	-0.383
 7.087 	-1.238 	-0.107
 6.991 	-1.377 	-0.340
 6.650 	-0.774 	-0.229
 6.491 	-0.887 	0.144
 6.522 	-0.804 	-0.006
 6.039 	-0.760 	-0.199
 6.144 	-0.494 	0.072
 6.528 	-0.328 	0.394
 6.711 	-0.035 	0.091
 6.369 	-0.005 	0.414
 6.937 	-0.186 	0.450
 7.016 	-0.407 	-0.110
 6.975 	-0.356 	0.003
 6.544 	-0.384 	0.204
 6.374 	-1.024 	0.184
 7.211 	-1.113 	-0.091
 7.160 	-1.257 	-0.063
 7.019 	-1.045 	-0.243
 6.651 	-0.480 	-0.223
 6.379 	-0.674 	0.063
 6.725 	-1.392 	0.069
 7.250 	-0.651 	-0.198
 7.340 	-0.883 	-0.535
 7.363 	-0.586 	-0.452
 6.581 	-0.202 	-0.276
 6.481 	-0.381 	-0.025
 6.533 	-0.699 	-0.241
 6.467 	-0.543 	0.188
 6.597 	-0.586 	0.536
 6.594 	-0.320 	0.750
 6.672 	-1.089 	0.592
 7.340 	-0.902 	-0.082
 7.383 	-0.765 	-0.226
 7.097 	-0.977 	-0.092
 6.857 	-0.971 	-0.346
 7.208 	-1.198 	-0.222
 7.563 	-1.003 	0.093
 7.157 	-0.682 	0.177
 7.189 	-0.836 	-0.432
 7.356 	-0.754 	-0.389
 7.500 	-0.431 	-0.394
 7.118 	-0.102 	-0.178
 6.403 	-0.952 	0.041
 5.958 	-0.697 	0.523
 6.164 	-0.434 	0.420
 6.910 	-0.749 	0.225
 7.603 	-1.079 	-0.306
 6.334 	-0.101 	0.297
 6.610 	-0.366 	-0.127
 6.773 	-0.281 	-0.017
 6.779 	-0.109 	0.438
 7.267 	0.136 	0.214
 7.594 	0.690 	0.375
 7.417 	0.639 	0.474
 6.610 	0.169 	0.086
 6.933 	-0.113 	-0.101
 6.792 	0.250 	0.107
 6.428 	0.787 	0.979
 6.467 	1.207 	0.700
 6.501 	1.573 	0.448
 6.906 	1.492 	0.326
 7.191 	0.998 	-0.075
 6.751 	0.916 	0.271
 6.943 	-0.363 	0.187
 7.544 	-0.375 	-0.443
 7.730 	-0.619 	-0.585
 7.127 	0.066 	0.015
 6.931 	-0.123 	0.402
 6.864 	0.572 	0.786
 6.132 	0.455 	0.065
 5.606 	0.192 	0.280
 5.617 	-0.019 	0.455
 5.828 	0.569 	1.152
 6.233 	0.721 	1.127
 6.195 	0.864 	0.699
 5.874 	1.242 	0.610
 5.820 	1.178 	0.661
 5.759 	1.020 	0.626
 5.610 	0.632 	0.716
 7.661 	-0.463 	-0.437
 8.027 	-0.452 	-0.201
 7.933 	-0.301 	-0.828
 7.851 	0.649 	-0.101
 7.107 	0.010 	0.009
 6.676 	0.370 	0.459
 7.158 	0.420 	0.202
 5.754 	0.815 	0.119
 5.157 	0.377 	0.455
 5.241 	0.192 	0.671
 5.668 	0.424 	0.625
 5.925 	0.680 	0.719
 5.572 	0.968 	0.758
 5.424 	1.242 	0.797
 5.251 	1.376 	0.699
 5.155 	0.754 	0.600
 7.575 	-0.402 	-0.696
 7.770 	-0.030 	-0.272
 7.377 	0.206 	-0.501
 7.439 	0.307 	0.247
 7.293 	0.364 	0.330
 6.783 	0.484 	0.264
 6.627 	0.194 	0.202
 6.341 	0.987 	0.078
 6.514 	0.722 	-0.177
 6.703 	0.274 	-0.051
 6.198 	0.265 	0.316
 5.729 	0.627 	0.380
 6.009 	1.002 	0.406
 5.834 	1.183 	0.426
 5.921 	1.046 	0.216
 5.342 	0.984 	-0.234
 7.388 	-0.197 	-0.310
 6.919 	0.178 	-0.472
 7.137 	0.405 	-0.101
 7.149 	0.459 	0.321
 6.873 	0.637 	0.442
 6.442 	0.618 	0.518
 6.561 	0.232 	0.355
 6.841 	0.226 	0.260