# vtk DataFile Version 3.0
HighT1
ASCII
DATASET STRUCTURED_POINTS
DIMENSIONS 16 16 19
ORIGIN 929.001000000000 929.001000000000 5.001000000000
SPACING 10.000000000000 10.000000000000 10.000000000000
POINT_DATA 4864
 FIELD attributes 1
U 3 4864 float
3.547 	0.772 	0.162
 3.448 	0.768 	0.849
 2.277 	0.245 	0.632
 2.814 	0.392 	0.062
 2.938 	-0.094 	0.141
 3.654 	0.019 	0.135
 5.058 	1.045 	-0.518
 4.891 	1.729 	0.150
 3.934 	1.072 	-0.058
 5.033 	0.849 	0.128
 5.143 	0.206 	-0.300
 4.425 	-0.272 	0.385
 3.777 	-0.545 	0.118
 3.605 	-0.502 	0.197
 4.119 	-0.720 	0.108
 4.618 	-0.378 	-0.564
 2.604 	0.606 	0.413
 2.941 	0.799 	-0.140
 3.390 	-0.190 	0.124
 4.222 	0.062 	-0.031
 4.169 	-1.067 	-0.134
 4.299 	-0.255 	-0.334
 3.927 	1.025 	-0.152
 4.048 	1.637 	0.150
 4.468 	1.303 	0.096
 4.711 	1.389 	-0.291
 5.144 	0.259 	-0.536
 4.784 	-0.262 	-0.341
 5.518 	0.668 	-0.301
 4.130 	-0.312 	-0.081
 4.074 	0.226 	-0.343
 4.477 	-0.206 	-0.113
 3.989 	0.135 	-0.489
 3.895 	0.553 	-0.014
 3.176 	0.417 	0.173
 2.960 	-0.290 	0.176
 2.619 	0.329 	0.182
 2.559 	0.220 	0.379
 3.207 	0.494 	0.311
 3.893 	1.177 	0.078
 4.060 	0.649 	-0.188
 4.358 	0.507 	-0.454
 4.424 	0.326 	-0.156
 3.426 	-0.176 	0.704
 3.373 	-0.071 	0.128
 3.509 	0.431 	0.179
 3.842 	0.474 	0.335
 3.607 	0.869 	-0.068
 3.894 	-0.104 	-0.072
 3.855 	0.775 	-0.208
 4.444 	-0.077 	-0.297
 3.816 	-0.189 	0.181
 3.451 	0.370 	-0.268
 3.121 	-0.249 	-0.136
 3.247 	0.070 	0.395
 2.978 	0.454 	-0.048
 2.615 	0.339 	0.245
 2.617 	0.863 	0.227
 2.879 	0.153 	0.548
 3.136 	-0.562 	0.417
 2.944 	-0.712 	-0.019
 3.683 	0.622 	0.146
 3.721 	-0.091 	0.247
 3.679 	1.165 	-0.127
 3.603 	-0.718 	0.018
 3.610 	0.434 	0.158
 2.606 	0.341 	0.489
 3.068 	0.251 	0.044
 3.227 	0.201 	-0.068
 3.200 	0.288 	0.127
 2.537 	-0.239 	0.200
 3.050 	-0.214 	0.202
 3.013 	-0.024 	0.154
 3.013 	0.267 	0.174
 2.971 	-0.179 	0.068
 2.989 	-0.594 	-0.337
 3.547 	-0.067 	-0.355
 3.092 	0.573 	-0.100
 2.968 	-0.383 	0.228
 3.304 	0.559 	-0.090
 4.273 	0.180 	0.040
 3.773 	0.099 	0.064
 3.828 	-0.441 	-0.087
 3.960 	-0.287 	0.313
 4.226 	0.303 	-0.123
 4.219 	0.328 	-0.168
 4.326 	-0.498 	-0.004
 3.989 	-0.658 	0.169
 3.176 	-0.529 	0.248
 3.949 	0.466 	-0.128
 3.767 	0.040 	0.215
 3.814 	0.144 	-0.115
 3.435 	-0.663 	0.027
 2.847 	-0.276 	0.431
 3.451 	-0.818 	0.237
 3.758 	-0.199 	0.140
 4.623 	0.307 	-0.092
 4.840 	0.599 	-0.092
 4.561 	0.032 	-0.180
 4.602 	-0.276 	-0.139
 4.323 	-0.059 	0.186
 4.512 	-0.020 	0.057
 4.483 	-0.418 	-0.099
 4.497 	0.103 	0.121
 3.630 	-0.337 	0.357
 3.784 	0.124 	-0.056
 3.475 	-0.028 	0.089
 3.475 	0.149 	0.041
 3.993 	0.297 	-0.268
 4.261 	-0.170 	-0.315
 4.119 	-0.577 	-0.340
 4.217 	-0.283 	-0.487
 4.488 	0.338 	-0.114
 4.546 	0.739 	-0.024
 4.637 	-0.002 	-0.315
 3.735 	0.335 	0.469
 3.408 	-0.663 	-0.041
 4.285 	-0.090 	-0.519
 4.439 	0.533 	-0.538
 3.937 	0.417 	-0.031
 3.110 	0.531 	0.176
 3.027 	0.117 	-0.109
 3.725 	-0.073 	-0.440
 3.737 	-0.281 	-0.173
 4.126 	-0.215 	-0.530
 4.376 	0.009 	-0.258
 4.479 	-0.195 	0.048
 4.252 	-0.500 	0.044
 3.821 	0.616 	-0.089
 3.592 	0.419 	0.487
 3.978 	1.003 	0.196
 4.280 	0.086 	-0.225
 4.841 	0.046 	0.038
 2.531 	-0.224 	0.458
 2.431 	0.988 	0.411
 3.476 	1.027 	-0.206
 3.976 	0.876 	-0.128
 4.246 	0.376 	-0.250
 4.473 	0.057 	-0.444
 3.958 	-0.242 	0.198
 3.950 	-0.114 	0.056
 4.215 	-0.343 	0.138
 4.010 	-0.086 	0.050
 3.911 	-0.029 	0.185
 3.503 	0.372 	0.192
 3.859 	0.184 	0.141
 4.011 	0.428 	-0.380
 4.036 	-0.173 	-0.305
 4.304 	0.393 	0.306
 4.557 	0.823 	-0.097
 3.777 	0.647 	0.030
 3.628 	0.593 	0.041
 4.141 	1.107 	-0.109
 4.265 	0.878 	-0.061
 4.557 	0.479 	-0.113
 4.337 	-0.225 	0.063
 3.674 	-0.127 	0.004
 3.268 	-0.670 	0.412
 3.351 	0.350 	0.084
 3.501 	0.015 	-0.176
 3.721 	0.146 	-0.150
 3.776 	-0.517 	-0.080
 3.085 	-0.162 	0.287
 3.429 	-0.306 	0.055
 3.590 	0.127 	0.013
 4.056 	0.859 	0.073
 4.485 	0.646 	-0.138
 4.326 	0.437 	-0.072
 4.190 	0.529 	0.109
 4.589 	0.964 	-0.058
 4.168 	0.562 	-0.281
 3.888 	0.331 	-0.277
 3.971 	0.400 	0.106
 4.033 	0.257 	-0.253
 3.375 	-0.147 	-0.078
 3.279 	-0.152 	-0.067
 3.141 	0.267 	0.235
 3.073 	-0.313 	0.014
 3.217 	0.066 	0.164
 2.623 	-0.670 	0.111
 3.255 	0.249 	-0.086
 3.208 	0.561 	0.211
 2.984 	0.021 	0.199
 2.656 	-0.254 	0.299
 3.107 	-0.196 	0.096
 3.136 	0.228 	0.091
 3.083 	0.487 	0.166
 3.024 	0.278 	0.091
 2.803 	0.319 	0.400
 3.245 	0.036 	0.272
 3.633 	0.078 	-0.014
 4.072 	-0.113 	-0.097
 3.547 	-0.170 	0.382
 3.878 	-0.452 	-0.536
 4.015 	-0.387 	0.227
 3.565 	-0.504 	0.356
 2.606 	0.129 	0.361
 2.919 	0.274 	0.151
 3.614 	-0.751 	0.012
 3.762 	-0.356 	0.134
 2.492 	-0.307 	0.094
 2.435 	-0.025 	0.371
 2.216 	0.168 	0.313
 2.735 	0.804 	0.357
 3.376 	-0.254 	0.056
 3.502 	-0.496 	-0.094
 3.590 	-0.338 	-0.058
 3.203 	-0.005 	0.402
 4.030 	-0.029 	0.024
 4.001 	-0.350 	-0.316
 3.765 	-0.545 	-0.135
 3.938 	-0.131 	-0.036
 3.839 	0.331 	-0.206
 3.871 	0.024 	-0.244
 4.218 	0.180 	0.124
 2.881 	-0.730 	0.126
 3.235 	-0.621 	-0.072
 3.579 	-0.258 	-0.279
 3.735 	0.029 	0.011
 3.808 	0.342 	-0.181
 4.133 	-0.200 	-0.339
 4.003 	0.053 	-0.239
 4.202 	0.091 	0.046
 3.949 	-0.353 	0.146
 4.240 	0.450 	-0.334
 4.407 	0.597 	0.006
 3.376 	-0.190 	0.295
 2.914 	-0.226 	0.010
 3.435 	-0.128 	-0.051
 3.377 	0.290 	-0.008
 3.741 	0.227 	-0.060
 3.995 	-0.349 	-0.180
 3.789 	-0.177 	0.169
 3.502 	-0.263 	-0.059
 3.323 	-0.009 	0.007
 3.422 	0.240 	-0.036
 3.475 	0.133 	-0.107
 3.841 	0.476 	-0.066
 3.929 	0.328 	-0.234
 2.986 	-0.355 	0.076
 2.876 	0.040 	-0.040
 3.487 	0.139 	-0.091
 3.338 	0.180 	0.161
 3.761 	-0.723 	-0.014
 2.909 	-0.521 	0.133
 3.109 	-0.032 	0.203
 3.531 	0.345 	-0.331
 3.129 	-0.124 	0.104
 3.246 	-0.149 	-0.328
 2.823 	0.133 	0.175
 2.532 	0.210 	0.447
 2.677 	-0.156 	-0.194
 3.092 	0.317 	0.117
 3.079 	0.251 	0.003
 2.912 	0.162 	0.250
 3.258 	0.134 	-0.110
 5.017 	0.390 	0.170
 5.610 	1.406 	0.599
 5.210 	0.661 	0.521
 4.724 	0.219 	0.181
 4.651 	0.486 	0.515
 4.718 	-0.076 	0.508
 5.086 	-0.285 	0.441
 5.719 	0.682 	-0.091
 5.481 	0.889 	0.270
 5.482 	2.059 	0.150
 5.872 	1.104 	0.383
 5.993 	0.813 	-0.225
 5.251 	0.046 	0.208
 5.976 	0.536 	0.028
 5.891 	-0.713 	-0.537
 6.341 	-0.476 	0.008
 4.112 	0.646 	0.241
 5.052 	1.054 	0.416
 6.035 	0.092 	-0.142
 6.558 	0.303 	-0.327
 6.004 	0.455 	-0.097
 5.780 	0.223 	-0.979
 5.223 	-0.203 	-0.266
 4.690 	0.509 	0.340
 5.102 	0.385 	-0.108
 5.342 	0.749 	0.355
 5.955 	1.422 	0.342
 5.667 	0.873 	0.020
 5.876 	0.514 	-0.185
 5.880 	0.324 	-0.346
 6.037 	0.178 	-0.480
 4.859 	-0.582 	-0.478
 5.926 	0.553 	-0.213
 5.409 	0.179 	0.455
 4.591 	0.117 	0.708
 4.891 	0.572 	0.033
 5.453 	1.013 	-0.010
 5.014 	0.404 	-0.146
 4.938 	-0.226 	0.455
 5.652 	0.008 	-0.033
 5.534 	1.131 	-0.312
 5.360 	0.522 	-0.250
 5.253 	0.519 	0.184
 5.414 	0.450 	-0.213
 5.009 	0.539 	0.315
 4.351 	-0.000 	0.015
 4.639 	0.305 	0.041
 4.295 	-0.010 	0.158
 4.992 	0.114 	0.494
 5.037 	0.307 	0.433
 4.304 	0.047 	0.613
 3.776 	0.127 	0.449
 4.191 	0.061 	-0.020
 4.696 	0.557 	-0.074
 5.255 	0.313 	-0.162
 4.465 	0.058 	0.004
 4.672 	0.676 	-0.045
 3.317 	0.245 	0.966
 3.541 	0.669 	0.535
 4.289 	0.672 	0.328
 4.751 	0.387 	-0.138
 4.506 	0.600 	-0.075
 3.898 	-0.383 	0.288
 4.592 	-0.082 	-0.041
 4.672 	-0.450 	0.016
 5.015 	-0.435 	0.315
 5.257 	-0.087 	-0.030
 3.912 	0.048 	0.226
 3.560 	0.158 	0.324
 4.091 	0.385 	0.060
 3.628 	0.387 	0.394
 3.851 	-0.159 	0.432
 4.315 	0.153 	0.319
 4.265 	0.327 	-0.053
 4.243 	0.508 	-0.041
 4.179 	0.233 	-0.115
 3.955 	0.442 	0.200
 4.515 	0.310 	0.043
 4.427 	-0.602 	-0.012
 4.283 	0.027 	-0.039
 5.443 	-0.057 	-0.177
 5.212 	0.154 	0.132
 5.384 	-0.631 	0.548
 5.391 	-0.251 	0.110
 5.372 	-0.053 	0.095
 5.658 	0.279 	0.039
 5.533 	0.000 	-0.205
 4.522 	-0.478 	0.045
 4.595 	-0.601 	0.624
 4.594 	0.376 	0.356
 4.689 	0.511 	0.087
 4.731 	0.588 	-0.356
 4.435 	0.143 	0.007
 4.198 	0.364 	0.304
 4.556 	-0.602 	0.318
 4.338 	-0.121 	0.385
 4.948 	-0.397 	0.070
 5.356 	0.014 	-0.294
 5.635 	-0.297 	-0.098
 5.496 	-0.259 	-0.289
 5.493 	-0.413 	-0.550
 6.004 	0.035 	-0.035
 6.240 	0.174 	-0.659
 5.653 	0.026 	-0.315
 5.296 	0.099 	0.420
 4.905 	0.050 	0.279
 4.328 	0.054 	0.499
 4.879 	0.039 	0.185
 5.141 	0.724 	-0.557
 5.302 	0.598 	-0.572
 5.102 	-0.244 	-0.280
 5.000 	-0.302 	-0.214
 4.270 	-0.328 	0.162
 4.654 	-0.436 	0.006
 5.008 	-0.082 	-0.392
 5.147 	0.119 	-0.537
 5.168 	-0.625 	-0.056
 5.571 	-0.051 	-0.511
 5.411 	0.314 	-0.378
 5.417 	0.755 	0.083
 5.388 	0.322 	-0.024
 5.134 	0.271 	-0.216
 5.316 	0.490 	-0.174
 4.802 	-0.235 	0.062
 4.659 	0.413 	0.120
 4.311 	0.399 	-0.049
 4.987 	-0.036 	-0.220
 4.663 	-0.279 	-0.024
 3.728 	-0.243 	0.328
 3.879 	-1.158 	0.045
 3.312 	-0.418 	0.263
 4.118 	-0.334 	0.265
 4.602 	-0.565 	-0.171
 5.086 	0.051 	0.243
 5.225 	-0.162 	0.026
 4.924 	0.552 	-0.463
 4.870 	0.052 	-0.378
 5.049 	-0.257 	-0.592
 4.847 	0.250 	-0.433
 4.561 	0.436 	0.348
 4.300 	0.123 	0.381
 4.586 	-0.149 	0.328
 4.459 	-0.736 	0.104
 4.785 	-0.652 	-0.224
 4.703 	-0.836 	0.413
 4.062 	-0.685 	0.324
 3.486 	-0.758 	0.408
 4.278 	-0.758 	0.125
 3.882 	-0.966 	0.005
 4.292 	0.003 	-0.230
 4.378 	0.316 	-0.170
 4.680 	-0.094 	0.063
 4.444 	0.277 	0.489
 4.371 	0.257 	-0.404
 4.596 	0.507 	-0.543
 4.906 	0.631 	-0.463
 4.957 	0.200 	-0.295
 4.506 	-0.148 	0.021
 4.636 	-0.267 	0.011
 4.569 	-0.449 	-0.419
 4.838 	-0.459 	0.431
 4.695 	-0.230 	0.262
 4.456 	-0.099 	-0.204
 3.792 	-0.973 	0.034
 4.327 	-0.569 	-0.421
 4.102 	0.046 	-0.162
 3.956 	-0.171 	0.713
 4.207 	-0.261 	0.380
 4.378 	-0.208 	0.664
 3.944 	0.376 	0.100
 4.060 	0.375 	-0.164
 4.148 	0.492 	0.374
 4.851 	0.729 	-0.391
 4.766 	0.095 	-0.331
 5.079 	0.313 	-0.414
 4.675 	-0.002 	-0.482
 4.649 	0.235 	-0.063
 3.762 	-0.308 	0.246
 4.376 	-0.257 	0.280
 4.382 	-0.735 	0.149
 3.953 	-0.852 	0.323
 4.097 	0.314 	-0.166
 3.137 	0.107 	0.591
 3.033 	-0.430 	0.015
 3.557 	-0.357 	0.325
 3.179 	-0.135 	0.508
 3.344 	0.338 	0.769
 3.958 	0.856 	-0.218
 4.120 	0.503 	-0.427
 4.508 	0.209 	-0.425
 4.386 	0.336 	0.015
 4.477 	0.313 	0.124
 5.461 	0.911 	0.281
 5.419 	0.837 	-0.835
 5.336 	-0.117 	0.151
 5.463 	-0.690 	0.229
 4.124 	-0.331 	-0.046
 3.762 	0.549 	0.365
 3.645 	0.083 	0.328
 3.672 	-0.034 	0.265
 3.739 	0.013 	0.283
 3.155 	0.003 	0.417
 3.336 	0.080 	0.281
 3.865 	0.306 	-0.293
 4.016 	0.801 	0.025
 4.307 	1.010 	-0.208
 4.452 	0.758 	-0.626
 4.781 	0.543 	-0.611
 5.447 	0.804 	-0.243
 5.224 	0.632 	-0.114
 4.461 	-0.097 	0.353
 4.301 	0.005 	0.203
 4.004 	-0.352 	-0.090
 4.287 	-0.039 	-0.203
 4.439 	-0.097 	-0.112
 4.309 	-0.201 	-0.148
 4.551 	-0.101 	0.144
 3.854 	-0.231 	0.161
 3.775 	-0.551 	0.465
 4.048 	0.117 	-0.248
 4.069 	0.821 	-0.139
 4.242 	0.794 	-0.153
 4.335 	0.759 	-0.382
 4.825 	0.514 	-0.251
 5.149 	0.487 	0.251
 4.852 	0.549 	0.318
 4.610 	0.374 	0.029
 4.138 	-0.074 	0.356
 4.361 	0.005 	-0.026
 4.483 	-0.383 	-0.024
 4.171 	-0.311 	-0.025
 4.211 	0.018 	-0.142
 4.216 	-0.072 	-0.033
 3.956 	-0.290 	0.040
 3.658 	-0.666 	0.203
 3.261 	-0.557 	0.035
 3.738 	0.261 	0.250
 3.944 	0.059 	0.321
 4.479 	0.397 	0.175
 4.628 	0.584 	0.097
 4.342 	0.412 	0.646
 4.044 	0.060 	0.799
 4.279 	0.104 	0.286
 4.096 	-0.278 	0.132
 4.098 	-0.262 	-0.022
 4.149 	-0.647 	0.099
 4.214 	-0.058 	-0.173
 4.004 	-0.077 	-0.214
 3.597 	-0.173 	0.137
 3.500 	-0.520 	0.137
 3.218 	-0.698 	0.406
 3.507 	-1.001 	0.319
 3.380 	-0.950 	0.176
 3.780 	-1.211 	0.156
 3.858 	-0.213 	-0.219
 4.323 	0.519 	-0.515
 5.848 	0.220 	0.280
 5.987 	0.186 	0.475
 5.666 	0.064 	0.284
 5.086 	1.360 	0.719
 5.731 	0.678 	0.518
 6.859 	0.319 	-0.064
 6.913 	-0.357 	0.095
 6.236 	-0.092 	-0.100
 5.926 	0.164 	0.431
 6.803 	1.092 	0.186
 6.439 	2.206 	0.690
 7.220 	0.857 	-0.217
 5.587 	1.613 	0.265
 5.283 	1.820 	-0.538
 5.756 	1.829 	-0.707
 6.111 	0.923 	-0.678
 5.834 	0.844 	0.450
 6.795 	0.127 	0.341
 6.611 	0.831 	0.186
 6.924 	0.677 	-0.326
 6.852 	1.161 	-0.190
 6.950 	0.133 	-0.684
 6.926 	0.480 	-0.300
 6.763 	0.683 	0.721
 6.875 	-0.122 	0.312
 6.215 	0.409 	1.090
 6.579 	1.734 	0.468
 6.126 	0.957 	0.465
 6.750 	1.174 	0.298
 6.422 	0.678 	0.159
 6.252 	1.313 	-0.276
 6.398 	0.942 	-0.062
 6.381 	0.905 	-0.125
 5.634 	0.353 	0.643
 7.029 	0.676 	-0.044
 7.498 	0.859 	-0.513
 6.795 	0.865 	0.040
 6.692 	0.368 	-0.335
 6.546 	0.327 	0.477
 6.865 	0.492 	0.575
 5.966 	-0.154 	0.725
 5.346 	-0.193 	0.435
 5.534 	0.724 	0.286
 6.487 	1.617 	0.272
 5.686 	0.978 	0.557
 5.307 	1.026 	0.178
 5.347 	0.609 	0.432
 4.930 	0.177 	-0.460
 5.170 	0.814 	1.202
 5.273 	0.802 	0.427
 5.579 	0.503 	0.723
 6.051 	0.645 	0.727
 6.391 	1.263 	-0.162
 5.968 	1.007 	0.392
 5.174 	0.313 	1.141
 4.683 	-0.348 	0.325
 4.697 	-0.176 	0.664
 4.345 	-0.353 	0.320
 3.517 	0.162 	1.157
 4.468 	0.101 	0.376
 5.375 	0.875 	-0.018
 5.028 	0.501 	0.579
 5.369 	0.653 	0.142
 5.140 	0.861 	-0.677
 5.286 	0.872 	-0.067
 5.829 	0.026 	0.769
 6.093 	0.622 	0.297
 5.328 	-0.182 	0.434
 5.685 	1.206 	-0.279
 5.865 	1.530 	0.443
 4.995 	0.306 	0.860
 4.661 	-0.331 	0.411
 4.954 	-0.143 	0.475
 4.572 	0.041 	0.583
 5.231 	-0.074 	0.452
 4.460 	-0.141 	0.441
 4.219 	0.078 	0.625
 4.704 	0.275 	0.811
 4.304 	0.518 	0.572
 4.559 	0.384 	0.358
 6.008 	0.671 	-0.331
 5.930 	-0.074 	0.163
 5.678 	0.003 	1.111
 5.913 	0.696 	0.379
 5.342 	0.617 	0.420
 5.577 	0.607 	0.717
 5.622 	0.344 	0.419
 5.780 	-0.140 	0.319
 5.234 	-0.310 	0.558
 5.391 	0.040 	0.047
 5.761 	-0.816 	-0.001
 5.804 	-0.345 	-0.256
 5.596 	0.145 	-0.250
 4.768 	0.414 	0.377
 4.483 	0.760 	-0.197
 4.080 	0.133 	0.371
 6.069 	0.269 	0.051
 6.438 	0.108 	0.106
 5.664 	0.492 	0.149
 5.178 	0.356 	0.082
 5.600 	-0.317 	-0.291
 6.030 	0.108 	-0.005
 6.080 	-0.133 	-0.479
 5.426 	0.055 	0.280
 5.499 	0.116 	0.736
 5.281 	-0.084 	0.006
 5.579 	-0.482 	0.295
 5.570 	-0.104 	-0.167
 5.261 	-0.005 	-0.196
 5.858 	0.184 	-0.126
 5.567 	0.429 	-0.149
 5.323 	0.651 	-0.458
 5.050 	-0.120 	0.074
 5.188 	0.152 	0.223
 5.712 	0.626 	0.051
 4.683 	-0.490 	0.495
 5.172 	-1.014 	0.285
 5.279 	-0.244 	-0.356
 5.438 	-0.128 	-0.270
 5.580 	0.291 	-0.079
 5.631 	0.185 	0.303
 5.589 	-0.006 	-0.428
 5.499 	0.170 	0.109
 5.266 	0.085 	-0.137
 5.165 	-0.235 	-0.027
 5.201 	0.242 	-0.198
 5.412 	0.873 	-0.020
 5.319 	1.182 	-0.130
 4.415 	-0.036 	1.070
 4.678 	-1.188 	0.808
 3.909 	-0.619 	0.851
 4.662 	-0.950 	-0.510
 4.882 	-1.019 	-0.047
 4.366 	-0.510 	0.481
 4.708 	-0.033 	0.150
 4.603 	-0.006 	0.471
 5.412 	0.332 	-0.025
 5.341 	0.358 	-0.313
 5.084 	0.161 	-0.193
 4.848 	-0.002 	-0.093
 4.615 	0.377 	0.258
 4.499 	0.229 	0.546
 4.768 	0.931 	-0.043
 5.114 	0.899 	-0.457
 5.429 	-0.497 	-0.436
 5.330 	-1.127 	0.482
 5.607 	-0.717 	0.340
 5.811 	-0.901 	-0.039
 5.292 	-0.692 	-0.334
 4.451 	-0.815 	0.198
 3.886 	-0.806 	0.582
 3.825 	-0.476 	0.163
 4.256 	-0.860 	0.016
 5.197 	-0.437 	-0.850
 5.173 	0.003 	-0.862
 5.053 	0.454 	-0.315
 5.003 	0.611 	-0.253
 4.628 	0.699 	-0.312
 4.552 	0.873 	-0.532
 5.155 	0.826 	-0.909
 5.950 	-0.367 	0.334
 6.263 	-0.590 	0.009
 6.286 	-0.985 	0.131
 5.775 	-0.722 	-0.090
 5.519 	-0.353 	-0.063
 4.547 	-0.603 	-0.208
 3.599 	-0.148 	0.841
 2.974 	-0.610 	0.556
 3.638 	-0.724 	0.097
 4.673 	-1.253 	0.565
 4.406 	0.142 	-0.370
 4.754 	0.432 	-0.793
 5.048 	0.712 	-0.358
 5.133 	0.640 	-0.467
 5.315 	0.481 	-0.882
 5.333 	0.223 	-0.531
 6.028 	-0.566 	-0.549
 5.907 	0.068 	-0.007
 5.313 	-0.314 	0.542
 5.188 	-0.181 	0.063
 4.746 	-0.651 	0.515
 4.938 	-0.482 	0.207
 4.194 	0.181 	0.311
 3.865 	-0.838 	0.234
 3.761 	-0.197 	0.723
 3.725 	-0.357 	0.600
 4.057 	-0.188 	0.669
 4.421 	0.291 	-0.331
 4.591 	0.870 	-0.513
 4.742 	0.324 	-0.596
 4.967 	0.441 	-0.485
 4.787 	0.184 	0.037
 5.599 	-0.660 	-0.457
 5.760 	-0.584 	-0.874
 6.519 	0.512 	-0.298
 6.553 	0.092 	-0.247
 6.265 	0.239 	-0.050
 5.429 	-0.229 	0.400
 4.858 	-0.271 	0.441
 4.846 	-1.114 	0.229
 4.242 	0.043 	0.501
 4.490 	-0.024 	0.268
 5.191 	-0.124 	0.053
 4.797 	0.355 	0.030
 4.999 	0.485 	-0.235
 5.445 	0.508 	-0.912
 5.162 	0.152 	-0.883
 4.867 	0.588 	-0.514
 5.208 	-0.454 	-0.041
 5.150 	-0.535 	-0.189
 5.235 	0.237 	0.390
 5.951 	0.524 	0.551
 5.909 	0.593 	-0.079
 5.951 	0.215 	0.184
 5.748 	-0.089 	0.595
 4.636 	-0.533 	-0.126
 3.860 	0.181 	0.629
 4.132 	0.347 	0.536
 4.706 	0.349 	0.658
 4.805 	0.088 	0.337
 4.802 	0.130 	0.218
 5.063 	0.416 	0.015
 5.118 	0.363 	-0.345
 5.252 	0.534 	-0.373
 4.781 	-0.304 	0.396
 4.736 	-0.100 	0.279
 4.475 	-0.022 	0.724
 5.052 	0.182 	0.433
 5.014 	-0.068 	0.431
 5.122 	-0.280 	-0.165
 5.201 	0.133 	0.232
 4.682 	0.350 	-0.247
 4.108 	-0.006 	0.039
 4.436 	0.015 	-0.053
 4.391 	-0.388 	0.219
 4.113 	-0.195 	0.205
 4.145 	-0.363 	0.414
 4.349 	0.146 	0.521
 4.571 	0.577 	0.059
 4.632 	0.762 	0.178
 4.235 	-0.229 	0.300
 4.298 	-0.092 	0.401
 4.547 	0.141 	0.868
 4.293 	-0.259 	0.483
 4.232 	-0.275 	0.245
 4.516 	-0.470 	0.289
 4.757 	0.150 	-0.080
 4.739 	0.626 	0.035
 4.710 	0.262 	0.209
 4.945 	-0.133 	0.109
 4.388 	-0.423 	0.373
 4.337 	0.507 	0.174
 4.056 	-0.140 	0.133
 3.781 	0.124 	0.547
 4.112 	-0.016 	0.822
 4.554 	0.342 	0.347
 5.336 	0.290 	0.987
 5.603 	0.588 	0.331
 5.845 	0.283 	0.292
 5.869 	1.423 	0.467
 6.613 	0.926 	0.172
 6.981 	-0.458 	-0.825
 7.938 	0.176 	-0.140
 7.025 	-0.185 	-0.503
 7.029 	-0.180 	0.330
 7.645 	0.782 	0.509
 7.261 	1.129 	0.330
 7.571 	1.144 	0.127
 6.975 	0.786 	0.602
 6.472 	1.377 	0.749
 6.604 	1.845 	0.377
 6.877 	1.938 	-0.769
 7.018 	0.831 	0.336
 6.865 	0.488 	0.072
 6.955 	0.474 	0.227
 7.515 	0.455 	-0.229
 7.414 	0.723 	-0.244
 6.614 	0.072 	-0.617
 5.609 	-0.005 	0.423
 5.633 	0.099 	-0.298
 5.957 	-0.299 	0.896
 6.043 	0.681 	1.332
 6.720 	0.530 	0.698
 6.808 	1.034 	0.418
 5.981 	0.866 	0.740
 6.702 	0.857 	0.606
 6.296 	0.274 	-0.245
 6.230 	0.917 	-0.305
 6.449 	0.770 	0.173
 6.811 	0.787 	-0.405
 6.946 	0.322 	-0.673
 7.064 	0.544 	-1.013
 6.909 	0.742 	-0.556
 7.286 	0.450 	-0.119
 6.259 	-0.365 	0.964
 5.432 	0.215 	0.882
 5.537 	-0.364 	1.038
 5.104 	0.043 	0.538
 5.524 	0.998 	0.745
 5.906 	0.517 	0.517
 5.699 	0.531 	0.800
 5.335 	-0.591 	0.534
 5.646 	0.676 	0.650
 5.845 	0.171 	0.522
 5.915 	0.851 	0.603
 6.807 	0.709 	0.693
 7.272 	0.995 	0.482
 7.282 	0.814 	0.476
 7.046 	0.830 	0.303
 7.238 	1.122 	0.728
 6.157 	0.498 	1.098
 4.710 	0.032 	0.894
 4.439 	0.256 	0.451
 4.311 	-0.157 	0.736
 4.360 	0.155 	0.869
 4.741 	0.045 	0.860
 5.334 	0.464 	0.088
 4.860 	-0.103 	0.620
 5.497 	-0.007 	0.261
 5.784 	-0.024 	-0.194
 5.624 	0.677 	-0.101
 5.986 	0.099 	0.520
 6.352 	1.217 	1.275
 6.581 	0.862 	1.126
 7.434 	0.940 	0.088
 6.536 	1.363 	1.383
 5.635 	0.825 	1.120
 5.246 	0.092 	0.819
 4.925 	-0.125 	0.655
 5.101 	0.409 	0.154
 5.246 	0.120 	0.919
 4.741 	-0.559 	0.810
 4.799 	-0.196 	1.029
 4.930 	-0.139 	0.691
 5.566 	-0.961 	0.261
 5.458 	-0.134 	0.319
 6.251 	-0.238 	-0.145
 6.265 	0.284 	-0.284
 6.268 	0.664 	-0.005
 6.683 	-0.101 	-0.138
 6.537 	1.462 	0.663
 6.371 	1.473 	0.869
 6.403 	0.219 	0.605
 6.190 	0.030 	0.433
 5.938 	-0.062 	0.730
 5.616 	0.028 	0.564
 5.823 	-0.472 	-0.039
 5.797 	-0.382 	0.110
 5.520 	-0.396 	0.060
 6.124 	-0.047 	0.237
 5.891 	-0.313 	-0.340
 5.462 	0.101 	0.854
 6.566 	0.111 	0.472
 5.728 	0.018 	0.440
 6.304 	0.744 	0.288
 5.955 	0.335 	0.782
 5.590 	0.769 	0.445
 6.013 	0.651 	0.225
 6.512 	0.488 	-0.347
 6.362 	-0.120 	0.270
 6.200 	-0.149 	0.148
 6.486 	0.065 	-0.326
 6.252 	-0.200 	0.333
 6.105 	-0.052 	-0.256
 5.571 	-0.495 	-0.388
 5.914 	-0.227 	-0.419
 6.123 	0.090 	0.037
 6.066 	-0.265 	-0.861
 4.987 	-0.218 	1.046
 4.252 	-0.656 	1.313
 4.979 	0.014 	0.910
 5.632 	0.884 	1.009
 5.405 	-0.192 	0.526
 6.174 	-0.540 	-0.325
 6.068 	-0.497 	0.126
 6.123 	0.000 	0.275
 6.097 	0.110 	0.156
 6.043 	0.019 	-0.404
 6.021 	0.187 	0.290
 5.563 	0.083 	-0.018
 5.509 	-0.395 	-0.266
 5.185 	-0.328 	-0.290
 4.999 	-0.596 	-0.262
 5.769 	-0.563 	-0.253
 3.966 	0.266 	1.035
 4.654 	-0.615 	0.035
 4.707 	-0.644 	0.336
 5.309 	0.323 	-0.207
 4.950 	-0.727 	0.167
 5.304 	-1.320 	0.452
 6.190 	-0.413 	-0.068
 5.899 	-0.266 	0.043
 5.408 	0.094 	-0.291
 5.185 	0.004 	-0.313
 5.295 	0.156 	-0.055
 5.482 	-0.089 	0.106
 4.967 	0.302 	0.270
 5.193 	0.004 	-0.091
 6.064 	-0.001 	-0.578
 6.405 	-0.081 	-0.964
 4.854 	0.492 	-0.267
 4.921 	-0.210 	-0.193
 5.381 	-0.006 	-0.272
 5.144 	-0.712 	0.109
 5.716 	-0.471 	0.014
 5.797 	-1.016 	0.024
 4.632 	-1.034 	0.906
 4.656 	-0.080 	0.203
 4.794 	0.132 	0.053
 5.126 	0.069 	-0.021
 5.119 	-0.471 	-0.087
 5.254 	-0.007 	-0.224
 5.657 	0.647 	-0.064
 5.810 	0.406 	-0.402
 5.619 	-0.385 	-0.371
 5.813 	-0.267 	-0.564
 5.988 	0.125 	-0.108
 5.936 	-0.165 	0.101
 6.256 	0.064 	-0.742
 6.379 	-0.269 	0.155
 5.563 	-0.496 	0.304
 4.897 	-0.155 	0.930
 4.890 	-0.655 	0.603
 4.848 	-0.413 	0.424
 5.394 	-0.409 	-0.407
 5.239 	-0.071 	-0.533
 5.543 	-0.783 	-0.331
 5.072 	-0.152 	-0.381
 5.630 	0.259 	-0.233
 5.478 	0.021 	-0.363
 5.430 	-0.175 	-0.332
 4.799 	-0.547 	-0.158
 6.146 	0.065 	-0.170
 6.599 	0.068 	0.040
 6.583 	-0.410 	-0.173
 5.883 	-0.096 	0.287
 5.704 	0.284 	0.052
 5.589 	-0.363 	0.730
 5.571 	-0.231 	0.813
 4.674 	-0.361 	0.661
 4.912 	-0.358 	0.333
 5.287 	-0.145 	-0.012
 5.524 	-0.388 	-0.019
 5.309 	-0.646 	0.383
 5.638 	-0.169 	-0.706
 5.561 	-0.262 	-0.273
 5.179 	-0.257 	0.000
 5.254 	-0.001 	-0.401
 6.187 	-0.782 	-0.591
 6.244 	-0.926 	-0.042
 6.074 	-0.591 	-0.587
 5.680 	0.320 	-0.159
 6.554 	0.261 	-0.319
 5.806 	0.111 	0.454
 5.823 	-0.208 	0.772
 5.362 	0.118 	0.631
 5.979 	-0.650 	-0.006
 6.122 	-0.470 	0.083
 5.949 	-0.327 	-0.534
 5.409 	-0.378 	0.367
 5.722 	-0.206 	-0.286
 6.041 	0.051 	-0.951
 5.925 	0.105 	-0.347
 5.308 	0.487 	-0.337
 5.465 	-1.111 	0.154
 4.968 	-0.462 	-0.119
 4.712 	-0.468 	-0.126
 5.194 	-0.253 	-0.082
 5.778 	-0.175 	-0.540
 6.390 	0.663 	0.353
 6.721 	0.123 	0.757
 6.115 	-0.290 	-0.066
 6.105 	-0.036 	0.044
 5.561 	-0.773 	0.407
 4.796 	0.040 	0.342
 5.180 	0.178 	0.172
 5.465 	-0.428 	-0.113
 5.468 	-0.114 	-0.131
 5.971 	0.156 	-0.491
 5.837 	0.307 	-0.267
 4.702 	-0.629 	0.259
 4.558 	-0.581 	0.369
 4.317 	-0.461 	0.584
 4.642 	-0.812 	0.800
 5.151 	-0.240 	0.974
 5.905 	0.537 	0.625
 5.930 	0.402 	0.191
 6.357 	0.153 	-0.315
 5.898 	0.432 	0.164
 4.796 	-0.287 	0.443
 4.417 	-0.188 	0.845
 4.672 	-0.693 	0.484
 4.837 	-0.603 	0.556
 4.818 	-0.088 	0.470
 4.845 	-0.023 	0.386
 4.906 	0.288 	-0.226
 5.034 	-0.647 	0.391
 4.449 	-0.011 	0.388
 4.616 	-0.013 	0.263
 4.434 	0.129 	0.016
 4.273 	-0.573 	0.136
 4.489 	-0.470 	-0.015
 4.963 	-0.262 	-0.077
 4.645 	0.065 	-0.053
 4.905 	0.324 	0.191
 5.318 	0.087 	0.002
 5.137 	0.042 	0.061
 4.902 	-0.569 	0.238
 4.660 	-0.662 	0.353
 4.369 	-0.040 	0.934
 4.486 	0.075 	0.544
 5.146 	-0.106 	0.554
 6.890 	-0.292 	0.143
 6.831 	0.316 	0.245
 6.688 	-0.037 	0.071
 7.386 	0.051 	0.216
 7.392 	0.491 	0.001
 7.119 	0.070 	-0.338
 7.930 	-0.185 	-0.595
 8.532 	1.029 	-0.282
 8.074 	0.336 	0.574
 8.343 	0.614 	0.494
 7.131 	0.882 	0.958
 7.121 	0.788 	0.425
 7.300 	0.939 	0.489
 7.435 	0.850 	0.542
 7.255 	0.645 	0.960
 7.595 	1.464 	0.055
 6.660 	-0.340 	0.184
 6.703 	0.728 	0.285
 6.923 	-0.145 	-0.096
 6.552 	-0.218 	-0.080
 7.069 	0.637 	-0.272
 7.299 	-0.054 	0.153
 7.380 	-0.318 	0.141
 6.754 	0.827 	0.285
 6.235 	-0.142 	1.131
 6.481 	0.850 	1.158
 6.244 	0.844 	0.803
 5.756 	0.134 	0.476
 6.539 	1.136 	1.168
 6.684 	0.444 	1.004
 6.499 	0.339 	0.745
 6.620 	0.913 	0.673
 6.688 	0.529 	0.101
 6.985 	0.511 	-0.186
 6.582 	-0.191 	-0.771
 6.417 	-0.326 	-0.383
 6.439 	-0.512 	-0.540
 6.626 	0.547 	0.473
 5.321 	0.037 	1.181
 5.247 	0.264 	1.146
 5.504 	-0.318 	0.967
 5.744 	1.069 	0.969
 5.546 	0.474 	1.153
 5.671 	0.519 	1.363
 5.634 	0.276 	0.587
 6.524 	0.343 	0.814
 6.479 	0.174 	0.520
 6.692 	0.395 	0.291
 6.013 	-0.144 	0.649
 6.655 	0.456 	1.309
 6.851 	-0.356 	0.591
 5.737 	-0.287 	-0.014
 6.789 	-0.259 	0.144
 5.366 	0.665 	0.664
 5.712 	0.639 	1.271
 5.845 	0.458 	1.250
 4.736 	-0.408 	1.145
 4.834 	0.409 	0.744
 5.529 	-0.486 	0.605
 5.844 	0.719 	0.444
 5.490 	-0.022 	0.918
 5.984 	-0.447 	0.249
 6.190 	-0.791 	0.560
 6.857 	0.286 	-0.087
 6.801 	0.019 	-0.241
 5.923 	-0.174 	-0.218
 6.571 	0.292 	0.636
 6.985 	-0.331 	0.241
 6.159 	0.592 	0.351
 5.348 	1.145 	1.309
 5.421 	0.778 	1.144
 5.704 	-0.050 	1.129
 5.793 	-0.047 	0.860
 4.906 	0.170 	0.448
 5.051 	-0.109 	0.895
 4.910 	0.655 	0.690
 5.425 	-0.360 	0.637
 5.913 	-0.937 	0.484
 5.781 	-0.773 	0.176
 5.940 	-0.140 	0.473
 6.023 	-0.568 	-0.044
 6.174 	-0.328 	0.080
 6.261 	0.540 	0.400
 5.454 	-0.656 	-0.033
 5.830 	0.721 	1.002
 6.512 	1.694 	0.658
 6.544 	0.607 	1.043
 5.928 	-0.079 	1.253
 6.090 	0.384 	0.557
 6.186 	-0.234 	0.519
 6.113 	-0.350 	0.299
 6.243 	0.293 	0.062
 5.955 	-0.523 	0.012
 5.999 	-0.827 	-0.022
 6.160 	-0.730 	-0.040
 6.411 	-0.196 	0.514
 6.217 	-0.094 	0.146
 6.568 	-0.405 	0.157
 5.668 	0.172 	0.323
 5.033 	0.041 	1.206
 4.888 	0.208 	1.084
 5.657 	0.035 	0.794
 6.800 	0.035 	0.499
 6.860 	0.058 	0.371
 6.966 	0.153 	0.205
 6.653 	0.092 	0.013
 6.329 	-0.517 	0.106
 6.236 	-0.146 	0.114
 6.352 	-0.363 	-0.213
 6.510 	-0.641 	-0.436
 5.893 	-0.843 	-0.339
 6.081 	-0.249 	-0.447
 5.718 	-0.021 	1.435
 5.773 	0.894 	1.412
 5.830 	0.750 	1.054
 6.067 	0.121 	1.145
 5.839 	0.288 	0.170
 5.628 	-1.054 	0.168
 5.917 	-0.558 	0.802
 6.351 	-0.253 	0.575
 6.269 	0.241 	0.127
 6.339 	-0.131 	-0.113
 5.906 	-0.488 	0.111
 5.727 	-0.800 	0.330
 6.059 	-1.023 	-0.360
 6.581 	-1.078 	-0.265
 7.033 	-0.492 	-0.770
 6.348 	-0.260 	-0.676
 5.452 	0.365 	0.720
 4.989 	0.569 	0.315
 5.261 	0.155 	0.329
 5.217 	0.320 	-0.116
 5.682 	-0.183 	0.194
 6.596 	-1.464 	0.308
 5.800 	-0.722 	0.066
 5.930 	-0.270 	0.386
 5.883 	0.190 	-0.131
 5.958 	0.203 	-0.051
 5.935 	-0.266 	0.222
 6.391 	-0.569 	-0.312
 6.513 	-0.729 	-0.365
 6.738 	-1.058 	-0.549
 6.700 	-0.494 	-0.814
 6.825 	-0.320 	-0.955
 5.407 	0.413 	0.422
 5.709 	0.186 	-0.229
 5.162 	0.186 	-0.207
 5.391 	0.016 	-0.178
 6.513 	-0.827 	0.015
 5.899 	-0.491 	0.251
 5.640 	-0.865 	0.704
 5.379 	-0.185 	0.427
 5.247 	0.246 	-0.006
 5.501 	-0.174 	-0.243
 5.797 	-0.550 	-0.136
 6.286 	-0.701 	-0.401
 6.469 	-0.423 	-0.533
 6.600 	-0.314 	-0.509
 5.843 	-0.537 	-0.086
 6.108 	-0.174 	-0.472
 6.765 	-0.043 	-0.651
 6.848 	-0.146 	0.080
 6.283 	0.413 	0.264
 6.571 	-0.421 	0.044
 5.900 	-0.547 	0.293
 5.620 	-0.025 	0.823
 6.171 	-0.575 	0.803
 6.222 	-0.180 	0.496
 5.636 	-0.022 	-0.259
 5.898 	-0.036 	-0.472
 5.793 	-0.517 	-0.270
 5.568 	-0.699 	-0.000
 6.001 	-0.043 	-0.239
 6.009 	0.074 	-0.322
 5.832 	-0.067 	-0.381
 5.524 	-0.384 	-0.258
 6.363 	-0.381 	-0.151
 6.162 	-0.456 	-0.044
 6.518 	-0.120 	-0.126
 6.599 	-0.396 	-0.033
 6.239 	-0.081 	0.092
 5.719 	0.244 	0.717
 6.013 	-0.110 	0.778
 6.097 	-0.138 	0.318
 5.607 	-0.217 	0.632
 6.193 	-0.436 	0.117
 6.398 	-0.234 	-0.231
 6.332 	-0.392 	-0.037
 5.710 	0.010 	-0.145
 5.906 	-0.043 	-0.029
 5.625 	-0.157 	-0.229
 5.526 	-0.180 	-0.158
 5.987 	-0.390 	0.324
 5.797 	-0.365 	0.289
 6.060 	-0.665 	-0.199
 6.184 	-0.245 	0.058
 6.430 	-0.053 	-0.216
 6.418 	0.549 	0.138
 6.313 	0.312 	0.492
 6.491 	-0.167 	0.670
 6.239 	-0.639 	0.245
 6.058 	-0.775 	-0.055
 6.259 	-0.110 	-0.418
 6.337 	-0.334 	0.024
 5.759 	-0.406 	-0.012
 5.837 	-0.356 	-0.427
 6.267 	-0.074 	-0.479
 5.922 	0.045 	-0.262
 6.049 	-1.083 	0.042
 5.918 	-0.309 	0.047
 5.185 	-0.994 	-0.011
 5.997 	-1.015 	-0.034
 5.873 	-0.673 	-0.527
 5.804 	0.692 	0.095
 5.908 	0.483 	0.682
 6.322 	-0.286 	0.011
 5.850 	-0.165 	0.090
 5.205 	-0.427 	0.272
 5.125 	-0.237 	0.345
 4.841 	-0.870 	0.340
 5.190 	-0.961 	-0.429
 5.481 	-1.034 	-0.245
 5.439 	-0.672 	-0.350
 6.133 	0.081 	-0.415
 5.239 	-0.774 	0.630
 5.222 	0.019 	0.029
 5.275 	-0.575 	-0.164
 5.422 	-0.630 	-0.401
 5.558 	-0.602 	0.514
 5.637 	0.590 	0.195
 5.447 	0.253 	0.316
 5.237 	-0.211 	0.190
 5.138 	0.070 	0.452
 4.884 	-0.054 	0.402
 4.645 	-0.519 	0.801
 4.779 	-0.717 	0.464
 5.092 	-0.586 	0.140
 5.217 	-0.585 	0.051
 5.009 	-0.399 	-0.180
 5.206 	-0.161 	-0.002
 5.543 	-1.113 	1.051
 5.871 	-1.218 	0.824
 5.647 	0.392 	0.219
 4.849 	-0.483 	-0.392
 5.311 	-0.402 	-0.106
 5.761 	-0.490 	0.012
 5.912 	0.371 	0.659
 5.424 	-0.313 	0.136
 5.287 	-0.376 	0.152
 5.314 	-0.135 	0.024
 5.422 	-0.566 	-0.031
 5.189 	-0.098 	0.326
 4.645 	-0.496 	0.568
 5.100 	-0.357 	0.743
 4.676 	-0.103 	0.444
 4.929 	-0.321 	0.582
 6.867 	-0.379 	0.535
 6.595 	-0.054 	0.659
 6.911 	-0.422 	0.041
 7.205 	0.261 	0.734
 7.106 	0.212 	0.027
 7.320 	-0.729 	-0.186
 7.490 	-0.635 	-0.509
 7.592 	0.992 	-0.504
 7.912 	0.085 	0.875
 8.583 	0.373 	1.123
 7.808 	0.694 	0.782
 7.290 	0.568 	0.921
 7.374 	1.158 	0.792
 7.261 	0.865 	0.410
 7.599 	0.695 	0.994
 7.448 	0.420 	0.632
 6.584 	-0.321 	0.289
 6.294 	-0.070 	-0.229
 6.251 	-0.560 	-0.416
 6.141 	0.521 	-0.107
 6.700 	-0.122 	0.380
 6.507 	-0.455 	-0.207
 6.930 	-0.596 	-0.198
 6.786 	-0.028 	0.803
 6.615 	-0.443 	1.747
 6.464 	0.067 	0.727
 7.361 	1.207 	0.896
 6.670 	0.944 	0.787
 6.279 	0.506 	0.745
 6.743 	0.882 	0.704
 6.580 	-0.057 	0.835
 7.084 	0.720 	0.045
 6.800 	-0.943 	0.143
 6.609 	-0.375 	-0.033
 6.783 	0.108 	-0.589
 6.522 	-0.248 	0.293
 6.499 	-0.683 	-0.429
 6.234 	-0.015 	-0.658
 6.950 	-0.094 	0.285
 5.625 	0.064 	1.642
 5.534 	-0.555 	1.396
 6.133 	0.386 	1.250
 5.695 	1.140 	1.367
 5.702 	0.722 	0.865
 6.045 	0.457 	0.765
 6.419 	0.618 	1.052
 7.450 	0.298 	0.597
 6.984 	0.311 	0.604
 5.891 	-0.544 	0.455
 6.403 	-0.847 	1.269
 6.844 	0.111 	0.122
 6.687 	-0.208 	-0.001
 6.228 	-0.265 	-0.119
 6.254 	0.758 	1.532
 5.819 	0.850 	1.259
 5.812 	0.660 	1.284
 6.006 	-0.407 	1.215
 5.866 	-0.402 	1.150
 5.569 	-0.054 	1.073
 6.401 	-0.003 	0.710
 6.344 	0.807 	0.516
 6.127 	0.280 	1.191
 7.025 	0.927 	0.206
 7.275 	0.585 	0.179
 6.094 	-0.381 	0.013
 5.706 	-1.003 	-0.050
 5.969 	-0.402 	-0.199
 6.493 	-0.260 	0.485
 6.344 	0.419 	0.387
 5.430 	1.262 	1.440
 5.485 	0.950 	1.476
 6.279 	-0.293 	0.679
 6.520 	-0.624 	0.390
 6.801 	0.251 	0.985
 5.941 	-0.676 	0.527
 5.737 	-0.049 	0.585
 5.987 	0.743 	0.957
 6.133 	-0.527 	0.297
 6.687 	-0.358 	0.331
 7.225 	-0.339 	0.432
 6.062 	-0.591 	-0.139