# vtk DataFile Version 3.0
HighT1
ASCII
DATASET STRUCTURED_POINTS
DIMENSIONS 16 16 19
ORIGIN 929.001000000000 929.001000000000 5.001000000000
SPACING 10.000000000000 10.000000000000 10.000000000000
POINT_DATA 4864
 FIELD attributes 1
U 3 4864 float
2.487 	-1.188 	0.271
 2.349 	-0.641 	0.835
 2.866 	0.700 	0.651
 2.474 	-0.183 	1.300
 2.976 	0.808 	-0.096
 3.853 	-0.671 	-0.027
 3.835 	-0.904 	-0.020
 3.220 	-0.501 	-0.020
 3.006 	0.054 	0.222
 3.533 	0.510 	0.103
 3.527 	0.402 	0.199
 3.459 	0.003 	0.248
 3.252 	-0.429 	0.250
 3.335 	-0.401 	0.128
 3.663 	-0.466 	0.047
 4.033 	-0.684 	0.068
 4.145 	-0.636 	0.123
 4.736 	-0.698 	-0.246
 4.996 	-0.143 	-0.144
 3.438 	0.066 	-0.079
 3.701 	0.466 	-0.448
 3.981 	-0.793 	-0.286
 4.480 	-0.383 	-0.370
 4.409 	0.311 	-0.072
 4.304 	-0.549 	0.244
 4.371 	-0.004 	-0.037
 3.416 	-0.001 	0.101
 3.411 	0.006 	0.049
 3.359 	-0.373 	-0.213
 3.853 	-0.571 	-0.056
 3.224 	-1.256 	0.213
 3.674 	-1.091 	0.081
 5.499 	0.049 	-0.584
 5.139 	0.339 	-0.167
 4.228 	0.063 	-0.052
 4.025 	0.624 	-0.275
 4.156 	0.495 	-0.304
 3.965 	0.351 	-0.129
 3.551 	-0.009 	0.156
 4.109 	0.524 	-0.049
 2.652 	0.156 	0.444
 2.385 	0.131 	0.512
 3.314 	-0.111 	0.363
 3.667 	-0.720 	0.369
 3.881 	-0.806 	0.033
 4.185 	-1.466 	0.189
 4.410 	-1.344 	-0.102
 4.250 	-0.941 	0.117
 5.004 	1.088 	-0.625
 5.616 	1.272 	-0.341
 5.014 	0.228 	0.199
 3.886 	0.421 	0.181
 3.686 	0.634 	0.045
 4.054 	0.509 	-0.368
 5.068 	0.659 	-0.378
 5.170 	-0.215 	-0.357
 5.233 	0.400 	0.200
 5.200 	0.690 	-0.099
 5.320 	0.428 	-0.330
 5.253 	0.090 	-0.124
 5.012 	-1.255 	0.031
 4.442 	-0.917 	0.120
 3.600 	-0.936 	0.009
 3.725 	-1.078 	-0.669
 3.570 	1.035 	0.246
 4.109 	1.773 	0.301
 3.702 	0.889 	0.457
 3.280 	0.012 	0.314
 2.781 	-0.093 	0.303
 3.204 	0.286 	0.088
 3.686 	0.534 	-0.138
 4.663 	0.892 	-0.583
 5.115 	0.542 	-0.227
 5.192 	0.616 	0.025
 5.362 	0.563 	-0.021
 5.427 	0.321 	-0.094
 5.005 	-0.037 	-0.040
 3.818 	-0.740 	0.241
 2.457 	-0.079 	-0.190
 2.497 	0.252 	0.372
 3.512 	0.724 	0.154
 3.411 	0.228 	0.176
 3.489 	-0.148 	0.057
 3.471 	-0.246 	0.082
 3.468 	-0.261 	-0.185
 3.594 	-0.152 	-0.134
 3.610 	0.151 	0.094
 3.933 	0.551 	0.044
 4.589 	0.693 	-0.022
 4.872 	0.784 	0.071
 4.881 	0.411 	0.124
 5.001 	-0.102 	-0.137
 4.677 	0.103 	-0.087
 4.522 	0.069 	0.218
 4.717 	0.364 	-0.085
 4.995 	-0.008 	-0.612
 2.231 	0.162 	0.191
 2.418 	0.189 	0.064
 2.476 	0.029 	0.256
 2.726 	-0.199 	0.208
 3.174 	-0.422 	0.287
 3.671 	-0.594 	0.243
 3.989 	-0.548 	0.278
 4.066 	-0.150 	0.215
 4.325 	0.366 	0.147
 4.556 	0.170 	0.177
 4.640 	0.054 	0.106
 4.504 	0.170 	0.092
 4.567 	-0.068 	0.187
 4.991 	-0.629 	0.144
 5.138 	-0.609 	0.259
 5.018 	-0.731 	0.190
 3.886 	0.105 	-0.010
 3.770 	0.340 	-0.072
 3.904 	0.414 	-0.388
 4.071 	0.053 	-0.369
 4.351 	-0.359 	-0.195
 4.509 	-0.428 	-0.160
 4.859 	-0.360 	-0.109
 4.963 	-0.060 	-0.124
 5.230 	0.007 	0.006
 5.644 	0.350 	-0.211
 5.709 	-0.111 	0.018
 5.588 	-0.044 	0.045
 5.738 	-0.468 	-0.073
 5.900 	-0.820 	-0.266
 5.888 	-0.502 	-0.490
 6.391 	-0.108 	-0.661
 5.047 	-0.235 	-0.444
 4.631 	-0.458 	0.498
 4.251 	0.499 	0.061
 4.475 	0.666 	-0.190
 4.492 	0.190 	-0.135
 4.569 	-0.160 	-0.039
 4.725 	-0.438 	-0.002
 4.986 	-0.144 	-0.008
 5.324 	-0.043 	-0.144
 5.500 	0.116 	0.027
 5.388 	0.147 	0.067
 5.160 	-0.367 	0.053
 5.410 	-0.136 	-0.418
 5.632 	-0.110 	-0.281
 5.663 	-0.347 	-0.264
 5.514 	0.090 	-0.217
 3.490 	0.194 	0.121
 3.322 	0.271 	0.103
 3.481 	-0.213 	0.274
 3.684 	0.361 	-0.106
 4.407 	0.161 	-0.285
 4.683 	0.201 	-0.081
 4.627 	-0.207 	0.097
 4.986 	-0.828 	0.145
 5.458 	0.061 	-0.142
 5.408 	-0.110 	-0.071
 5.345 	-0.025 	0.124
 4.244 	-0.375 	0.140
 4.344 	0.539 	-0.294
 4.210 	0.048 	0.128
 4.582 	-0.179 	0.192
 5.144 	-0.442 	-0.015
 5.622 	1.007 	-0.239
 5.378 	0.375 	-0.467
 4.856 	-0.400 	0.487
 3.419 	-0.203 	-0.017
 4.174 	-0.052 	-0.222
 4.866 	0.018 	-0.374
 4.577 	0.376 	0.319
 4.329 	-0.160 	0.107
 3.520 	-0.234 	0.217
 3.243 	-0.175 	0.420
 3.576 	-0.820 	0.328
 4.157 	-0.630 	0.313
 4.186 	-0.334 	0.181
 4.510 	-0.573 	0.219
 5.609 	0.201 	-0.382
 5.161 	0.076 	0.040
 5.587 	1.085 	-0.107
 5.573 	0.741 	-0.265
 4.807 	0.163 	0.313
 4.526 	-0.632 	0.095
 4.039 	0.378 	0.157
 3.527 	0.168 	-0.020
 3.655 	0.639 	0.268
 3.613 	-0.147 	0.144
 3.188 	-1.259 	0.118
 4.133 	-0.673 	-0.381
 4.503 	-0.967 	-0.375
 4.736 	-0.971 	-0.952
 5.259 	-0.310 	-0.785
 5.664 	0.095 	-0.680
 5.997 	0.162 	-0.522
 6.252 	0.609 	-0.247
 3.829 	0.786 	-0.061
 3.860 	0.556 	0.096
 3.629 	0.082 	-0.121
 3.887 	-0.343 	0.225
 2.956 	0.269 	0.484
 2.938 	0.892 	0.137
 3.635 	0.798 	-0.193
 4.822 	0.155 	-0.580
 4.740 	-0.726 	-0.123
 4.018 	-0.484 	-0.039
 3.241 	-0.960 	-0.261
 3.655 	-0.604 	-0.263
 3.968 	0.396 	0.080
 4.831 	0.816 	-0.242
 5.010 	1.042 	0.188
 4.279 	1.218 	0.546
 3.854 	0.782 	-0.178
 4.499 	0.175 	-0.488
 5.749 	0.061 	-0.386
 6.108 	0.193 	-0.600
 5.476 	0.858 	0.033
 4.436 	0.631 	0.044
 4.604 	0.280 	0.104
 5.013 	0.265 	-0.352
 5.112 	0.250 	0.459
 4.946 	-0.000 	-0.199
 3.472 	0.236 	-0.102
 3.501 	-0.115 	-0.064
 3.223 	-0.181 	0.220
 3.672 	0.208 	0.004
 3.572 	0.734 	-0.064
 3.924 	1.080 	-0.129
 4.512 	0.066 	0.145
 4.612 	0.002 	-0.154
 4.518 	0.523 	-0.069
 5.218 	0.145 	0.027
 5.787 	1.205 	0.005
 5.383 	0.838 	0.007
 5.810 	0.326 	0.188
 3.741 	0.221 	0.274
 3.939 	0.050 	0.024
 3.649 	0.032 	0.058
 3.572 	0.579 	-0.308
 4.099 	-0.129 	0.231
 4.262 	-0.528 	-0.067
 3.460 	0.095 	0.367
 3.417 	0.422 	0.121
 3.775 	0.803 	0.126
 2.644 	-0.357 	0.224
 2.685 	0.168 	0.341
 3.412 	0.499 	0.040
 3.776 	-0.139 	0.200
 4.485 	0.990 	0.570
 4.709 	0.716 	-0.203
 5.196 	0.658 	-0.418
 5.667 	0.788 	-0.419
 5.543 	1.485 	0.147
 5.309 	-0.056 	-0.038
 4.801 	0.505 	-0.160
 4.509 	0.285 	-0.136
 4.610 	-0.006 	0.383
 4.585 	0.011 	-0.183
 4.643 	-0.134 	0.139
 3.339 	0.660 	0.479
 4.523 	-1.584 	0.288
 4.090 	-1.481 	1.238
 4.289 	-0.448 	0.203
 4.322 	0.820 	0.460
 4.977 	0.909 	-1.625
 4.377 	0.792 	0.478
 4.190 	-0.701 	-0.456
 4.680 	-0.340 	-0.591
 4.900 	0.283 	0.218
 4.592 	0.668 	0.542
 4.254 	0.854 	0.856
 4.150 	0.674 	1.053
 3.919 	0.632 	0.696
 3.815 	0.503 	0.284
 4.333 	0.149 	0.293
 4.551 	-0.591 	0.216
 5.703 	-0.980 	-0.825
 4.924 	-0.262 	0.232
 3.722 	0.733 	0.506
 4.046 	0.555 	-0.349
 3.359 	0.853 	0.085
 4.692 	0.762 	-0.466
 5.157 	0.103 	-0.741
 4.670 	-0.552 	-0.485
 4.962 	0.133 	-0.209
 4.999 	0.858 	0.303
 4.597 	0.463 	0.373
 4.450 	0.333 	0.145
 4.222 	0.783 	-0.391
 4.513 	-0.052 	-0.300
 4.796 	0.049 	-0.484
 5.331 	-0.059 	-0.103
 6.327 	-0.846 	-0.916
 5.653 	0.064 	-0.457
 4.417 	0.801 	1.418
 5.727 	0.332 	-0.085
 5.196 	0.793 	-0.217
 5.133 	0.172 	-0.758
 5.034 	0.266 	-0.387
 4.691 	0.110 	0.246
 4.662 	-0.020 	-0.070
 5.146 	0.661 	0.227
 5.450 	0.175 	-0.106
 4.795 	0.660 	0.437
 4.646 	0.471 	-0.380
 4.878 	0.490 	-0.401
 4.636 	0.397 	-0.118
 5.004 	-0.274 	0.231
 6.420 	-0.891 	-0.783
 6.519 	0.107 	-0.975
 5.131 	0.884 	1.106
 4.606 	0.483 	0.907
 5.521 	0.251 	0.247
 6.225 	-0.083 	-0.829
 6.125 	0.666 	-0.801
 5.780 	0.525 	-0.570
 5.510 	0.035 	-0.039
 5.291 	0.297 	-0.224
 6.044 	0.834 	-0.613
 5.358 	0.737 	0.055
 5.292 	0.480 	-0.289
 5.215 	1.079 	-0.657
 5.639 	-0.250 	0.107
 6.172 	-0.357 	-0.047
 6.106 	-0.446 	-0.625
 4.501 	1.074 	0.614
 4.547 	1.415 	1.241
 5.072 	0.703 	0.147
 5.047 	0.346 	0.184
 5.847 	0.455 	-0.513
 6.308 	0.530 	-0.491
 6.247 	0.756 	-0.874
 6.300 	0.335 	0.179
 5.384 	0.509 	-0.366
 5.092 	0.839 	-0.093
 5.115 	1.004 	0.155
 4.917 	0.639 	0.157
 5.876 	0.502 	-0.134
 6.462 	-0.212 	-0.211
 6.801 	-0.378 	-0.572
 4.791 	-0.540 	0.166
 4.819 	1.206 	0.586
 5.110 	0.912 	0.192
 5.046 	1.133 	0.245
 5.157 	0.879 	-0.208
 5.720 	0.701 	-0.578
 6.182 	0.677 	-0.643
 6.433 	0.652 	-0.511
 6.298 	0.986 	-0.125
 5.782 	0.701 	0.182
 5.428 	0.921 	-0.115
 5.870 	1.013 	-0.597
 6.083 	0.530 	-0.166
 6.296 	0.273 	0.036
 6.651 	0.169 	-0.084
 6.992 	0.092 	-0.436
 4.988 	0.494 	0.198
 4.723 	0.614 	0.105
 4.702 	0.527 	0.181
 4.720 	0.405 	0.173
 4.819 	0.379 	0.098
 5.186 	0.757 	-0.021
 5.188 	0.742 	0.167
 4.976 	0.723 	0.356
 4.780 	0.463 	0.341
 4.958 	0.292 	0.520
 5.518 	0.612 	0.262
 5.795 	0.822 	0.331
 5.339 	0.875 	0.452
 5.720 	0.869 	0.336
 6.402 	0.858 	-0.322
 6.596 	0.414 	-0.928
 4.446 	0.395 	0.568
 5.136 	0.077 	0.075
 5.103 	0.318 	-0.213
 5.097 	0.129 	-0.195
 4.783 	0.239 	-0.041
 4.676 	0.393 	-0.287
 5.238 	0.398 	-0.260
 5.655 	0.126 	-0.371
 5.810 	0.195 	-0.596
 6.224 	-0.094 	-0.539
 5.728 	0.713 	-0.119
 5.925 	0.406 	0.561
 6.245 	0.172 	0.099
 5.777 	0.544 	-0.139
 6.295 	0.613 	-0.514
 6.600 	0.474 	-0.426
 4.611 	0.063 	0.077
 4.868 	-0.304 	0.489
 5.318 	-0.385 	0.121
 5.526 	0.111 	-0.264
 5.619 	0.209 	-0.640
 5.416 	-0.029 	-0.271
 5.479 	0.144 	-0.170
 5.665 	-0.214 	0.167
 6.088 	-0.092 	0.210
 5.890 	-0.057 	0.392
 6.139 	0.050 	0.093
 6.800 	0.510 	-0.306
 6.846 	0.319 	-0.309
 6.547 	0.672 	-0.629
 6.853 	0.181 	-0.605
 7.003 	0.807 	-0.562
 5.459 	0.227 	-0.140
 4.500 	0.328 	0.341
 4.540 	-0.669 	0.678
 5.270 	0.109 	-0.258
 5.692 	0.099 	-0.437
 5.823 	0.511 	-0.664
 5.480 	-0.281 	0.064
 5.951 	-0.234 	0.154
 5.838 	-0.270 	0.046
 5.919 	0.175 	0.290
 6.093 	0.069 	0.482
 6.291 	0.416 	-0.094
 6.424 	0.532 	-0.373
 6.352 	0.423 	-0.297
 6.569 	0.031 	-0.478
 7.021 	0.427 	-0.461
 4.730 	-0.073 	-0.358
 6.041 	0.765 	-0.188
 5.103 	-0.278 	0.476
 5.848 	0.549 	-0.901
 5.747 	0.554 	-0.581
 5.836 	-0.125 	-0.138
 5.969 	-0.272 	-0.088
 5.861 	-0.618 	0.011
 5.646 	-0.455 	0.204
 4.752 	-0.669 	0.691
 5.142 	0.048 	0.769
 6.087 	0.848 	-0.042
 6.270 	0.676 	-0.297
 6.237 	0.431 	-0.338
 6.769 	0.039 	-0.465
 6.660 	0.515 	-0.161
 4.579 	-0.571 	-0.700
 4.455 	0.574 	0.370
 4.835 	0.206 	0.588
 5.391 	0.298 	-0.109
 5.962 	0.025 	-0.067
 6.177 	-0.561 	-0.169
 6.444 	-0.275 	0.059
 6.099 	0.137 	-0.039
 5.488 	-0.237 	0.265
 6.112 	0.255 	-0.553
 6.320 	0.430 	-0.036
 5.323 	-0.182 	-0.267
 6.024 	-0.052 	-0.393
 5.973 	0.006 	-0.398
 5.633 	-0.378 	-0.122
 5.369 	0.597 	-0.089
 4.560 	-0.068 	0.204
 5.260 	-0.002 	-0.271
 5.857 	-0.176 	-0.072
 6.146 	-0.339 	-0.170
 6.209 	-0.404 	-0.184
 6.506 	-0.288 	-0.006
 6.054 	-0.726 	-0.663
 6.407 	0.022 	-0.519
 6.549 	0.226 	-0.308
 5.772 	-0.060 	-0.561
 5.732 	-0.319 	0.597
 6.286 	-0.508 	-0.286
 4.631 	-1.336 	0.494
 5.242 	-0.174 	-0.140
 5.284 	-0.604 	-0.323
 4.535 	0.340 	0.361
 5.942 	0.019 	-0.169
 5.929 	-0.172 	-0.518
 5.848 	-0.307 	-0.472
 6.102 	-0.475 	-0.311
 6.297 	-0.179 	-0.133
 6.202 	-0.166 	-0.007
 6.341 	-0.627 	-0.045
 6.311 	-0.574 	0.010
 5.963 	-0.211 	0.091
 6.899 	0.124 	-0.435
 6.694 	0.146 	0.103
 5.908 	-0.043 	0.336
 5.848 	0.017 	-0.020
 5.134 	-0.785 	0.083
 4.885 	-0.719 	0.208
 5.054 	-0.088 	0.489
 5.147 	-0.204 	0.124
 4.962 	-1.023 	-0.377
 4.917 	-0.987 	-0.524
 4.907 	-0.789 	-0.408
 5.593 	-0.289 	0.210
 5.900 	0.363 	0.024
 5.235 	-0.147 	-0.199
 5.090 	-0.432 	-0.084
 5.723 	0.108 	-0.494
 6.427 	0.764 	0.668
 5.689 	0.322 	-0.088
 6.403 	0.288 	-0.394
 5.628 	0.415 	0.168
 5.092 	-0.410 	0.396
 5.224 	-0.612 	-0.195
 4.801 	0.371 	0.590
 4.136 	-0.403 	0.376
 4.417 	-0.846 	-0.105
 4.701 	-0.986 	0.169
 4.586 	-1.128 	0.264
 4.690 	-0.744 	0.188
 4.493 	-0.561 	-0.315
 5.325 	-0.155 	-0.554
 4.938 	0.064 	-0.473
 4.667 	0.413 	-0.799
 5.408 	0.576 	0.530
 6.106 	0.635 	-0.396
 6.574 	0.815 	-0.580
 6.354 	1.068 	-0.164
 5.197 	0.158 	0.133
 5.050 	0.257 	-0.113
 4.847 	-0.105 	0.576
 5.340 	-0.558 	-0.405
 5.593 	-1.302 	0.719
 5.113 	-1.478 	1.139
 4.724 	-1.249 	0.481
 5.555 	-1.133 	-0.900
 5.771 	0.095 	-0.571
 6.606 	0.030 	-0.429
 5.618 	-0.524 	-0.437
 5.447 	-0.526 	-0.173
 5.063 	0.723 	0.533
 4.321 	0.860 	1.352
 4.305 	1.024 	1.023
 3.775 	1.310 	0.905
 4.774 	1.669 	0.223
 5.516 	2.324 	-0.044
 4.933 	1.171 	0.122
 6.430 	-1.097 	-0.860
 6.253 	-0.804 	-0.139
 7.320 	-1.101 	-0.707
 6.393 	-0.799 	0.961
 6.147 	-0.616 	-0.726
 6.395 	-0.584 	-0.123
 5.964 	-0.263 	-0.557
 5.414 	-0.167 	-0.143
 5.087 	-0.028 	-0.412
 5.235 	1.061 	0.224
 5.189 	1.055 	0.887
 4.823 	0.809 	0.744
 4.507 	0.340 	0.302
 4.642 	0.845 	0.159
 4.883 	1.737 	-0.051
 5.351 	0.536 	-0.145
 6.788 	-0.935 	-0.933
 6.173 	-0.761 	-0.275
 7.004 	-0.691 	0.105
 7.099 	-0.285 	0.230
 7.128 	-0.184 	-0.064
 7.022 	-0.066 	-0.579
 6.935 	-0.116 	-0.156
 5.783 	0.503 	-0.159
 5.012 	0.094 	0.082
 5.121 	0.558 	0.591
 5.773 	0.898 	-0.168
 5.538 	0.711 	0.304
 5.270 	0.481 	-0.160
 4.811 	0.375 	-0.080
 4.991 	1.162 	-0.226
 5.131 	0.530 	0.161
 6.879 	-0.866 	-0.600
 6.576 	-0.544 	-0.516
 6.384 	0.117 	0.807
 6.857 	0.174 	-0.136
 7.225 	0.222 	-0.365
 6.627 	-0.130 	-1.158
 6.976 	0.313 	-0.355
 6.153 	0.656 	-0.208
 5.790 	0.188 	0.064
 6.086 	-0.189 	-0.570
 5.938 	0.047 	0.003
 5.765 	0.908 	0.048
 5.973 	0.766 	-0.566
 6.018 	0.736 	-0.582
 5.311 	1.306 	-0.290
 5.431 	0.425 	0.009
 6.830 	-0.884 	-0.490
 6.298 	-0.291 	0.303
 6.218 	0.428 	0.451
 6.643 	0.449 	0.199
 7.139 	0.708 	-0.337
 6.755 	0.217 	-1.044
 6.614 	0.062 	-0.600
 6.542 	0.793 	-0.115
 6.262 	0.352 	0.217
 6.240 	0.121 	-0.098
 5.863 	0.058 	-0.077
 5.626 	0.807 	0.133
 5.235 	1.043 	-0.047
 5.485 	0.795 	-0.686
 6.038 	1.086 	-0.644
 6.552 	0.175 	-0.711
 5.937 	-0.387 	-0.179
 5.210 	0.401 	0.892
 5.638 	0.571 	0.881
 6.031 	0.081 	0.353
 6.801 	0.379 	-0.166
 6.594 	0.291 	-0.714
 6.523 	0.703 	-0.683
 6.564 	0.196 	-0.262
 6.240 	0.251 	0.140
 6.139 	0.200 	0.240
 6.233 	0.120 	-0.179
 6.304 	0.588 	-0.128
 6.119 	0.856 	0.002
 6.438 	0.419 	-0.242
 6.772 	0.175 	-0.542
 7.029 	-0.311 	-0.472
 6.317 	0.861 	0.149
 5.637 	0.723 	0.494
 5.124 	0.198 	0.272
 5.184 	-0.178 	0.101
 5.335 	-0.136 	-0.057
 5.664 	0.151 	-0.115
 5.750 	0.536 	0.072
 5.475 	0.489 	0.318
 5.473 	0.159 	0.348
 5.971 	-0.279 	0.318
 6.340 	-0.130 	0.083
 6.502 	0.402 	0.052
 6.879 	0.564 	0.068
 6.858 	0.877 	-0.021
 6.913 	0.063 	-0.486
 6.711 	-0.560 	-0.918
 5.085 	1.005 	0.664
 5.661 	1.016 	0.166
 5.867 	0.136 	-0.182
 5.625 	0.053 	-0.184
 5.807 	0.065 	-0.085
 5.564 	-0.265 	0.016
 5.814 	0.122 	0.082
 6.195 	0.102 	0.079
 6.302 	-0.243 	-0.049
 6.343 	0.085 	0.047
 6.656 	0.128 	0.134
 6.153 	0.626 	0.522
 6.567 	0.629 	0.252
 6.857 	0.937 	-0.404
 6.919 	0.054 	-0.542
 6.621 	-0.457 	-0.063
 5.566 	0.195 	0.126
 6.472 	0.095 	0.212
 6.694 	-0.003 	0.208
 6.186 	0.482 	-0.285
 5.937 	0.377 	-0.534
 5.819 	0.139 	-0.448
 5.793 	-0.309 	-0.120
 5.662 	-0.436 	-0.006
 6.330 	-0.313 	-0.064
 6.699 	-0.420 	-0.020
 6.756 	-0.177 	-0.195
 6.754 	0.231 	0.078
 6.853 	0.552 	-0.317
 7.132 	1.071 	-0.366
 6.865 	0.301 	-0.174
 6.819 	-0.472 	-0.306
 5.355 	-0.459 	-0.370
 5.478 	-0.336 	-0.469
 6.225 	0.254 	0.014
 6.176 	0.547 	-0.124
 6.210 	0.617 	-0.251
 5.652 	0.047 	-0.223
 5.277 	-0.425 	0.251
 5.263 	-0.525 	0.305
 5.376 	-0.884 	0.381
 6.124 	-0.390 	0.188
 6.105 	-0.027 	-0.094
 6.399 	0.079 	-0.046
 6.474 	0.574 	-0.087
 6.404 	0.494 	0.003
 6.494 	-0.442 	-0.554
 6.980 	0.059 	-0.496
 4.645 	-0.229 	-0.164
 4.434 	-0.839 	-0.027
 4.805 	-0.395 	0.017
 5.657 	0.637 	-0.058
 5.752 	0.184 	-0.066
 5.982 	-0.451 	0.113
 6.039 	-0.812 	0.119
 6.338 	-1.000 	0.176
 6.021 	0.016 	0.350
 5.897 	-0.414 	-0.308
 6.235 	-0.258 	0.314
 6.405 	-0.774 	0.126
 6.308 	0.115 	0.182
 6.685 	-0.498 	-0.376
 6.645 	-0.484 	-0.510
 6.185 	0.168 	-0.113
 5.558 	-0.424 	-0.143
 5.349 	-0.414 	0.605
 5.551 	-0.296 	0.092
 5.840 	-0.469 	-0.298
 6.258 	-0.745 	-0.311
 6.487 	-0.817 	-0.022
 6.482 	-0.799 	-0.077
 6.591 	-0.271 	-0.348
 7.083 	-0.164 	0.046
 6.546 	-0.338 	-0.222
 5.992 	-0.154 	0.273
 6.189 	-0.486 	0.367
 6.442 	-0.607 	-0.298
 6.313 	-0.499 	-0.623
 6.556 	0.033 	-0.388
 5.745 	0.049 	0.143
 5.963 	-0.433 	-0.172
 6.147 	-0.008 	-0.044
 6.286 	-0.345 	0.178
 6.094 	-0.673 	0.147
 6.122 	-0.663 	-0.171
 6.005 	-0.652 	-0.125
 5.926 	-0.940 	-0.134
 6.346 	-0.768 	-0.292
 6.689 	0.077 	-0.272
 6.152 	0.230 	-0.037
 6.005 	0.052 	0.455
 5.699 	-0.277 	-0.115
 5.888 	-0.766 	-0.013
 5.755 	-0.136 	0.156
 5.589 	0.155 	0.353
 5.324 	0.596 	0.518
 5.376 	-0.608 	-0.032
 5.454 	-0.595 	0.050
 5.559 	-0.820 	0.148
 5.791 	-0.663 	-0.118
 5.557 	-0.769 	-0.181
 5.569 	-0.729 	-0.139
 5.445 	-0.892 	-0.523
 5.546 	-0.659 	-0.390
 5.987 	0.010 	-0.265
 6.158 	0.412 	0.042
 6.255 	-0.066 	0.226
 5.982 	0.270 	-0.041
 5.888 	0.047 	0.512
 5.156 	0.336 	-0.032
 4.544 	0.073 	0.039
 4.793 	0.674 	1.163
 5.088 	-0.891 	0.437
 5.253 	-1.035 	-0.138
 4.857 	-1.295 	0.184
 4.745 	-1.244 	0.002
 4.898 	-0.911 	-0.034
 5.212 	-0.549 	-0.116
 5.380 	-0.710 	-0.157
 4.990 	-0.645 	-0.592
 5.049 	-0.092 	-0.634
 5.431 	-0.038 	-0.317
 5.981 	0.207 	-0.109
 6.504 	0.295 	-0.347
 5.697 	0.198 	0.020
 5.461 	0.848 	0.161
 4.875 	-0.149 	-0.295
 4.698 	1.125 	1.204
 5.878 	-1.058 	-0.259
 5.631 	-0.610 	-0.023
 4.890 	-1.240 	0.290
 4.508 	-1.496 	0.246
 4.628 	-0.952 	0.369
 5.130 	-0.689 	-0.051
 5.196 	-0.498 	-0.433
 5.114 	-0.511 	-0.760
 5.049 	-0.447 	-0.521
 4.911 	-0.164 	-0.403
 5.515 	-0.103 	-0.624
 5.718 	0.000 	-0.967
 6.195 	0.399 	-0.557
 6.552 	0.729 	-0.442
 6.761 	0.603 	-0.156
 6.686 	0.861 	0.217
 5.935 	-0.433 	-0.482
 6.263 	-0.585 	-0.000
 6.240 	-1.074 	0.895
 6.750 	-0.755 	-0.338
 5.900 	-0.094 	-0.008
 6.038 	0.581 	-0.265
 6.311 	-0.117 	-0.015
 6.293 	-0.276 	0.265
 5.492 	-0.314 	-0.324
 5.562 	-0.217 	0.352
 5.427 	0.744 	1.132
 5.569 	1.422 	1.331
 5.416 	0.511 	0.537
 5.653 	1.148 	0.406
 5.375 	1.842 	0.297
 5.814 	1.979 	0.267
 6.591 	-0.660 	-0.864
 6.545 	-0.781 	-0.317
 6.900 	-0.055 	-0.462
 6.877 	-0.408 	0.285
 6.685 	-0.022 	-0.260
 5.995 	-0.175 	-0.191
 6.713 	-0.421 	-0.362
 6.655 	-0.134 	-0.338
 5.351 	-0.013 	-0.098
 5.320 	0.481 	0.192
 5.864 	1.187 	0.893
 5.889 	1.481 	0.708
 5.850 	0.865 	0.466
 5.530 	0.359 	0.534
 5.541 	1.381 	0.243
 5.917 	1.623 	-0.034
 6.713 	-0.964 	-0.694
 6.628 	-0.835 	-0.446
 7.025 	-0.574 	-0.349
 6.881 	-0.357 	-0.329
 6.819 	-0.130 	0.124
 6.809 	-0.388 	-0.548
 6.685 	-0.067 	-0.110
 6.068 	0.426 	-0.153
 5.267 	0.562 	0.062
 5.286 	0.242 	0.449
 5.563 	0.305 	0.415
 5.980 	0.667 	0.583
 6.419 	1.013 	0.454
 6.235 	0.342 	0.028
 5.801 	1.014 	0.119
 5.274 	1.044 	0.271
 6.685 	-1.031 	-0.704
 6.669 	-0.596 	-0.434
 6.795 	-0.534 	-0.316
 7.138 	0.179 	-0.547
 6.994 	-0.064 	-0.405
 6.846 	-0.116 	-0.872
 6.253 	0.552 	-0.080
 5.827 	0.734 	0.155
 5.671 	0.434 	-0.075
 6.354 	0.524 	-0.610
 6.281 	-0.109 	0.399
 6.690 	-0.260 	0.003
 5.648 	0.497 	-0.365
 5.802 	0.368 	-0.139
 5.604 	0.972 	-0.217
 5.582 	0.668 	0.206
 6.582 	-0.691 	-0.409
 6.599 	-0.656 	-0.003
 6.811 	-0.257 	-0.064
 6.955 	-0.015 	-0.458
 6.954 	-0.069 	-0.537
 6.684 	0.038 	-0.676
 6.536 	0.448 	-0.101
 6.530 	0.555 	-0.093
 6.435 	0.159 	0.140
 6.524 	0.014 	0.061
 6.457 	0.084 	0.082
 6.883 	-0.032 	0.070
 6.981 	0.053 	-0.225
 6.513 	0.564 	-0.313
 6.419 	0.786 	-0.250
 6.735 	0.221 	-0.420
 6.654 	-0.172 	-0.456
 6.426 	-0.158 	0.471
 5.967 	-0.269 	0.579
 6.064 	-0.070 	0.398
 6.538 	-0.034 	0.050
 7.185 	-0.070 	-0.613
 6.889 	0.175 	-0.626
 6.658 	0.336 	0.034
 6.537 	0.143 	0.683
 6.835 	-0.199 	0.351
 7.051 	-0.263 	-0.192
 7.586 	0.035 	-0.141
 7.443 	0.140 	-0.132
 6.943 	0.013 	-0.102
 6.710 	0.330 	-0.252
 6.649 	-0.294 	-0.415
 6.930 	0.018 	-0.343
 6.550 	0.551 	0.572
 6.185 	0.405 	0.477
 6.149 	-0.177 	0.167
 6.027 	-0.189 	0.048
 6.179 	-0.014 	-0.113
 6.279 	0.390 	-0.119
 6.646 	0.716 	0.143
 6.986 	0.241 	0.239
 7.053 	-0.186 	-0.334
 7.370 	-0.111 	-0.117
 7.775 	0.057 	-0.340
 7.245 	0.338 	-0.173
 6.862 	0.567 	-0.118
 6.745 	-0.100 	-0.127
 6.648 	-0.358 	-0.087
 5.575 	0.533 	0.605
 5.999 	0.602 	0.370
 6.917 	0.277 	-0.156
 7.161 	0.170 	-0.239
 6.978 	0.058 	-0.310
 6.429 	0.595 	-0.244
 6.262 	0.723 	-0.152
 6.773 	0.437 	0.008
 6.975 	0.199 	-0.167
 6.997 	0.111 	-0.162
 6.676 	0.264 	0.341
 6.470 	0.296 	0.259
 6.373 	0.654 	-0.058
 6.836 	0.156 	-0.122
 6.912 	-0.162 	-0.361
 6.661 	-0.096 	-0.269
 6.362 	-0.048 	0.139
 6.824 	-0.148 	-0.099
 7.159 	0.178 	0.291
 6.991 	0.312 	-0.230
 6.328 	0.164 	-0.296
 6.279 	0.469 	-0.353
 6.305 	0.484 	-0.132
 6.596 	0.330 	0.127
 6.686 	0.137 	-0.055
 6.819 	0.373 	-0.002
 6.767 	0.302 	0.127
 6.843 	0.294 	0.167
 6.812 	0.290 	0.006
 6.714 	-0.143 	-0.091
 6.743 	-0.123 	-0.456
 6.736 	-0.001 	-0.747
 5.472 	-0.124 	0.189
 4.924 	-1.163 	-0.038
 6.217 	0.216 	-0.342
 6.650 	0.628 	-0.314
 6.484 	0.562 	0.013
 6.014 	0.495 	0.463
 5.718 	0.139 	0.549
 6.095 	0.122 	0.363
 5.943 	-0.390 	0.526
 6.007 	-0.486 	0.568
 6.335 	-0.184 	0.471
 6.407 	0.117 	0.193
 6.320 	0.118 	0.051
 6.552 	-0.087 	-0.017
 6.801 	-0.491 	-0.467
 7.150 	-0.467 	-0.597
 5.590 	-0.284 	-0.072
 5.414 	-0.849 	0.031
 4.626 	-0.810 	0.531
 4.929 	-0.186 	0.547
 5.265 	0.128 	0.824
 5.514 	0.455 	0.329
 5.760 	-0.101 	-0.060
 6.443 	-0.632 	-0.024
 6.792 	-0.854 	0.032
 7.196 	-0.412 	0.019
 6.339 	-0.489 	-0.051
 6.062 	0.022 	0.439
 6.338 	-0.221 	0.128
 7.301 	-0.528 	-0.082
 7.151 	-0.823 	-0.531
 6.494 	-0.101 	-0.019
 5.895 	-0.650 	0.439
 6.250 	-0.868 	0.128
 6.537 	-0.835 	-0.112
 6.172 	-0.438 	-0.057
 6.260 	-0.284 	-0.071
 6.734 	-0.379 	0.009
 6.944 	-0.829 	0.055
 6.964 	-0.981 	-0.197
 6.908 	-0.791 	-0.319
 6.778 	-0.372 	-0.505
 7.205 	-0.170 	-0.518
 6.911 	-0.044 	0.135
 7.454 	-0.173 	0.130
 6.855 	-0.604 	-0.283
 6.242 	0.087 	0.027
 5.106 	0.157 	0.523
 6.310 	-0.784 	-0.030
 6.404 	-0.980 	-0.040
 6.583 	-0.978 	-0.096
 6.649 	-0.772 	-0.321
 6.687 	-0.585 	-0.301
 6.829 	-0.873 	-0.201
 7.036 	-0.863 	-0.381
 6.659 	-0.947 	-0.263
 6.520 	-0.801 	-0.394
 6.455 	0.163 	0.406
 7.077 	0.120 	-0.233
 6.715 	-0.170 	0.453
 5.934 	-0.274 	-0.373
 5.949 	-0.071 	0.158
 5.597 	0.074 	0.680
 5.919 	-0.281 	0.281
 6.181 	-1.280 	-0.070
 5.993 	-1.154 	0.136
 6.370 	-0.718 	0.335
 6.502 	-0.597 	0.087
 6.667 	-0.437 	0.015
 6.637 	-0.638 	-0.268
 6.462 	-0.716 	-0.159
 6.510 	-0.747 	-0.174
 5.471 	-0.698 	-0.438
 6.143 	-0.122 	-0.066
 6.819 	-0.169 	0.193
 6.432 	-0.091 	0.298
 6.401 	-0.426 	-0.411
 6.668 	-0.088 	0.032
 5.954 	0.221 	0.391
 6.146 	-0.292 	0.319
 6.257 	-1.322 	0.158
 6.105 	-0.992 	0.148
 6.171 	-0.639 	0.358
 6.463 	-0.622 	0.066
 6.769 	-0.618 	0.084
 6.227 	-0.279 	-0.277
 6.587 	-0.167 	-0.321
 6.310 	-1.003 	-0.290
 6.481 	-0.842 	0.009
 5.996 	-0.155 	-0.403
 5.655 	-0.065 	-0.425
 6.048 	0.362 	-0.166
 6.043 	-0.482 	-0.447
 6.229 	0.128 	-0.269
 6.507 	0.389 	0.054
 6.367 	0.187 	0.786
 6.418 	-1.338 	-0.427
 5.728 	-1.191 	0.392
 6.129 	-1.293 	0.184
 6.219 	-0.728 	0.247
 6.684 	-0.664 	0.047
 6.606 	-0.203 	-0.158
 6.554 	-0.426 	-0.237
 6.530 	-0.720 	-0.375
 7.048 	-0.486 	-0.117
 6.274 	-0.401 	-0.065
 6.181 	-0.230 	-0.486
 6.297 	-0.190 	-0.532
 6.890 	0.202 	-0.719
 6.877 	-0.331 	-0.530
 6.749 	0.122 	-0.298
 6.849 	0.647 	0.451
 5.837 	0.140 	-0.184
 5.908 	0.270 	-0.006
 6.059 	0.068 	0.322
 5.964 	0.035 	0.153
 6.043 	0.093 	0.033
 6.231 	-0.389 	-0.059
 6.887 	-0.117 	-0.204
 6.825 	0.115 	0.170
 7.600 	0.550 	-0.086
 6.213 	-0.068 	-0.032
 6.153 	-0.412 	0.448
 6.541 	0.137 	0.328
 6.618 	0.708 	0.191
 6.384 	0.698 	0.860
 6.743 	0.983 	0.376
 6.584 	1.594 	0.552
 6.823 	0.028 	-0.458
 6.769 	-0.295 	-0.137
 6.603 	-0.145 	-0.067
 6.391 	0.018 	0.177
 6.619 	0.075 	0.067
 6.713 	0.229 	-0.753
 6.676 	-0.276 	-0.267
 6.638 	-0.355 	0.005
 6.787 	0.714 	-0.125
 5.890 	0.128 	0.152
 5.942 	-0.024 	0.817
 6.310 	0.568 	0.998
 6.271 	1.319 	0.602
 6.216 	0.328 	0.838
 6.352 	0.776 	0.318
 6.298 	1.413 	0.557
 7.316 	-0.319 	-0.446
 7.563 	-0.473 	-0.196
 7.077 	-0.249 	-0.071
 7.209 	-0.262 	-0.435
 7.157 	0.029 	-0.053
 6.900 	0.029 	-0.499
 6.832 	-0.025 	-0.294
 6.669 	0.281 	-0.088
 6.505 	0.622 	0.286
 6.139 	0.841 	0.080
 5.804 	0.148 	0.275
 5.703 	0.314 	0.513
 6.055 	0.676 	0.781
 6.239 	0.243 	0.363
 5.678 	0.747 	0.582
 5.407 	1.325 	0.224
 7.557 	-0.809 	-0.375
 7.454 	-0.785 	-0.462
 7.666 	-0.594 	-0.574
 7.658 	-0.412 	-0.916
 7.708 	0.002 	-0.261
 7.196 	0.152 	-0.593
 6.573 	0.099 	-0.079
 6.032 	0.728 	0.384
 6.770 	0.994 	-0.198
 5.945 	0.993 	-0.129
 6.043 	0.821 	0.102
 6.173 	0.327 	0.258
 6.318 	0.106 	0.216
 6.176 	0.021 	0.078
 5.645 	0.670 	0.142
 5.495 	1.437 	0.568
 6.598 	-0.841 	-0.238
 6.595 	-0.661 	-0.307
 6.834 	-0.399 	-0.433
 7.146 	-0.211 	-0.572
 7.245 	0.240 	-0.355
 6.933 	0.530 	-0.321
 6.283 	0.709 	0.329
 6.137 	0.883 	0.208
 6.085 	0.523 	0.251
 6.396 	0.467 	0.120
 6.702 	0.299 	0.073
 6.980 	0.198 	-0.055
 6.692 	0.027 	0.099
 6.931 	0.410 	-0.001
 6.484 	0.856 	0.003
 6.720 	0.714 	0.054
 5.952 	-0.717 	-0.187
 6.120 	-0.395 	0.064
 6.444 	-0.272 	0.488
 6.625 	-0.243 	0.129
 6.804 	0.151 	-0.107
 7.009 	0.736 	-0.434
 6.801 	0.616 	-0.087
 6.750 	0.695 	0.275
 6.963 	0.405 	0.672
 7.096 	0.247 	0.144
 7.121 	0.163 	-0.387
 7.257 	0.349 	-0.097
 7.215 	0.153 	-0.094
 6.836 	0.176 	0.179
 7.206 	0.819 	-0.053
 7.201 	0.672 	-0.125
 6.139 	-0.558 	-0.140
 6.271 	-0.504 	0.277
 6.522 	-0.462 	0.170
 6.727 	-0.377 	0.049
 6.949 	-0.174 	0.030
 6.638 	0.002 	-0.094
 6.873 	0.122 	-0.381
 7.081 	0.194 	-0.383
 7.491 	0.190 	-0.179
 7.640 	0.257 	-0.372
 7.410 	0.040 	-0.376
 7.437 	0.128 	-0.278
 7.204 	0.252 	-0.097
 7.117 	0.322 	0.035
 6.914 	0.648 	-0.097
 7.092 	0.851 	-0.159
 5.801 	-0.389 	0.253
 5.967 	-0.371 	0.322
 6.021 	-0.439 	0.087
 6.140 	-0.458 	-0.272
 6.582 	-0.282 	-0.326
 6.303 	-0.215 	-0.311
 6.390 	-0.036 	-0.266
 6.527 	-0.089 	-0.246
 6.766 	0.120 	-0.227
 6.858 	0.201 	-0.232
 6.738 	0.103 	0.293
 6.598 	-0.058 	0.197
 6.812 	0.341 	-0.080
 6.803 	0.272 	0.015
 6.734 	0.646 	-0.154
 6.645 	0.801 	-0.455
 6.152 	-0.081 	0.609
 6.180 	-0.317 	0.371
 5.871 	-0.787 	-0.154
 5.566 	-0.577 	-0.274
 5.918 	-0.031 	-0.491
 5.867 	0.021 	-0.427
 6.006 	0.153 	-0.089
 6.155 	0.089 	0.129
 6.268 	0.295 	0.008
 6.365 	0.178 	0.220
 6.520 	-0.182 	0.248
 6.773 	-0.341 	0.349
 6.883 	-0.132 	0.324
 6.836 	0.154 	0.092
 6.699 	0.191 	-0.045
 6.805 	0.006 	0.111
 5.799 	0.070 	0.332
 5.304 	-0.555 	0.094
 5.351 	-0.646 	0.210
 5.335 	-0.392 	0.141
 5.052 	-0.283 	0.341
 5.170 	-0.222 	0.651
 5.468 	-0.120 	0.751
 5.690 	0.059 	0.795
 5.864 	-0.170 	0.883
 6.128 	-0.399 	1.113
 6.328 	-0.728 	1.055
 6.570 	-0.706 	0.572
 6.708 	-0.688 	0.249
 7.076 	-0.192 	0.019
 7.040 	-0.589 	-0.171
 7.294 	-0.780 	-0.044
 5.217 	0.438 	0.155
 5.203 	-0.299 	0.079
 5.037 	-0.504 	0.777
 4.757 	-0.410 	0.928
 5.212 	-0.024 	0.443
 5.792 	-0.102 	0.157
 6.432 	-0.537 	-0.011
 6.865 	-0.635 	0.119
 7.208 	-0.501 	-0.021
 6.751 	-0.536 	-0.019
 6.628 	-0.534 	0.014
 6.754 	-0.698 	-0.034
 6.861 	-0.425 	-0.375
 6.921 	-0.717 	-0.448
 7.083 	-0.799 	-0.372
 6.493 	-0.409 	0.354
 5.404 	0.198 	0.336
 5.946 	-0.358 	0.198
 6.295 	-0.687 	0.012
 6.017 	-0.274 	0.306
 6.270 	-0.400 	0.772
 7.020 	-0.809 	0.686
 7.180 	-0.931 	0.296
 7.044 	-0.839 	-0.123
 6.722 	-0.518 	-0.316
 6.767 	-0.303 	-0.338
 6.843 	-0.230 	-0.317
 7.068 	-0.092 	-0.048
 7.197 	-0.276 	-0.008
 6.986 	-0.718 	0.194
 6.519 	-0.045 	0.082
 5.824 	0.261 	0.649
 6.122 	-0.439 	-0.161
 6.498 	-0.825 	0.081
 6.531 	-0.826 	-0.047
 6.645 	-0.615 	-0.147
 6.674 	-0.938 	-0.040
 7.019 	-1.289 	-0.041
 6.968 	-0.952 	-0.303
 6.559 	-0.922 	-0.074
 6.610 	-0.705 	-0.076
 6.567 	-0.656 	0.026
 6.513 	-0.433 	-0.216
 6.808 	-0.435 	0.211
 6.943 	-0.079 	0.210
 6.186 	-0.114 	0.453
 5.973 	0.442 	0.337
 6.664 	0.221 	0.048
 6.366 	-0.739 	0.221
 6.501 	-1.183 	0.094
 6.800 	-1.048 	0.015
 6.945 	-1.008 	-0.156
 7.251 	-1.069 	-0.251
 7.293 	-1.289 	-0.366
 6.505 	-0.735 	-0.283
 6.211 	-1.007 	0.078
 6.643 	-0.922 	0.050
 6.103 	-0.654 	-0.241
 5.870 	-0.748 	0.005
 6.347 	-0.596 	0.331
 6.653 	-0.227 	0.075
 6.193 	0.239 	0.632
 6.874 	-0.222 	0.475
 7.127 	-0.346 	-0.041
 6.316 	-0.895 	0.242
 6.499 	-1.393 	0.278
 7.010 	-1.329 	0.206
 7.376 	-0.985 	-0.281
 7.311 	-1.052 	-0.161
 7.078 	-0.988 	-0.146
 6.836 	-0.637 	-0.362
 6.912 	-0.526 	-0.374
 6.943 	-1.213 	-0.257
 7.525 	-0.775 	-0.130
 7.641 	-0.866 	-0.337
 7.454 	-0.903 	-0.602
 7.473 	-0.317 	-0.405
 6.880 	-0.322 	-0.096
 6.389 	-0.844 	-0.178
 6.514 	-0.579 	0.160
 6.838 	-0.923 	-0.443
 7.011 	-1.363 	-0.155
 7.204 	-1.605 	0.082
 7.112 	-1.457 	0.368
 7.311 	-0.870 	-0.013
 7.611 	-0.456 	-0.237
 7.497 	-1.096 	-0.453
 7.802 	-1.121 	-0.472
 7.013 	-1.344 	0.445
 6.839 	-0.539 	0.292
 6.906 	-0.979 	-0.486
 6.819 	-0.909 	-0.341
 7.236 	-0.781 	-0.196
 7.439 	0.010 	-0.379
 7.261 	-0.334 	-0.168
 6.514 	-0.660 	0.483
 6.381 	0.143 	-0.223
 6.362 	0.094 	0.172
 6.422 	-0.043 	0.283
 6.402 	0.089 	0.426
 6.586 	-0.331 	-0.049
 6.933 	-0.552 	-0.289
 6.848 	-0.236 	0.447
 7.017 	-0.337 	0.501
 7.696 	0.732 	0.097
 7.476 	0.341 	0.638
 6.690 	0.048 	0.256
 7.042 	0.072 	-0.098
 7.318 	0.090 	-0.239
 6.903 	0.638 	0.544
 6.708 	1.037 	0.324
 6.508 	1.558 	0.511
 7.612 	0.371 	-0.521
 7.314 	0.324 	-0.137
 6.750 	-0.146 	0.383
 6.808 	-0.363 	0.465
 7.497 	-0.689 	-0.132
 7.738 	-0.432 	-0.858
 7.684 	-0.074 	-0.222
 7.121 	-0.295 	0.115
 6.305 	0.418 	0.815
 5.937 	0.318 	0.265
 5.769 	-0.109 	0.213
 5.966 	0.147 	0.581
 5.945 	0.137 	0.967
 6.227 	0.577 	1.209
 6.043 	0.870 	0.725
 6.251 	1.490 	0.518
 7.432 	0.551 	-0.086
 7.417 	0.409 	0.107
 7.598 	-0.121 	-0.026
 7.723 	-0.492 	-0.405
 8.020 	-0.500 	-0.340
 8.131 	-0.535 	-0.445
 8.392 	0.284 	-0.605
 7.757 	0.187 	-0.180
 6.774 	0.335 	0.592
 6.977 	0.432 	0.312
 5.571 	0.561 	0.065
 5.344 	0.229 	0.595
 5.612 	0.255 	0.651
 5.869 	0.497 	0.606
 5.795 	0.674 	0.578
 5.744 	1.138 	0.579
 8.080 	0.059 	-0.387
 8.369 	-0.010 	0.015
 8.360 	-0.158 	-0.601
 7.659 	-0.355 	-0.710
 7.649 	-0.405 	-0.307
 7.352 	0.215 	-0.550
 7.287 	0.195 	0.161
 7.473 	0.224 	0.221
 6.825 	0.615 	0.353
 6.872 	0.349 	0.106
 6.068 	0.878 	0.031
 6.259 	0.679 	0.037
 6.459 	0.136 	-0.002
 6.032 	0.137 	0.370
 5.848 	0.529 	0.197
 5.863 	0.960 	0.533
 7.411 	-0.508 	-0.218
 7.602 	-0.302 	-0.737
 7.509 	-0.116 	-0.675
 7.485 	-0.210 	-0.408
 7.007 	-0.048 	-0.389
 6.973 	0.313 	-0.344
 7.163 	0.376 	0.377