# vtk DataFile Version 3.0
HighT1
ASCII
DATASET STRUCTURED_POINTS
DIMENSIONS 16 16 19
ORIGIN 929.001000000000 929.001000000000 5.001000000000
SPACING 10.000000000000 10.000000000000 10.000000000000
POINT_DATA 4864
FIELD attributes 1
U 3 4864 float
2.801 	-0.407 	0.106
 2.878 	-0.955 	0.236
 2.763 	-0.631 	0.070
 3.090 	-0.490 	0.280
 3.109 	-0.576 	0.345
 3.039 	-0.457 	0.219
 3.165 	-0.470 	0.100
 3.177 	-0.715 	-0.023
 3.397 	-0.680 	-0.146
 3.530 	-0.235 	-0.015
 3.422 	-0.292 	0.176
 3.781 	-0.121 	0.103
 3.850 	-0.214 	0.139
 3.532 	-0.203 	0.081
 3.488 	-0.005 	-0.122
 3.965 	0.202 	-0.417
 4.102 	0.131 	-0.525
 4.808 	0.520 	-0.549
 4.855 	0.232 	-0.353
 4.168 	-0.533 	0.135
 3.463 	-0.473 	-0.041
 3.105 	-0.106 	-0.081
 2.745 	-0.038 	-0.027
 2.810 	-0.249 	-0.043
 3.140 	-0.458 	0.077
 3.451 	-0.484 	0.201
 4.028 	-1.125 	0.186
 4.362 	-0.456 	0.127
 4.296 	-0.307 	0.083
 3.651 	-0.335 	0.104
 3.273 	-0.447 	0.022
 3.729 	-0.397 	0.061
 3.988 	0.237 	-0.285
 4.455 	0.434 	-0.030
 4.536 	0.715 	-0.005
 5.230 	0.793 	-0.229
 3.975 	0.205 	0.358
 3.362 	0.320 	0.341
 3.985 	-0.790 	0.452
 4.534 	-1.082 	0.196
 4.295 	-0.976 	0.097
 4.081 	-1.433 	0.093
 4.613 	-0.703 	-0.148
 3.939 	-0.513 	0.168
 3.383 	-0.220 	0.288
 3.679 	-0.519 	0.118
 4.397 	-0.963 	-0.092
 4.415 	-0.491 	-0.052
 3.842 	0.461 	-0.224
 4.340 	0.632 	-0.391
 4.716 	0.866 	-0.177
 4.746 	0.918 	-0.071
 5.033 	0.680 	0.081
 5.432 	-0.163 	-0.013
 5.011 	-0.720 	0.017
 4.289 	-0.683 	0.009
 4.464 	-1.113 	0.120
 4.570 	-1.120 	-0.173
 3.903 	-1.177 	-0.308
 3.808 	-0.390 	0.261
 3.602 	-0.677 	0.113
 3.645 	-1.478 	0.269
 4.023 	-1.189 	0.348
 4.869 	-1.400 	0.209
 3.414 	0.237 	0.090
 3.740 	0.647 	-0.067
 4.446 	0.823 	-0.150
 4.879 	0.645 	-0.079
 5.352 	0.121 	0.048
 5.205 	-0.315 	-0.079
 5.009 	-0.245 	-0.201
 4.087 	-0.216 	-0.058
 3.701 	-0.550 	0.016
 3.590 	-0.959 	0.144
 3.421 	-1.014 	0.332
 3.097 	-1.099 	0.452
 3.782 	-1.646 	0.581
 4.774 	-2.134 	0.009
 5.397 	-2.143 	0.066
 4.163 	-2.009 	0.566
 3.737 	0.072 	-0.095
 4.084 	0.201 	-0.080
 4.382 	0.431 	-0.012
 4.499 	0.549 	0.029
 4.441 	0.279 	0.008
 4.246 	0.116 	-0.036
 4.176 	0.159 	0.114
 4.139 	0.345 	0.116
 3.976 	0.081 	-0.245
 4.061 	-0.298 	-0.055
 4.531 	-0.551 	-0.033
 5.100 	-0.723 	-0.122
 6.149 	-0.581 	-0.853
 6.365 	-1.063 	-0.698
 6.977 	-1.496 	-0.506
 7.121 	-0.426 	-0.371
 3.664 	-0.426 	0.297
 3.672 	-0.611 	0.478
 3.551 	-0.216 	0.384
 4.101 	0.181 	0.165
 4.319 	-0.027 	0.114
 4.454 	-0.320 	0.139
 4.570 	-0.654 	0.145
 4.752 	-0.387 	0.019
 4.840 	-0.200 	0.117
 5.595 	0.121 	-0.408
 5.455 	0.115 	-0.285
 4.917 	-0.807 	-0.104
 5.540 	-0.490 	-0.730
 6.524 	-0.560 	-0.556
 6.199 	-0.439 	-0.102
 5.739 	0.146 	-0.423
 4.961 	-0.021 	-0.340
 5.171 	-0.130 	-0.287
 5.600 	-0.286 	-0.140
 5.469 	-0.291 	0.080
 4.971 	-0.413 	0.138
 4.918 	-0.665 	-0.039
 5.365 	-0.572 	-0.336
 5.515 	-0.597 	-0.290
 5.616 	-0.448 	-0.146
 5.329 	0.045 	-0.288
 6.218 	0.418 	-0.447
 5.204 	-0.770 	0.158
 5.337 	0.215 	-0.664
 4.748 	-0.452 	0.269
 4.803 	-0.283 	0.195
 4.621 	1.053 	0.175
 4.582 	-0.036 	-0.142
 4.869 	-0.034 	-0.225
 5.240 	-0.017 	-0.046
 4.862 	-0.053 	0.086
 4.522 	-0.224 	0.008
 4.503 	-0.409 	-0.309
 4.619 	-0.235 	-0.277
 4.847 	-0.182 	-0.179
 5.008 	-0.157 	-0.055
 5.551 	-0.130 	-0.366
 5.642 	1.011 	-0.056
 5.087 	0.531 	-0.119
 4.444 	0.431 	0.136
 4.662 	-0.193 	0.088
 4.095 	-0.142 	0.194
 3.684 	1.094 	0.112
 4.563 	0.236 	-0.231
 4.679 	0.293 	-0.099
 5.362 	-0.391 	0.029
 5.197 	-0.016 	0.144
 4.844 	-0.230 	0.115
 4.319 	-0.129 	0.048
 4.041 	-0.050 	-0.118
 4.039 	-0.478 	-0.066
 4.686 	-0.026 	-0.017
 4.788 	0.477 	0.046
 5.473 	1.156 	0.032
 5.734 	1.123 	0.041
 5.158 	0.700 	-0.303
 5.444 	0.365 	-0.036
 6.169 	0.212 	-0.242
 4.197 	0.338 	0.407
 4.707 	0.605 	-0.234
 5.032 	0.256 	-0.058
 4.953 	0.095 	0.436
 4.178 	-0.706 	0.081
 4.485 	0.264 	0.216
 4.005 	-0.114 	0.333
 4.258 	-0.423 	0.180
 5.187 	-0.358 	-0.169
 5.812 	-0.465 	-0.127
 4.980 	0.248 	0.060
 5.194 	-0.019 	-0.119
 5.116 	0.804 	0.118
 5.075 	0.599 	0.004
 6.439 	0.873 	-0.310
 5.927 	0.952 	0.250
 5.509 	0.625 	-0.309
 3.634 	0.378 	0.128
 3.650 	-0.375 	0.252
 2.877 	-0.689 	0.430
 2.888 	-1.577 	0.152
 3.413 	-1.572 	-0.323
 4.565 	-0.646 	-0.888
 5.010 	-0.390 	-0.803
 5.398 	-0.118 	-0.592
 5.737 	0.409 	-0.260
 5.052 	0.492 	0.078
 5.253 	0.491 	-0.142
 5.095 	0.795 	0.347
 5.260 	0.683 	-0.256
 5.267 	1.268 	0.103
 4.959 	1.474 	0.317
 3.435 	1.452 	0.519
 3.990 	0.505 	0.215
 4.887 	-0.320 	-0.263
 5.339 	-1.200 	0.383
 3.288 	-0.658 	0.066
 2.921 	-1.152 	-0.057
 3.336 	-0.451 	0.144
 3.874 	0.408 	-0.143
 4.455 	0.294 	0.182
 4.444 	0.802 	0.215
 3.959 	0.846 	0.353
 3.978 	1.570 	0.124
 3.482 	0.953 	-0.149
 3.984 	0.598 	-0.219
 4.189 	0.234 	0.304
 5.083 	1.843 	0.528
 5.599 	1.500 	0.013
 5.965 	0.198 	-0.527
 5.797 	-0.093 	0.049
 5.242 	-0.140 	0.066
 3.733 	-0.278 	0.111
 4.008 	-0.084 	-0.363
 3.209 	-0.460 	0.093
 3.006 	-0.102 	0.004
 2.992 	0.237 	0.401
 2.901 	0.808 	0.129
 3.109 	0.280 	0.034
 3.237 	1.138 	0.088
 3.544 	0.424 	-0.016
 3.875 	0.432 	-0.184
 4.031 	0.290 	0.118
 4.182 	0.158 	-0.095
 4.823 	0.436 	-0.408
 5.700 	0.409 	-0.387
 6.346 	0.695 	-0.399
 5.103 	0.610 	-0.012
 3.211 	-0.160 	0.146
 3.423 	-0.368 	0.109
 3.916 	-0.144 	-0.263
 3.808 	-0.457 	0.129
 4.291 	0.234 	-0.028
 4.366 	-0.616 	0.249
 4.078 	0.020 	0.304
 3.999 	0.542 	0.052
 3.796 	0.011 	-0.174
 3.451 	0.343 	0.451
 3.089 	0.071 	0.450
 3.312 	-0.001 	0.212
 3.329 	0.051 	0.078
 4.282 	1.191 	0.395
 4.887 	2.031 	-0.237
 5.148 	1.407 	0.163
 4.086 	-0.071 	0.260
 4.597 	-0.069 	-0.102
 4.773 	-0.241 	-0.056
 5.142 	-0.135 	-0.433
 5.504 	0.080 	-0.248
 4.607 	0.189 	0.490
 3.424 	-0.265 	-0.100
 2.406 	0.451 	0.533
 2.994 	0.877 	-0.217
 3.745 	0.235 	-0.126
 3.673 	-0.370 	-0.035
 3.718 	-0.268 	-0.004
 3.529 	-0.389 	0.062
 4.778 	0.834 	-0.552
 5.226 	0.879 	-0.488
 5.219 	0.858 	-0.116
 4.655 	1.198 	0.543
 4.007 	0.669 	0.373
 3.875 	0.554 	0.366
 3.769 	0.754 	0.075
 4.098 	0.568 	-0.089
 4.510 	0.218 	-0.283
 4.847 	-0.224 	-0.317
 5.047 	-0.649 	-0.048
 5.015 	-0.755 	0.084
 4.348 	-0.102 	0.237
 4.271 	0.097 	0.259
 4.499 	0.157 	0.003
 5.036 	-0.234 	-0.202
 4.823 	0.435 	-0.588
 4.381 	-0.205 	-0.643
 5.306 	0.829 	-0.223
 4.838 	1.046 	-0.023
 5.007 	0.515 	0.020
 4.521 	0.644 	0.277
 4.415 	0.333 	-0.260
 4.566 	0.285 	-0.430
 4.349 	0.219 	-0.057
 4.296 	0.396 	0.119
 4.707 	-0.449 	0.634
 5.357 	-0.896 	0.756
 4.971 	-0.416 	0.413
 5.393 	0.422 	0.254
 5.161 	0.030 	-0.068
 4.423 	0.131 	0.359
 4.486 	0.330 	-0.008
 4.650 	-0.219 	-0.297
 4.779 	0.223 	-0.347
 5.488 	1.109 	-0.463
 4.732 	0.894 	0.041
 4.101 	0.934 	0.114
 3.977 	1.080 	0.071
 4.377 	0.397 	0.226
 4.994 	-0.123 	-0.056
 5.598 	-0.282 	0.131
 6.244 	-0.804 	-0.140
 5.874 	-1.105 	1.047
 4.543 	-0.471 	0.793
 4.447 	0.219 	0.359
 4.733 	0.669 	-0.094
 5.260 	-0.086 	-0.346
 6.519 	0.524 	-0.931
 5.355 	0.125 	0.057
 4.781 	0.404 	-0.438
 4.569 	1.183 	-0.281
 4.506 	1.150 	0.230
 4.742 	0.959 	0.158
 5.344 	0.438 	-0.241
 5.814 	-0.569 	-0.068
 6.308 	-0.726 	-0.171
 6.301 	-0.782 	0.173
 5.788 	-0.850 	-0.171
 6.337 	-0.476 	0.429
 6.396 	-0.530 	0.337
 5.831 	-0.002 	0.710
 5.064 	0.245 	0.841
 4.877 	0.125 	0.488
 5.782 	0.784 	-0.209
 6.037 	0.683 	-0.376
 5.134 	0.505 	-0.148
 5.127 	0.937 	-0.305
 5.846 	0.790 	-0.261
 6.347 	0.474 	-0.383
 6.384 	-0.014 	-0.345
 6.647 	-0.243 	-0.242
 6.593 	-0.695 	-0.010
 6.320 	-0.760 	0.127
 6.074 	-0.172 	0.112
 6.548 	-0.057 	-0.307
 6.934 	-0.266 	-0.324
 6.671 	0.172 	-0.374
 5.234 	0.401 	0.091
 5.718 	-0.507 	-0.537
 5.774 	0.773 	-0.044
 5.912 	0.583 	-0.175
 5.920 	0.544 	-0.084
 6.022 	0.617 	0.187
 6.290 	0.795 	0.212
 6.486 	0.591 	0.037
 6.558 	0.240 	-0.087
 6.657 	0.295 	-0.310
 6.978 	-0.309 	-0.521
 6.690 	-0.512 	-0.011
 6.504 	-0.494 	-0.214
 6.751 	-0.230 	-0.522
 6.651 	-0.392 	-1.062
 6.633 	-0.073 	-0.265
 6.632 	-0.179 	-0.470
 6.587 	-0.794 	-0.225
 4.291 	0.594 	0.029
 4.323 	0.524 	-0.041
 4.154 	0.452 	0.420
 4.274 	0.578 	0.623
 4.686 	0.440 	0.796
 5.357 	0.497 	0.497
 6.235 	0.696 	-0.202
 6.547 	1.004 	-0.620
 7.041 	-0.300 	-0.503
 6.675 	-0.125 	-0.280
 6.545 	-0.821 	-0.266
 7.113 	-0.623 	-0.548
 6.961 	-0.512 	-0.795
 6.595 	-0.265 	-0.662
 6.906 	-0.110 	-0.590
 7.064 	-0.555 	-0.500
 5.893 	0.228 	-0.433
 6.346 	-0.141 	-0.479
 6.486 	0.350 	-0.445
 6.354 	0.850 	-0.276
 6.154 	0.530 	-0.218
 6.448 	0.433 	-0.351
 6.311 	0.903 	-0.584
 6.188 	0.401 	-0.581
 6.485 	-0.118 	-0.151
 6.445 	-0.363 	-0.194
 7.069 	-0.480 	-0.931
 7.181 	-0.244 	0.025
 6.526 	-0.413 	-0.549
 6.166 	0.173 	-0.187
 5.638 	-0.024 	-0.321
 4.792 	-0.785 	0.137
 5.743 	-0.078 	0.123
 5.960 	-0.251 	0.119
 6.144 	0.151 	0.080
 6.396 	0.512 	-0.038
 6.517 	0.354 	-0.420
 6.541 	0.382 	-0.452
 6.788 	1.128 	-0.889
 6.997 	0.289 	-0.434
 6.494 	-0.532 	0.147
 6.895 	-0.227 	-0.510
 6.760 	-0.512 	-0.417
 6.096 	0.133 	0.002
 5.264 	0.182 	0.106
 5.470 	0.522 	0.291
 4.935 	-0.616 	-0.051
 4.916 	0.326 	1.044
 5.959 	-0.032 	-0.146
 5.650 	-0.060 	-0.202
 6.130 	0.481 	0.186
 6.422 	0.588 	0.225
 6.867 	0.441 	-0.003
 6.707 	0.586 	0.144
 7.202 	0.175 	-0.196
 7.203 	0.380 	-0.245
 6.470 	0.182 	0.236
 6.175 	-0.704 	-0.351
 5.981 	-0.120 	-0.017
 5.923 	0.378 	0.574
 6.219 	0.430 	-0.339
 5.864 	0.428 	-0.272
 4.654 	0.014 	-0.053
 3.895 	1.052 	1.462
 5.599 	-0.505 	-0.007
 4.765 	-0.017 	0.672
 4.720 	-0.868 	0.993
 5.940 	0.455 	0.516
 6.263 	0.711 	0.096
 6.569 	0.933 	0.225
 6.712 	0.460 	-0.563
 6.761 	0.798 	-0.483
 6.561 	0.284 	-0.020
 6.211 	-0.012 	-0.272
 6.022 	0.325 	-0.164
 6.594 	0.004 	-0.010
 6.689 	0.460 	-0.141
 6.145 	1.130 	-0.204
 5.684 	1.043 	0.107
 5.676 	0.557 	0.301
 5.805 	-0.165 	-0.623
 5.905 	-0.305 	0.152
 6.856 	0.315 	0.388
 5.035 	-0.102 	0.774
 5.965 	1.227 	-0.427
 6.317 	0.477 	-1.029
 6.415 	0.283 	-0.572
 5.614 	0.024 	-0.363
 5.173 	-0.011 	-0.364
 5.166 	0.404 	0.104
 3.858 	-0.227 	-0.116
 3.959 	-0.583 	-0.013
 4.765 	0.109 	0.041
 4.821 	0.127 	-0.101
 5.631 	1.340 	-0.062
 4.424 	1.778 	0.761
 6.762 	0.160 	-0.536
 6.271 	0.213 	0.063
 5.419 	-0.202 	0.715
 6.312 	-0.089 	0.058
 5.751 	-0.242 	0.145
 5.964 	-0.205 	-0.181
 4.804 	0.028 	-0.014
 4.482 	-0.089 	0.114
 4.654 	-0.006 	0.189
 3.988 	0.736 	0.638
 4.209 	0.131 	-0.286
 4.987 	-0.398 	-0.412
 4.790 	-0.591 	0.205
 4.885 	-0.544 	0.257
 5.036 	0.304 	0.665
 5.578 	1.277 	-0.236
 6.610 	0.245 	-0.728
 7.163 	0.441 	-0.380
 5.661 	0.057 	0.567
 7.078 	0.463 	0.331
 6.185 	-0.037 	-0.168
 5.481 	0.763 	-0.092
 5.209 	0.129 	0.161
 5.246 	-1.269 	0.065
 4.966 	0.111 	0.238
 3.718 	1.205 	1.120
 4.216 	0.245 	0.308
 5.125 	-0.450 	-0.545
 5.574 	-0.948 	-0.299
 4.883 	-0.108 	0.291
 4.821 	0.183 	0.469
 5.404 	0.250 	0.448
 6.236 	-0.180 	-0.250
 5.562 	0.499 	-0.226
 5.865 	0.703 	0.577
 6.498 	0.475 	-0.220
 5.923 	0.676 	-0.292
 5.369 	0.547 	0.302
 5.242 	-0.236 	-0.074
 5.613 	-0.243 	-0.299
 3.991 	1.143 	0.563
 4.172 	0.497 	0.962
 4.807 	0.210 	0.193
 4.755 	0.113 	-0.271
 3.316 	-0.200 	0.195
 2.991 	-0.535 	0.647
 3.111 	-0.797 	0.583
 3.617 	-0.234 	0.466
 4.922 	-0.595 	0.185
 4.373 	0.331 	0.033
 4.802 	1.393 	0.509
 5.853 	0.669 	-0.388
 5.729 	1.239 	-0.591
 6.203 	0.691 	-0.373
 5.635 	-0.047 	-0.488
 5.115 	0.025 	0.351
 5.748 	0.987 	0.485
 5.652 	-0.089 	0.227
 5.883 	0.160 	-0.199
 5.345 	0.615 	-0.872
 4.901 	0.790 	0.648
 5.048 	-0.573 	-0.126
 4.470 	-0.310 	0.304
 4.146 	-0.457 	0.283
 5.499 	0.197 	0.305
 5.759 	0.220 	0.276
 5.720 	0.824 	0.845
 5.491 	1.354 	0.940
 6.241 	1.714 	0.643
 5.248 	0.794 	0.815
 5.067 	0.775 	0.093
 5.072 	1.539 	0.083
 5.291 	1.083 	-0.458
 5.485 	0.557 	-0.450
 5.717 	0.273 	-0.358
 5.293 	0.315 	0.144
 5.320 	-0.033 	0.684
 4.573 	0.681 	0.714
 4.983 	0.062 	0.234
 5.481 	-0.003 	-0.161
 5.088 	0.264 	-0.209
 4.771 	-0.158 	-0.307
 4.976 	0.498 	-0.306
 5.330 	1.116 	0.558
 4.953 	1.029 	0.712
 5.146 	0.951 	0.288
 5.077 	0.456 	-0.197
 5.052 	0.751 	-0.227
 5.217 	0.668 	-0.045
 5.303 	0.565 	0.229
 5.337 	0.615 	0.313
 5.548 	0.231 	0.823
 6.551 	0.019 	0.186
 6.239 	0.419 	0.472
 5.726 	0.042 	-0.178
 5.172 	-0.294 	0.357
 5.713 	0.354 	-0.016
 5.246 	-0.011 	0.006
 4.893 	-0.115 	0.021
 5.249 	0.656 	-0.202
 5.687 	1.251 	-0.086
 6.097 	0.999 	-0.195
 5.330 	0.816 	-0.086
 4.817 	1.141 	-0.015
 4.839 	0.175 	0.148
 4.946 	-0.098 	0.183
 4.887 	0.285 	0.303
 4.608 	0.185 	0.722
 4.936 	-0.431 	1.018
 5.619 	-0.169 	0.505
 6.166 	0.359 	-0.053
 5.991 	0.329 	-0.223
 6.029 	0.457 	-0.531
 5.991 	-0.088 	-0.426
 6.012 	-0.168 	-0.410
 5.138 	0.451 	0.252
 4.810 	1.154 	0.006
 4.810 	1.319 	0.076
 5.205 	0.693 	0.225
 5.729 	0.589 	-0.088
 6.127 	0.082 	0.180
 5.439 	-0.044 	0.080
 5.273 	-0.015 	-0.045
 5.223 	0.159 	-0.313
 5.324 	-0.255 	0.551
 5.669 	-0.249 	0.954
 5.580 	0.150 	0.417
 5.545 	0.777 	0.053
 6.436 	0.427 	0.053
 5.919 	0.163 	-0.129
 6.153 	0.232 	-0.360
 6.155 	0.534 	-0.088
 5.778 	1.078 	0.020
 6.214 	1.024 	-0.582
 6.964 	0.547 	-0.888
 7.525 	0.435 	-0.670
 6.982 	0.307 	-0.348
 6.666 	-0.070 	0.080
 6.289 	-0.442 	0.155
 6.190 	-0.417 	-0.225
 6.086 	0.029 	-0.382
 6.522 	0.161 	0.037
 6.646 	0.606 	0.181
 6.140 	0.117 	-0.521
 6.046 	0.179 	0.190
 6.017 	0.170 	0.010
 6.235 	0.151 	-0.262
 6.623 	0.349 	-0.004
 6.825 	0.693 	0.122
 6.597 	0.540 	-0.057
 6.706 	0.048 	-0.443
 6.975 	0.202 	-0.631
 7.027 	0.306 	-0.534
 7.115 	0.109 	-0.247
 6.756 	-0.298 	0.258
 6.990 	-0.958 	-0.178
 6.850 	-0.675 	-0.595
 6.602 	-0.176 	-0.253
 6.979 	0.413 	-0.228
 7.592 	-0.703 	-0.286
 6.133 	0.340 	-0.170
 6.215 	0.220 	-0.154
 6.317 	0.275 	0.095
 6.818 	0.540 	0.233
 6.825 	0.791 	0.206
 6.645 	0.819 	-0.321
 6.588 	0.050 	-0.776
 6.558 	-0.002 	-0.867
 6.697 	0.214 	-0.507
 6.795 	0.166 	0.058
 6.998 	-0.532 	-0.421
 7.017 	-0.993 	-0.506
 7.116 	-0.663 	-0.718
 6.929 	-0.480 	-0.687
 7.102 	-0.179 	-0.314
 6.422 	-0.617 	-0.314
 6.219 	0.105 	-0.203
 6.465 	-0.074 	-0.212
 6.406 	0.341 	-0.033
 6.721 	0.591 	-0.051
 7.001 	1.044 	-0.149
 7.140 	0.895 	-0.284
 6.758 	0.309 	-0.065
 6.407 	0.248 	0.019
 6.369 	-0.081 	-0.181
 6.653 	-0.292 	-0.529
 6.611 	-0.932 	-0.688
 6.506 	-1.160 	-0.469
 6.262 	-0.623 	-0.696
 6.568 	-0.161 	-0.327
 6.148 	0.303 	0.335
 5.746 	-0.014 	0.456
 6.565 	-0.250 	-0.014
 6.648 	-0.505 	-0.015
 6.561 	0.163 	-0.001
 6.301 	0.439 	-0.078
 6.351 	0.838 	-0.012
 6.698 	0.504 	-0.021
 6.849 	-0.013 	-0.289
 6.734 	-0.081 	0.145
 6.722 	0.223 	0.153
 6.691 	-0.750 	-0.513
 6.720 	-0.549 	-0.117
 6.379 	-0.514 	-0.724
 6.490 	-0.057 	-0.040
 6.225 	0.707 	-0.075
 5.545 	-0.204 	0.462
 6.345 	-0.297 	0.765
 5.564 	-0.327 	0.054
 5.968 	-0.175 	0.085
 5.981 	0.019 	0.113
 6.062 	0.341 	0.177
 6.071 	0.369 	0.093
 6.465 	-0.318 	-0.315
 7.129 	-0.108 	-0.442
 6.976 	0.164 	-0.542
 6.616 	0.118 	-0.207
 6.224 	-0.292 	-0.164
 5.958 	-0.465 	0.121
 6.514 	-0.451 	0.070
 6.497 	0.047 	-0.316
 6.548 	0.968 	0.019
 6.342 	0.872 	0.328
 6.050 	0.519 	1.190
 5.542 	-0.537 	0.239
 5.652 	-0.585 	0.166
 5.597 	-0.782 	0.914
 6.214 	-0.525 	0.780
 6.332 	0.038 	0.169
 6.655 	-0.654 	-0.533
 6.628 	-0.169 	-0.685
 5.864 	0.381 	-0.126
 6.007 	0.029 	0.277
 5.851 	-0.171 	0.070
 5.265 	-0.332 	0.417
 5.402 	-0.464 	-0.141
 5.732 	-0.321 	-0.031
 6.371 	0.630 	0.163
 6.641 	1.044 	0.100
 6.820 	1.008 	-0.043
 6.543 	-0.547 	-0.037
 6.223 	-0.022 	-0.315
 5.468 	-0.472 	0.127
 6.261 	-0.472 	0.579
 6.144 	-0.163 	0.098
 6.555 	-0.086 	-0.606
 5.968 	0.324 	-0.063
 5.613 	0.303 	0.852
 4.575 	-0.049 	0.501
 4.662 	-0.177 	0.243
 5.356 	-0.360 	-0.370
 4.738 	-0.949 	0.163
 4.097 	-1.005 	1.045
 5.053 	-0.243 	0.805
 5.950 	0.783 	0.211
 6.553 	1.116 	0.525
 6.431 	-0.083 	-0.075
 5.893 	0.240 	0.252
 5.921 	0.077 	0.060
 5.898 	0.154 	0.023
 6.139 	-0.241 	-0.085
 5.985 	-0.200 	0.375
 5.793 	0.578 	0.710
 4.700 	0.027 	0.485
 5.134 	-0.003 	0.448
 5.249 	0.218 	0.025
 5.167 	-0.131 	-0.507
 5.041 	-0.271 	-0.401
 4.872 	-1.128 	0.233
 5.073 	-0.953 	0.117
 4.765 	-0.257 	1.091
 5.497 	0.664 	0.792
 6.665 	0.041 	-0.349
 6.630 	0.243 	0.153
 6.473 	0.208 	-0.000
 5.899 	0.262 	0.151
 5.943 	-0.519 	0.036
 6.150 	0.172 	0.550
 5.529 	0.804 	0.124
 4.772 	0.468 	-0.354
 4.882 	-0.266 	1.185
 5.487 	-0.018 	0.368
 5.852 	-0.332 	-0.197
 6.572 	0.016 	-0.624
 6.021 	-0.689 	-0.252
 5.005 	-1.130 	0.210
 4.653 	-1.107 	0.260
 5.161 	-0.795 	0.318
 5.916 	-0.439 	-0.022
 6.322 	-0.084 	-0.356
 6.491 	0.146 	-0.311
 6.850 	0.260 	-0.215
 6.677 	0.342 	-0.031
 6.502 	0.370 	-0.071
 6.887 	1.001 	-0.081
 6.539 	0.146 	-0.165
 6.725 	0.396 	0.760
 7.000 	0.356 	0.411
 6.647 	-0.081 	-0.009
 6.379 	-0.025 	-0.244
 5.455 	0.142 	0.176
 5.217 	0.088 	0.551
 5.264 	-0.428 	0.332
 5.967 	-0.581 	-0.053
 5.141 	-0.446 	0.079
 5.160 	-0.512 	-0.193
 5.508 	-0.279 	-0.393
 5.957 	0.000 	-0.684
 6.107 	0.604 	-0.636
 6.440 	0.801 	-0.229
 6.634 	0.686 	-0.187
 6.677 	0.305 	0.130
 6.417 	-0.184 	0.438
 6.419 	0.081 	0.234
 6.308 	0.172 	0.055
 6.086 	0.417 	-0.276
 5.732 	0.811 	-0.057
 6.083 	0.454 	0.019
 6.708 	-0.031 	-0.516
 6.578 	-0.179 	-0.343
 5.769 	0.235 	0.103
 5.357 	0.165 	-0.125
 5.600 	0.237 	0.365
 5.836 	0.698 	0.764
 6.038 	1.369 	0.777
 6.129 	0.777 	1.031
 5.769 	0.921 	0.615
 5.770 	1.737 	0.167
 5.858 	1.216 	0.033
 5.747 	0.761 	-0.234
 5.665 	0.759 	-0.396
 5.745 	0.692 	-0.285
 5.847 	0.391 	0.261
 5.880 	0.269 	0.458
 5.976 	0.448 	0.110
 6.246 	0.668 	0.058
 5.434 	0.465 	-0.013
 5.259 	0.342 	-0.174
 4.785 	-0.006 	-0.003
 5.151 	0.416 	0.631
 5.844 	0.865 	0.953
 6.041 	0.897 	0.487
 5.400 	0.801 	0.195
 5.470 	1.195 	0.221
 5.383 	0.830 	0.209
 5.077 	0.336 	0.639
 5.669 	0.292 	0.799
 5.763 	0.569 	0.893
 5.338 	1.117 	0.501
 5.758 	0.940 	0.070
 6.043 	0.386 	-0.146
 5.946 	0.412 	0.056
 5.206 	0.432 	0.127
 5.167 	0.216 	0.264
 5.661 	0.116 	0.180
 5.573 	-0.083 	0.174
 5.391 	0.354 	-0.076
 5.384 	0.777 	-0.057
 5.391 	0.768 	0.311
 5.207 	0.814 	0.146
 5.039 	0.883 	0.602
 5.479 	-0.157 	0.376
 5.411 	-0.382 	0.655
 5.373 	0.029 	0.733
 5.826 	0.539 	0.846
 6.091 	0.334 	0.853
 6.474 	0.221 	0.023
 6.215 	0.352 	0.001
 5.842 	0.251 	-0.277
 6.098 	0.553 	-0.562
 6.286 	0.358 	-0.476
 6.504 	-0.088 	0.363
 6.443 	0.321 	-0.320
 5.868 	0.657 	0.355
 5.873 	0.803 	0.106
 5.909 	0.634 	0.090
 6.087 	0.648 	0.090
 6.314 	0.168 	-0.072
 6.390 	-0.452 	0.276
 6.208 	-0.346 	0.288
 6.397 	-0.004 	0.504
 5.966 	-0.011 	0.514
 5.731 	0.747 	0.298
 5.682 	0.397 	-0.123
 6.619 	0.008 	0.283
 6.655 	-0.029 	-0.030
 6.661 	0.058 	-0.244
 6.870 	0.227 	-0.105
 7.096 	0.331 	0.137
 7.058 	0.561 	-0.302
 7.149 	0.857 	-0.366
 7.104 	0.546 	-0.486
 6.616 	0.890 	-0.400
 6.846 	0.114 	0.073
 7.294 	-0.012 	0.296
 7.097 	-0.410 	0.001
 6.647 	-0.751 	0.435
 5.932 	0.462 	0.218
 5.929 	0.742 	0.310
 6.760 	0.053 	-0.303
 6.969 	-0.099 	0.256
 7.296 	-0.161 	-0.220
 7.545 	0.160 	-0.280
 6.868 	0.153 	-0.230
 6.602 	0.263 	0.144
 6.482 	0.208 	-0.104
 6.805 	0.261 	-0.501
 7.006 	0.544 	-0.466
 7.119 	0.665 	-0.183
 7.246 	0.066 	-0.160
 7.538 	0.159 	-0.064
 7.536 	-0.401 	0.031
 6.944 	-0.246 	0.021
 6.599 	-0.086 	-0.023
 7.118 	-0.100 	-0.177
 7.513 	-0.252 	-0.330
 7.035 	-0.053 	-0.246
 7.182 	0.146 	-0.231
 6.910 	0.292 	-0.138
 6.516 	0.586 	-0.119
 6.393 	0.510 	-0.029
 6.484 	0.035 	-0.095
 6.466 	-0.499 	-0.098
 6.593 	-0.445 	-0.207
 6.907 	-0.200 	-0.173
 7.229 	-0.090 	-0.014
 7.531 	0.024 	0.067
 7.322 	-0.346 	-0.181
 7.200 	0.068 	-0.606
 7.057 	-0.304 	-0.542
 7.056 	-0.518 	-0.289
 7.365 	-0.042 	-0.067
 6.890 	0.118 	-0.296
 6.426 	0.178 	0.169
 6.215 	0.534 	0.248
 6.380 	0.484 	-0.043
 6.762 	0.247 	-0.112
 6.958 	-0.504 	-0.186
 6.824 	-0.716 	-0.077
 6.826 	-0.861 	-0.141
 6.920 	-0.477 	-0.319
 6.980 	-0.437 	-0.479
 7.146 	-0.441 	-0.395
 7.155 	-0.739 	-0.403
 7.235 	-0.737 	-0.513
 7.167 	-0.603 	-0.659
 6.503 	-0.128 	0.157
 6.700 	0.725 	0.488
 6.646 	0.482 	0.059
 6.878 	0.243 	0.143
 6.924 	-0.005 	0.123
 6.917 	0.099 	0.187
 6.723 	-0.022 	0.162
 6.924 	-0.146 	-0.186
 6.945 	-0.341 	-0.459
 6.977 	-0.422 	0.017
 7.188 	-0.429 	-0.011
 7.474 	-0.574 	-0.331
 7.789 	-0.614 	-0.225
 6.956 	-0.691 	-0.330
 6.257 	-0.970 	-0.313
 6.116 	-0.203 	0.029
 6.470 	0.431 	0.328
 6.784 	-0.057 	-0.023
 5.849 	-0.335 	0.394
 6.033 	-0.301 	0.352
 6.109 	-0.131 	0.163
 6.325 	-0.143 	0.102
 6.543 	-0.094 	0.017
 6.786 	-0.284 	-0.173
 7.126 	-0.505 	-0.458
 7.483 	-0.349 	-0.629
 7.695 	-0.150 	-0.440
 7.359 	-0.125 	-0.123
 6.709 	-0.278 	-0.025
 6.600 	-0.317 	-0.145
 6.544 	-0.708 	-0.050
 6.767 	-0.375 	0.038
 6.789 	-0.291 	0.195
 6.695 	0.597 	0.368
 6.219 	-0.656 	-0.048
 5.848 	-0.651 	0.404
 5.700 	-0.216 	0.742
 6.319 	-0.136 	0.475
 6.540 	-0.317 	-0.023
 6.672 	-0.705 	-0.460
 6.438 	-0.785 	-0.535
 5.966 	-0.105 	0.200
 6.020 	0.081 	0.569
 5.797 	0.004 	0.401
 5.942 	-0.420 	0.133
 6.221 	-0.517 	-0.049
 6.455 	-0.725 	-0.168
 6.909 	-0.393 	-0.101
 6.767 	-0.222 	-0.290
 7.314 	0.562 	0.383
 7.163 	-0.555 	-0.326
 7.103 	-0.558 	-0.064
 7.256 	0.159 	0.243
 7.179 	-0.140 	0.181
 7.472 	-0.370 	-0.183
 6.532 	-0.518 	-0.396
 5.511 	0.113 	0.007
 5.357 	-0.168 	1.007
 5.453 	-0.158 	0.845
 5.751 	0.076 	0.119
 6.084 	-0.091 	-0.087
 5.147 	-0.267 	0.120
 4.882 	-0.692 	0.628
 5.578 	-0.841 	0.275
 5.907 	-0.552 	0.227
 6.702 	0.664 	0.461
 6.871 	-0.427 	-0.236
 7.014 	-0.137 	0.234
 7.336 	-0.004 	-0.039
 6.610 	-0.149 	0.492
 6.144 	-0.293 	-0.196
 5.536 	0.143 	-0.263
 5.453 	0.625 	0.807
 5.765 	0.223 	0.233
 6.470 	-0.226 	-0.021
 6.973 	-0.239 	-0.278
 6.783 	-0.183 	-0.079
 6.133 	0.191 	-0.098
 6.267 	0.151 	-0.183
 5.830 	-0.258 	0.380
 5.823 	-0.976 	1.228
 5.696 	-0.756 	1.053
 6.508 	-0.542 	-0.031
 6.611 	-0.154 	0.282
 6.985 	-0.161 	0.302
 6.022 	0.371 	0.608
 5.906 	-0.071 	0.162
 5.598 	-0.049 	-0.067
 5.993 	0.781 	0.443
 6.643 	0.143 	-0.195
 6.608 	0.046 	0.510
 6.866 	-0.021 	0.053
 6.482 	-0.459 	-0.248
 6.391 	-0.322 	-0.494
 7.116 	-0.181 	-0.190
 7.569 	0.287 	-0.175
 7.691 	-0.194 	0.119
 7.624 	-0.072 	0.145
 5.735 	-0.427 	-0.304
 5.641 	-0.287 	-0.401
 5.768 	-0.197 	-0.351
 6.371 	0.178 	-0.278
 6.924 	0.047 	-0.513
 6.724 	0.364 	-0.114
 6.853 	0.536 	-0.046
 6.962 	0.258 	0.076
 6.801 	-0.018 	0.367
 6.540 	-0.120 	0.418
 6.318 	-0.455 	0.158
 6.327 	-0.772 	-0.354
 6.512 	-0.505 	-0.411
 7.103 	-0.267 	-0.433
 7.676 	-0.016 	-0.370
 7.869 	-0.256 	-0.524
 5.507 	-0.767 	0.321
 5.706 	-0.105 	-0.339
 5.764 	-0.333 	-0.655
 5.872 	-0.425 	-0.615
 5.918 	-0.519 	-0.611
 6.358 	-0.146 	-0.287
 6.736 	0.465 	-0.175
 6.402 	0.198 	0.551
 6.159 	-0.236 	0.528
 6.115 	-0.368 	0.411
 6.407 	-0.416 	0.165
 6.344 	-0.538 	-0.109
 6.407 	-0.731 	-0.483
 6.847 	-0.594 	-0.527
 7.276 	-0.262 	-0.762
 7.624 	0.185 	-0.771
 6.823 	0.314 	-0.128
 5.658 	0.219 	-0.001
 5.601 	-0.138 	-0.057
 5.674 	-0.125 	0.519
 5.971 	1.048 	0.770
 5.864 	1.001 	1.357
 6.403 	1.076 	0.618
 6.272 	1.575 	0.432
 6.175 	1.557 	0.400
 5.983 	0.967 	0.118
 5.849 	0.484 	0.074
 5.943 	0.186 	0.160
 6.134 	0.010 	0.097
 6.271 	-0.076 	0.190
 6.765 	-0.209 	-0.032
 6.874 	0.603 	0.340
 6.290 	0.710 	0.361
 5.842 	0.470 	-0.091
 5.834 	0.103 	0.053
 4.931 	0.097 	0.579
 5.516 	0.511 	0.912
 5.888 	0.637 	0.855
 5.464 	1.272 	0.686
 5.324 	1.378 	0.595
 5.432 	1.066 	0.276
 5.064 	0.402 	0.710
 5.186 	-0.031 	1.086
 5.781 	-0.473 	1.077
 6.355 	-0.804 	0.302
 6.663 	-0.511 	0.215
 6.591 	-0.155 	-0.008
 6.610 	0.516 	0.095
 6.689 	1.209 	-0.004
 6.082 	0.697 	-0.102
 5.469 	0.883 	-0.030
 5.713 	0.235 	0.258
 5.767 	0.056 	0.153
 5.639 	0.278 	0.325
 5.612 	0.958 	0.321
 5.416 	1.262 	0.545
 5.404 	1.041 	0.652
 5.496 	0.854 	0.234
 5.441 	0.077 	0.303
 6.004 	-0.515 	0.805
 6.531 	-0.591 	0.788
 6.847 	-0.875 	0.489
 6.817 	0.101 	0.445
 6.511 	0.659 	0.300
 6.123 	0.531 	0.190
 6.306 	0.613 	-0.148
 6.566 	0.673 	-0.083
 6.846 	0.448 	0.166
 6.807 	0.396 	-0.055
 6.339 	0.438 	0.170
 6.164 	0.740 	0.178
 6.365 	0.955 	0.389
 6.001 	0.993 	0.069
 5.740 	0.886 	-0.252
 5.934 	-0.062 	0.015
 6.439 	-0.474 	0.293
 6.416 	-0.784 	0.395
 6.712 	-0.705 	0.416
 6.010 	0.421 	0.618
 6.472 	0.114 	-0.108
 6.703 	0.288 	0.463
 6.826 	0.300 	0.256
 6.881 	0.210 	-0.041
 6.858 	0.155 	-0.018
 6.983 	0.247 	0.155
 7.317 	0.878 	-0.077
 6.915 	0.868 	-0.083
 6.418 	1.003 	-0.247
 6.190 	1.118 	-0.441
 6.376 	0.598 	-0.228
 6.587 	-0.097 	-0.051
 6.553 	-0.456 	0.248
 6.628 	-0.669 	0.712
 6.476 	-0.867 	0.458
 7.099 	-0.397 	0.559
 7.288 	-0.727 	-0.002
 7.506 	0.272 	-0.138
 7.452 	0.157 	-0.399
 7.513 	0.277 	-0.160
 7.103 	0.186 	0.028
 6.896 	0.218 	0.095
 6.855 	0.665 	0.181
 6.935 	0.929 	-0.054
 6.877 	1.071 	-0.122
 6.814 	1.028 	-0.039
 7.028 	0.397 	-0.142
 6.964 	0.021 	-0.265
 7.038 	-0.389 	0.036
 7.142 	-0.489 	-0.075
 7.161 	-0.568 	-0.165
 7.307 	-0.784 	-0.143
 7.363 	-0.800 	-0.170
 7.359 	0.228 	-0.409
 7.331 	0.008 	-0.230
 7.243 	0.248 	-0.160
 7.102 	0.473 	-0.005
 6.774 	0.457 	0.115
 6.639 	0.662 	0.026
 6.668 	0.988 	-0.176
 6.712 	1.080 	-0.212
 6.954 	0.845 	-0.319
 7.253 	0.522 	-0.379
 7.249 	0.226 	-0.038
 7.358 	-0.189 	-0.168
 7.313 	-0.011 	-0.437
 7.098 	-0.415 	-0.374
 6.995 	-0.818 	-0.240
 6.171 	-0.620 	0.560
 6.814 	0.215 	-0.266
 6.425 	0.038 	0.277
 6.289 	0.126 	0.451
 6.582 	0.157 	0.207
 6.718 	0.471 	0.108
 6.672 	0.669 	0.066
 6.514 	0.931 	-0.011
 6.695 	0.670 	-0.023
 7.036 	0.256 	-0.120
 7.338 	-0.032 	-0.077
 7.484 	-0.022 	0.025
 7.295 	-0.274 	0.080
 7.316 	-0.055 	-0.235
 7.030 	-0.222 	-0.089
 6.639 	-0.885 	0.035
 6.163 	-0.144 	1.116
 6.141 	0.165 	0.104
 6.634 	-0.028 	0.399
 7.054 	-0.313 	0.584
 6.889 	-0.141 	0.472
 6.816 	0.113 	0.259
 6.863 	0.215 	0.045
 6.907 	0.241 	-0.046
 7.059 	0.162 	-0.079
 7.463 	-0.230 	-0.247
 7.484 	-0.532 	-0.267
 7.473 	-0.561 	-0.363
 7.650 	-0.567 	0.008
 7.285 	0.004 	-0.209
 7.443 	-0.576 	0.387
 6.826 	-0.597 	0.477
 6.753 	-0.670 	0.576
 6.385 	-0.121 	0.920
 6.397 	-0.545 	0.727
 6.700 	-0.681 	0.325
 6.870 	-0.394 	0.215
 6.912 	-0.141 	0.139
 7.063 	-0.373 	0.045
 7.437 	-0.540 	-0.184
 7.612 	-0.636 	-0.131
 7.485 	-0.521 	-0.172
 7.106 	-0.563 	-0.270
 7.098 	-0.605 	-0.249
 7.200 	-0.596 	-0.166
 7.520 	-0.157 	-0.358
 7.733 	-0.246 	-0.041
 7.632 	-0.433 	0.324
 7.525 	-0.646 	0.523
 6.908 	-0.396 	0.000
 6.929 	-0.471 	0.214
 7.137 	-0.630 	0.327
 7.287 	-0.652 	0.265
 7.489 	-0.584 	-0.030
 7.425 	-0.518 	-0.106
 6.926 	-0.979 	0.083
 6.763 	-0.427 	0.191
 6.499 	-0.438 	0.300
 6.692 	-0.504 	0.024
 6.977 	-0.392 	-0.114
 7.162 	-0.363 	-0.117
 7.134 	-0.354 	0.073
 7.408 	-0.328 	0.233
 7.275 	-0.546 	0.229
 7.104 	-0.479 	0.125
 6.934 	-0.155 	-0.396
 6.880 	-0.262 	-0.378
 7.094 	-0.467 	-0.137
 7.247 	-0.554 	-0.148
 7.285 	-0.544 	-0.060
 7.225 	-0.488 	0.075
 6.871 	-0.366 	0.160
 5.993 	-0.097 	0.656
 6.434 	-0.268 	0.531
 6.945 	-0.828 	0.155
 6.867 	-0.891 	-0.016
 7.013 	-0.488 	0.019
 7.266 	-0.300 	0.032
 7.031 	-0.157 	0.387
 6.552 	-0.755 	0.518
 5.917 	-0.737 	0.713
 6.860 	-0.607 	-0.292
 6.948 	-0.418 	-0.224
 7.006 	-0.242 	-0.088
 6.998 	-0.165 	0.447
 6.816 	-0.173 	0.302
 6.533 	-0.299 	0.344
 6.410 	-0.120 	0.345
 6.884 	-0.286 	0.184
 6.823 	-0.728 	0.076
 6.512 	-0.903 	-0.030
 6.399 	-0.817 	0.033
 6.598 	-0.698 	0.143
 6.875 	-0.370 	0.168
 7.283 	0.136 	0.087
 7.127 	0.218 	0.523
 7.096 	-0.222 	0.438
 6.561 	-0.744 	0.046
 6.491 	-0.582 	0.057
 6.543 	-0.159 	0.244
 6.762 	0.043 	0.505
 6.781 	0.076 	0.097
 6.537 	-0.104 	0.297
 6.799 	-0.271 	0.263
 6.710 	-0.544 	-0.097
 6.484 	-0.735 	-0.044
 6.291 	-0.967 	0.176
 6.362 	-1.009 	0.006
 6.642 	-1.150 	-0.306
 6.902 	-0.783 	-0.133
 7.108 	-0.446 	0.128
 7.638 	-0.229 	0.105
 8.201 	-0.321 	-0.080
 6.584 	-0.830 	-0.062
 6.183 	-0.572 	-0.234
 5.815 	-0.507 	-0.339
 6.058 	-0.137 	-0.148
 6.174 	-0.062 	-0.094
 6.488 	-0.344 	0.032
 6.617 	-0.710 	-0.117
 6.322 	-0.387 	0.269
 6.380 	-0.209 	0.810
 6.422 	-0.942 	0.593
 6.691 	-1.353 	0.021
 6.962 	-1.161 	-0.393
 6.885 	-1.234 	-0.634
 7.157 	-0.850 	-0.546
 7.742 	-0.391 	-0.745
 8.027 	-0.111 	-0.774
 7.144 	-1.115 	0.210
 7.617 	-0.465 	-0.548
 7.145 	-0.458 	-0.416
 7.049 	-0.202 	-0.539
 6.551 	-0.369 	-0.294
 6.148 	-0.991 	0.011
 5.738 	-0.879 	0.190
 5.955 	-0.606 	0.688
 6.148 	-0.534 	0.684
 6.750 	-0.939 	0.439
 7.101 	-1.416 	0.138
 7.279 	-1.410 	-0.164
 7.777 	-0.950 	-0.584
 7.326 	-1.157 	-0.687
 7.303 	-0.872 	-0.702
 7.700 	-0.205 	-0.981
 7.156 	0.890 	0.480
 7.086 	0.504 	-0.001
 6.533 	0.217 	0.005
 6.251 	-0.060 	0.277
 5.978 	0.279 	0.774
 6.280 	1.134 	1.150
 6.379 	1.176 	0.708
 6.228 	1.200 	0.438
 6.115 	1.262 	0.400
 6.133 	1.036 	0.443
 6.416 	0.724 	0.349
 6.372 	0.454 	0.203
 6.327 	0.399 	0.081
 6.436 	0.341 	0.128
 6.633 	0.313 	0.144
 6.828 	0.281 	0.318
 6.779 	0.303 	0.431
 6.887 	0.973 	0.281
 5.637 	0.578 	0.086
 5.177 	0.297 	0.390
 5.304 	0.185 	0.782
 5.676 	0.632 	1.107
 5.353 	1.185 	1.054
 5.556 	1.299 	0.843
 5.957 	1.281 	0.568
 5.847 	1.171 	0.575
 5.576 	1.051 	0.618
 5.844 	0.685 	0.658
 5.928 	0.442 	0.370
 6.344 	0.047 	0.126
 6.674 	-0.094 	0.023
 6.775 	0.054 	0.154
 6.729 	0.384 	0.317
 6.711 	0.635 	-0.066
 6.337 	1.174 	0.363
 5.538 	0.813 	0.082
 5.515 	0.272 	0.263
 5.522 	0.441 	0.486
 5.884 	0.763 	0.450
 5.864 	1.083 	0.588
 5.682 	1.475 	0.727
 5.495 	1.182 	0.542
 5.558 	1.206 	0.308
 5.538 	0.794 	0.162
 6.255 	0.077 	0.477
 6.646 	-0.436 	0.761
 6.766 	-0.590 	0.513
 6.761 	-0.375 	0.261
 6.263 	0.276 	0.338
 6.197 	0.318 	0.396
 6.570 	0.671 	0.288
 6.896 	0.558 	0.112
 7.016 	0.536 	-0.001
 6.574 	0.480 	0.405
 6.186 	0.783 	0.236
 6.073 	1.265 	0.256
 5.903 	1.386 	0.312
 5.915 	1.032 	-0.051
 5.688 	1.159 	-0.122
 6.245 	0.500 	0.273
 6.624 	-0.132 	0.200
 6.629 	-0.481 	0.523
 6.822 	-0.560 	0.620
 6.907 	-0.588 	0.418
 6.842 	0.351 	0.272
 6.960 	0.086 	0.183
 6.892 	0.217 	0.282
 6.754 	0.221 	0.193
 6.868 	0.362 	0.060
 7.246 	0.840 	0.013
 7.062 	0.907 	0.144
 6.705 	1.059 	0.069
 6.588 	1.091 	-0.161
 6.420 	0.922 	-0.165