# vtk DataFile Version 3.0
HighT1
ASCII
DATASET STRUCTURED_POINTS
DIMENSIONS 16 16 19
ORIGIN 929.001000000000 929.001000000000 5.001000000000
SPACING 10.000000000000 10.000000000000 10.000000000000
POINT_DATA 4864
FIELD attributes 1
U 3 4864 float
2.809 	0.004 	0.123
 3.137 	0.956 	0.427
 3.921 	1.328 	-0.163
 4.978 	0.675 	-0.549
 5.771 	-0.295 	-0.851
 5.036 	-0.496 	-0.942
 4.470 	0.219 	0.299
 2.915 	0.370 	-0.018
 3.229 	-0.700 	0.577
 3.993 	0.378 	-0.016
 4.449 	0.546 	-0.441
 4.582 	0.717 	-0.520
 4.976 	1.012 	-0.321
 4.591 	0.620 	-0.511
 4.508 	0.101 	-0.018
 4.379 	0.643 	-0.064
 3.439 	-0.742 	0.520
 3.992 	0.628 	-0.012
 3.559 	0.538 	-0.093
 3.582 	0.021 	0.142
 3.719 	0.769 	-0.123
 4.354 	0.375 	-0.342
 3.639 	0.687 	0.020
 4.540 	0.062 	-0.415
 4.245 	-0.076 	-0.579
 4.408 	0.753 	-0.036
 4.610 	0.656 	-0.181
 3.209 	0.607 	0.401
 2.758 	0.180 	0.243
 3.412 	1.256 	0.217
 4.178 	1.296 	-0.004
 4.108 	0.569 	-0.029
 4.615 	-0.321 	-0.358
 1.816 	-0.489 	0.879
 2.226 	0.153 	0.516
 3.380 	0.875 	-0.071
 3.853 	0.787 	-0.084
 3.439 	0.570 	-0.109
 3.141 	0.104 	0.169
 2.374 	-0.621 	0.298
 2.672 	-0.117 	0.744
 4.372 	1.672 	-0.439
 3.826 	0.355 	0.817
 4.443 	1.930 	0.054
 3.771 	0.604 	0.052
 3.621 	0.859 	-0.022
 3.699 	0.459 	-0.179
 4.392 	-0.081 	-0.099
 3.585 	0.120 	0.375
 3.099 	0.320 	0.148
 3.213 	0.033 	-0.341
 2.883 	0.289 	0.108
 3.163 	0.842 	0.071
 3.828 	0.341 	-0.070
 2.754 	-0.468 	0.326
 2.627 	0.178 	0.442
 2.954 	-0.935 	0.399
 3.086 	1.187 	0.338
 3.696 	0.253 	0.110
 3.610 	0.668 	-0.094
 4.424 	-0.066 	0.072
 4.622 	0.324 	0.318
 4.179 	-0.319 	0.022
 3.919 	0.107 	-0.028
 2.798 	-0.119 	0.390
 2.764 	-0.051 	0.177
 2.957 	-0.053 	-0.025
 2.506 	0.218 	0.326
 2.808 	-0.234 	0.008
 2.994 	0.109 	0.286
 3.548 	-0.377 	0.185
 3.606 	-0.647 	-0.137
 3.551 	-0.642 	-0.214
 4.078 	0.067 	-0.317
 4.200 	0.660 	-0.116
 3.408 	-0.239 	0.170
 3.709 	-0.678 	0.355
 2.986 	-1.207 	0.369
 3.819 	-0.368 	0.030
 3.855 	-0.703 	0.175
 3.985 	-0.151 	-0.261
 3.963 	-0.013 	0.041
 4.283 	-0.390 	-0.345
 4.156 	-0.270 	-0.224
 3.803 	-0.256 	0.334
 3.605 	0.132 	-0.226
 3.850 	0.174 	-0.286
 3.624 	-0.347 	0.297
 3.139 	-0.294 	0.351
 2.690 	-0.406 	0.271
 3.746 	-0.348 	0.012
 4.349 	0.119 	0.294
 4.303 	-0.668 	0.069
 4.152 	-0.202 	0.207
 2.192 	-0.151 	0.343
 2.722 	0.047 	-0.198
 4.271 	-0.319 	-0.142
 4.887 	-0.143 	-0.162
 4.620 	0.064 	0.012
 4.254 	-0.282 	-0.009
 4.409 	0.396 	0.048
 4.412 	-0.397 	0.235
 3.607 	0.113 	0.058
 3.670 	-0.028 	0.044
 3.665 	-0.557 	-0.282
 3.491 	-1.153 	0.204
 4.303 	-0.918 	-0.304
 4.453 	-0.461 	-0.106
 4.145 	-0.328 	0.175
 3.777 	-0.260 	0.093
 3.750 	0.210 	0.106
 3.534 	-0.172 	0.063
 3.463 	-0.678 	0.073
 3.436 	-0.359 	0.160
 3.755 	0.554 	-0.018
 3.162 	0.542 	0.143
 2.429 	0.156 	0.143
 2.373 	-0.033 	0.166
 3.039 	0.272 	-0.023
 3.506 	0.198 	-0.368
 4.078 	-0.033 	-0.272
 4.422 	-0.717 	-0.886
 3.577 	-0.974 	0.045
 4.473 	-0.138 	-0.758
 5.117 	-0.067 	-0.455
 4.870 	0.387 	-0.182
 4.887 	0.065 	-0.353
 4.594 	0.125 	-0.086
 4.820 	0.350 	-0.032
 3.443 	0.671 	-0.005
 2.462 	0.445 	-0.010
 3.181 	0.754 	-0.214
 3.913 	0.440 	-0.206
 4.399 	-0.205 	-0.076
 4.251 	-0.351 	0.021
 3.676 	0.016 	-0.077
 4.254 	-0.045 	0.078
 4.387 	-0.719 	0.062
 4.469 	-0.137 	-0.061
 4.925 	-0.154 	0.003
 3.639 	0.590 	0.016
 3.941 	0.712 	0.016
 4.226 	0.460 	-0.029
 4.513 	0.298 	0.253
 4.354 	0.837 	0.036
 4.190 	1.124 	0.081
 3.954 	0.689 	-0.357
 4.110 	0.546 	-0.203
 4.425 	0.387 	-0.054
 4.681 	0.040 	-0.596
 4.424 	-0.123 	-0.266
 4.235 	0.233 	-0.183
 4.331 	-0.291 	-0.560
 3.896 	-0.576 	0.538
 4.087 	0.448 	0.083
 3.892 	0.165 	0.019
 3.622 	0.480 	0.170
 4.139 	0.356 	-0.056
 4.182 	0.567 	-0.121
 4.409 	0.688 	-0.269
 3.557 	0.703 	0.114
 3.661 	1.030 	-0.106
 3.892 	0.402 	0.126
 4.204 	0.686 	0.172
 3.670 	0.557 	-0.127
 3.716 	0.486 	-0.095
 3.833 	0.803 	-0.056
 4.001 	0.189 	-0.446
 4.215 	0.516 	0.027
 3.968 	-0.364 	-0.060
 2.882 	0.397 	0.367
 3.379 	0.038 	-0.033
 3.328 	0.163 	-0.311
 3.357 	-0.150 	-0.055
 3.817 	0.518 	-0.111
 3.887 	0.729 	-0.047
 2.983 	0.101 	-0.081
 2.668 	0.533 	0.382
 2.627 	-0.131 	0.219
 2.562 	-0.311 	0.139
 2.659 	-0.360 	0.224
 3.309 	0.602 	0.050
 3.193 	0.538 	-0.141
 3.866 	0.600 	0.087
 3.608 	0.479 	0.138
 3.279 	-0.410 	0.277
 3.760 	0.165 	-0.104
 3.990 	0.164 	-0.131
 4.249 	0.521 	-0.254
 3.833 	0.634 	0.084
 3.886 	0.571 	-0.316
 4.031 	0.694 	-0.124
 3.618 	-0.071 	-0.173
 3.691 	0.031 	0.213
 3.913 	-0.495 	0.234
 3.915 	-0.470 	0.173
 3.593 	-0.572 	0.134
 3.153 	-0.233 	0.354
 2.985 	-0.281 	0.252
 2.712 	0.157 	0.397
 3.556 	-0.474 	0.072
 4.283 	-0.596 	-0.304
 3.734 	-0.191 	0.097
 3.570 	0.387 	0.144
 3.757 	0.437 	0.096
 4.091 	0.013 	0.101
 4.179 	0.260 	-0.110
 4.534 	0.530 	-0.058
 3.893 	0.080 	-0.177
 4.169 	0.122 	-0.081
 4.070 	-0.299 	0.299
 2.939 	-0.470 	0.112
 3.366 	-0.379 	-0.051
 3.457 	-0.166 	-0.263
 3.679 	0.131 	-0.003
 3.905 	0.457 	-0.454
 4.314 	0.379 	-0.290
 4.236 	0.039 	0.089
 4.075 	-0.499 	0.095
 4.433 	-0.441 	-0.121
 4.728 	-0.325 	-0.015
 4.793 	-0.020 	-0.170
 4.490 	0.185 	0.034
 3.814 	0.733 	0.193
 2.780 	0.155 	0.131
 3.215 	0.100 	-0.134
 3.989 	0.038 	-0.222
 3.993 	-0.171 	-0.111
 3.446 	-0.289 	0.142
 3.066 	-0.549 	0.142
 3.149 	-0.161 	0.114
 3.622 	0.336 	-0.134
 3.934 	0.276 	-0.142
 4.216 	0.323 	-0.064
 4.011 	-0.303 	-0.239
 3.689 	-0.328 	0.100
 3.828 	-0.309 	0.135
 3.826 	0.611 	0.133
 3.519 	0.731 	0.067
 3.832 	0.593 	-0.274
 3.314 	-0.385 	0.181
 3.016 	-0.108 	0.073
 3.376 	0.234 	-0.268
 3.544 	0.322 	-0.300
 3.542 	-0.344 	-0.254
 3.174 	-0.085 	0.219
 2.450 	0.220 	-0.030
 2.146 	0.119 	0.260
 2.710 	-0.105 	-0.278
 2.866 	-0.224 	0.194
 3.128 	0.296 	0.010
 2.668 	0.106 	-0.036
 2.277 	-0.456 	0.024
 3.044 	0.259 	-0.109
 3.079 	0.436 	0.106
 3.257 	-0.383 	0.028
 5.751 	0.674 	0.418
 5.982 	1.080 	0.487
 4.747 	0.632 	0.380
 5.900 	0.704 	0.570
 6.093 	1.520 	-0.024
 5.238 	0.729 	-0.523
 5.352 	-0.181 	0.408
 6.231 	-0.623 	-0.695
 5.612 	0.156 	0.303
 5.322 	-0.419 	-0.290
 6.256 	-0.122 	-0.726
 6.106 	-0.128 	-0.921
 6.146 	0.323 	-0.649
 6.416 	0.059 	-0.473
 6.313 	0.809 	-1.034
 5.841 	0.810 	0.151
 5.162 	0.276 	0.457
 5.405 	1.052 	0.252
 5.602 	1.049 	0.481
 5.419 	0.207 	-0.128
 5.771 	0.503 	-0.541
 5.984 	0.140 	-0.608
 5.036 	0.494 	0.715
 5.065 	1.113 	0.218
 4.927 	-0.312 	-0.596
 4.566 	-0.425 	-0.750
 5.238 	-0.313 	-1.044
 6.155 	0.421 	-0.374
 6.398 	1.053 	-0.502
 6.387 	0.386 	-0.339
 6.511 	0.795 	-0.111
 6.255 	1.479 	0.320
 4.949 	0.176 	0.581
 4.988 	0.170 	0.267
 6.338 	1.147 	-0.374
 5.254 	-0.751 	-0.343
 5.372 	0.684 	-0.579
 5.507 	0.924 	-0.208
 5.227 	0.102 	0.595
 5.260 	0.727 	0.268
 4.698 	0.384 	0.045
 4.425 	-0.355 	-0.497
 4.017 	0.071 	-0.143
 4.428 	0.296 	0.524
 4.025 	1.558 	0.877
 4.613 	1.296 	0.544
 4.793 	-0.318 	0.959
 5.768 	1.225 	0.753
 4.233 	-0.382 	0.428
 4.281 	0.144 	0.433
 4.627 	0.129 	-0.289
 3.875 	-0.184 	0.334
 3.552 	0.574 	0.864
 3.635 	1.121 	0.457
 3.563 	-0.248 	0.746
 3.808 	0.724 	-0.016
 3.525 	0.266 	0.435
 3.357 	-0.008 	0.459
 3.820 	-0.292 	0.112
 4.264 	0.817 	0.271
 5.022 	-0.203 	1.234
 4.852 	-0.533 	0.390
 5.093 	-0.501 	0.177
 5.033 	0.385 	0.205
 4.299 	-0.197 	0.448
 3.915 	-0.063 	0.732
 3.861 	-0.007 	0.403
 4.148 	0.123 	-0.002
 4.495 	-0.214 	-0.225
 4.819 	0.432 	0.270
 4.608 	0.010 	0.318
 4.653 	-0.134 	0.090
 4.996 	0.221 	-0.076
 4.589 	-0.281 	0.130
 5.076 	0.426 	-0.059
 5.249 	0.593 	-0.236
 5.897 	0.114 	0.138
 5.951 	-0.311 	-0.304
 5.638 	-0.583 	-0.502
 5.461 	-0.674 	0.046
 4.880 	0.025 	-0.004
 4.732 	-0.409 	0.084
 4.786 	-0.377 	0.213
 4.783 	-0.128 	0.004
 4.630 	0.422 	0.043
 5.231 	0.281 	-0.191
 5.147 	0.152 	-0.229
 4.908 	-0.375 	0.493
 4.311 	-0.439 	0.138
 4.364 	0.001 	0.006
 4.003 	-0.624 	0.516
 4.102 	0.123 	0.425
 5.291 	0.257 	0.020
 5.927 	0.133 	-0.854
 4.971 	-0.178 	0.048
 5.348 	-0.041 	-0.263
 6.059 	0.020 	-0.373
 5.274 	-0.092 	0.123
 5.058 	-0.139 	0.056
 4.714 	-0.355 	0.113
 4.709 	0.317 	0.547
 4.789 	0.522 	0.280
 4.941 	0.379 	-0.064
 5.229 	0.574 	-0.498
 5.104 	-0.456 	-0.421
 4.948 	-0.193 	-0.422
 5.214 	0.009 	-0.305
 4.831 	0.131 	0.129
 4.324 	0.236 	0.225
 4.598 	0.228 	0.296
 5.483 	0.564 	-0.139
 5.168 	0.237 	0.076
 5.627 	0.374 	0.014
 5.616 	0.184 	-0.003
 5.066 	0.027 	-0.400
 5.236 	0.148 	-0.616
 5.186 	0.156 	0.033
 5.043 	0.567 	-0.154
 4.284 	-0.101 	0.210
 4.469 	0.543 	-0.403
 4.470 	-0.284 	0.009
 4.897 	-0.217 	0.063
 4.841 	-0.350 	-0.590
 5.377 	-0.340 	-0.673
 5.722 	-0.070 	-0.656
 5.307 	-0.009 	-0.347
 5.450 	0.207 	0.153
 5.609 	-0.023 	-0.013
 4.945 	0.098 	-0.078
 4.317 	0.321 	-0.125
 4.874 	0.340 	-0.266
 4.412 	-0.260 	-0.660
 4.737 	0.333 	-0.378
 4.540 	0.758 	0.154
 4.514 	0.280 	0.269
 4.587 	-0.189 	0.258
 4.483 	-0.545 	0.329
 4.614 	-0.940 	-0.357
 5.280 	-0.592 	-0.301
 5.141 	-0.185 	-0.180
 5.424 	-0.144 	-0.295
 5.366 	-0.090 	-0.370
 5.610 	0.107 	-0.410
 5.320 	0.361 	-0.070
 4.102 	0.449 	0.109
 3.731 	0.127 	-0.034
 4.106 	0.030 	-0.234
 4.360 	0.184 	-0.187
 4.405 	0.026 	-0.697
 5.069 	0.868 	-0.626
 5.002 	0.527 	-0.449
 5.169 	0.174 	-0.361
 4.990 	-0.522 	-0.485
 4.666 	-0.677 	-0.230
 5.014 	-0.434 	0.110
 4.674 	0.507 	0.431
 5.411 	0.334 	-0.207
 4.759 	-0.040 	-0.568
 4.746 	-0.640 	-0.407
 5.012 	-0.270 	-0.680
 3.724 	-0.306 	0.359
 3.917 	0.249 	0.528
 3.610 	-0.347 	0.418
 3.375 	-0.335 	0.563
 3.951 	0.185 	0.191
 4.179 	0.639 	-0.025
 4.217 	0.514 	0.283
 4.444 	0.021 	-0.599
 4.852 	-0.329 	-0.934
 5.254 	0.378 	-0.676
 4.416 	-0.433 	0.445
 4.723 	0.487 	0.123
 4.804 	0.242 	-0.215
 4.808 	0.495 	0.038
 4.589 	-0.353 	0.033
 5.149 	-0.088 	-0.060
 3.737 	-0.384 	0.138
 3.562 	0.365 	0.001
 2.801 	0.057 	0.301
 2.883 	-0.488 	0.334
 3.359 	-0.557 	0.949
 2.998 	-0.119 	0.685
 3.525 	0.347 	-0.512
 3.939 	0.227 	-0.738
 3.883 	0.284 	0.068
 4.235 	0.683 	0.054
 4.464 	0.121 	0.088
 4.681 	0.041 	0.154
 4.275 	0.017 	0.334
 4.558 	-0.275 	0.030
 5.027 	-0.777 	-0.031
 4.936 	-0.025 	-0.207
 3.745 	0.320 	-0.106
 3.368 	0.540 	0.662
 3.622 	0.455 	-0.165
 3.550 	-0.061 	0.047
 3.329 	-0.418 	0.409
 3.110 	0.033 	0.457
 3.382 	0.371 	-0.376
 4.198 	0.689 	-0.178
 4.311 	0.980 	-0.275
 4.608 	0.596 	-0.759
 4.601 	0.167 	-0.358
 4.369 	-0.353 	0.097
 4.402 	-0.339 	0.317
 4.942 	-0.517 	0.367
 4.615 	-0.232 	-0.104
 4.555 	-0.038 	-0.153
 4.078 	-0.413 	0.026
 4.160 	0.137 	-0.292
 4.196 	0.077 	-0.002
 4.386 	-0.115 	0.053
 3.901 	-0.406 	0.555
 3.744 	-0.471 	0.287
 4.131 	-0.024 	0.064
 4.329 	0.717 	-0.708
 4.893 	0.659 	-0.590
 4.878 	0.546 	-0.100
 4.620 	0.554 	-0.140
 4.429 	0.218 	-0.354
 4.992 	-0.041 	-0.261
 5.217 	-0.194 	0.072
 4.206 	-0.010 	-0.071
 4.211 	-0.029 	0.341
 3.784 	-0.832 	0.063
 3.967 	-0.238 	-0.096
 4.226 	0.050 	-0.023
 4.096 	0.174 	-0.167
 3.910 	-0.104 	0.027
 3.692 	-0.517 	0.164
 3.826 	-0.285 	-0.021
 3.969 	-0.045 	-0.021
 4.221 	0.289 	0.079
 4.468 	0.393 	-0.158
 4.773 	0.688 	-0.210
 4.973 	0.170 	0.088
 4.131 	-0.499 	0.213
 4.076 	0.105 	0.140
 3.964 	0.201 	-0.177
 3.936 	0.410 	0.363
 4.284 	-0.619 	0.259
 4.602 	-0.333 	-0.351
 4.332 	-0.214 	-0.379
 3.933 	0.119 	-0.092
 3.434 	0.077 	-0.019
 3.668 	-0.539 	0.042
 3.405 	-0.751 	0.015
 3.520 	-0.666 	0.032
 3.830 	-0.636 	0.155
 4.419 	-0.432 	-0.062
 4.544 	0.677 	-0.420
 4.854 	0.632 	0.478
 4.672 	-0.292 	0.226
 3.548 	-0.171 	0.137
 3.500 	0.295 	0.152
 4.075 	1.021 	0.330
 6.036 	-0.043 	0.780
 6.418 	0.407 	0.321
 6.751 	1.099 	0.521
 7.169 	1.057 	-0.403
 5.887 	1.530 	0.647
 6.232 	1.048 	-0.143
 6.007 	0.901 	-0.210
 6.689 	0.800 	-0.500
 6.635 	0.486 	0.077
 6.771 	0.163 	-0.340
 6.672 	-0.088 	-0.716
 6.684 	0.385 	-0.893
 6.832 	0.630 	-1.298
 6.735 	0.286 	-0.910
 6.685 	0.059 	-0.781
 6.915 	0.589 	-0.328
 6.953 	0.220 	0.470
 5.689 	0.840 	0.881
 5.561 	0.601 	0.606
 6.182 	1.615 	0.484
 5.952 	1.336 	0.195
 5.632 	0.125 	-0.145
 5.237 	0.587 	0.114
 5.847 	0.336 	-0.330
 5.836 	0.302 	-0.395
 5.974 	0.250 	-0.163
 5.605 	-0.428 	-0.769
 5.312 	-0.525 	-0.194
 6.285 	0.022 	-1.101
 5.513 	0.232 	-0.325
 5.966 	-0.178 	0.148
 5.756 	0.903 	0.165
 5.161 	0.309 	0.832
 4.936 	-0.177 	1.242
 4.875 	-0.091 	0.336
 4.758 	0.116 	-0.017
 5.306 	-0.290 	-0.108
 5.134 	0.478 	-0.124
 5.072 	0.563 	0.796
 5.133 	0.609 	-0.036
 5.005 	0.544 	-0.051
 5.479 	0.465 	-0.215
 4.315 	-0.193 	-0.051
 3.828 	-0.076 	0.463
 4.198 	-0.360 	0.834
 4.492 	0.448 	0.787
 5.252 	0.707 	0.447
 4.684 	1.069 	0.332
 4.771 	-0.195 	0.866
 4.860 	-0.045 	0.578
 4.662 	-0.157 	0.179
 4.510 	0.205 	0.329
 4.216 	-0.593 	0.655
 4.344 	0.830 	0.700
 4.240 	0.185 	0.525
 4.251 	0.362 	0.014
 4.365 	0.726 	0.427
 5.247 	0.759 	-0.269
 5.404 	0.636 	-0.846
 5.936 	0.298 	-0.671
 5.622 	0.314 	1.182
 4.930 	0.719 	0.828
 4.768 	1.492 	0.224
 5.096 	1.079 	1.363
 5.785 	0.012 	0.648
 5.138 	0.034 	0.591
 4.703 	-0.666 	0.147
 4.329 	0.434 	0.122
 4.122 	-0.302 	0.479
 4.370 	-0.088 	0.834
 4.678 	-0.223 	0.650
 4.404 	0.902 	0.400
 4.694 	0.861 	0.427
 4.418 	0.884 	0.108
 4.810 	0.326 	0.002
 5.353 	0.316 	0.044
 5.201 	0.808 	-0.580
 5.003 	0.947 	-0.487
 5.476 	1.255 	-0.408
 5.477 	0.370 	-0.524
 5.529 	-0.234 	0.551
 5.493 	0.029 	0.316
 5.357 	-0.153 	0.228
 5.607 	-0.155 	-0.027
 6.053 	-0.842 	-0.271
 5.551 	0.250 	-0.080
 5.577 	-0.144 	0.157
 4.820 	0.562 	0.118
 4.811 	0.757 	0.068
 4.802 	0.859 	-0.136
 4.563 	0.299 	0.310
 5.313 	0.244 	0.019
 5.346 	0.565 	-0.081
 5.737 	0.605 	-0.716
 6.257 	0.338 	-0.571
 6.575 	0.322 	-0.612
 5.558 	-0.081 	0.289
 5.348 	0.249 	0.159
 5.509 	-0.250 	0.215
 5.439 	-0.514 	-0.071
 5.468 	-0.288 	0.121
 5.435 	-0.055 	-0.365
 5.475 	-0.504 	-0.123
 6.015 	0.551 	-0.553
 4.990 	1.207 	-0.397
 4.935 	1.155 	0.087
 5.611 	0.768 	-0.769
 5.682 	1.170 	-0.717
 5.897 	0.068 	-0.268
 5.853 	-0.171 	-0.079
 6.324 	0.186 	-0.655
 5.702 	1.139 	-0.283
 5.226 	-0.262 	0.323
 5.559 	0.267 	-0.099
 5.523 	-0.041 	-0.071
 5.361 	-0.196 	-0.412
 5.181 	-0.068 	0.111
 4.938 	0.022 	0.127
 5.340 	0.096 	-0.183
 4.353 	0.614 	0.033
 5.052 	0.822 	0.225
 5.642 	0.677 	-0.429
 6.041 	0.597 	-0.280
 6.218 	0.829 	-0.168
 5.708 	0.601 	0.323
 5.800 	-0.262 	0.005
 6.109 	0.156 	-0.132
 6.073 	1.223 	0.012
 4.831 	-0.189 	0.035
 4.617 	0.174 	0.043
 4.921 	0.007 	-0.099
 5.071 	-0.459 	-0.507
 5.116 	-0.342 	-0.287
 4.854 	0.431 	0.095
 4.696 	0.729 	0.085
 4.486 	0.609 	0.164
 4.366 	0.819 	0.115
 4.713 	0.550 	-0.383
 5.208 	-0.264 	-0.300
 5.759 	-0.209 	-0.312
 6.037 	-0.293 	-0.451
 5.820 	-0.302 	-0.459
 5.877 	0.311 	0.013
 5.573 	0.909 	-0.049
 3.891 	-0.100 	0.368
 4.329 	-0.250 	0.263
 4.585 	-0.512 	-0.409
 4.968 	-1.129 	-0.537
 5.049 	-0.406 	-0.984
 5.172 	0.374 	-0.244
 5.250 	0.745 	-0.334
 4.781 	1.004 	-0.576
 5.014 	0.511 	-0.594
 5.623 	0.043 	-0.700
 5.843 	-0.276 	-0.700
 5.332 	-0.542 	0.069
 5.479 	0.071 	-0.543
 5.393 	0.274 	-0.436
 5.558 	0.104 	-0.118
 5.461 	0.635 	-0.492
 3.544 	-0.671 	0.943
 3.636 	-0.527 	0.852
 3.768 	-0.836 	-0.185
 4.147 	-0.875 	0.203
 4.023 	-0.444 	0.008
 4.927 	0.028 	-0.799
 4.865 	0.720 	-0.361
 5.128 	0.924 	-0.290
 5.298 	0.684 	-0.792
 5.586 	0.286 	-0.913
 5.500 	0.470 	-0.222
 5.276 	0.020 	-0.337
 4.713 	0.388 	0.322
 4.947 	0.652 	0.167
 4.863 	0.343 	-0.221
 5.004 	-0.486 	0.092
 4.336 	-0.381 	0.407
 3.996 	-0.527 	0.489
 4.017 	-0.352 	0.286
 4.627 	0.039 	-0.251
 3.735 	-0.359 	0.421
 4.096 	0.585 	1.206
 4.980 	0.838 	-1.173
 4.472 	0.517 	-0.650
 5.626 	0.913 	-0.738
 4.781 	0.229 	-0.321
 4.119 	0.206 	0.432
 4.221 	0.580 	0.523
 4.521 	0.140 	0.616
 4.557 	-0.246 	0.366
 4.775 	-0.450 	0.278
 5.037 	-0.477 	-0.252
 4.882 	-0.225 	0.479
 4.876 	-0.600 	0.498
 5.251 	-0.969 	-0.530
 5.535 	0.428 	0.280
 5.799 	0.422 	-0.763
 4.539 	-0.144 	0.963
 4.590 	0.872 	-0.604
 4.690 	0.485 	-0.435
 5.104 	0.724 	-0.744
 4.837 	1.001 	-0.508
 4.699 	0.590 	-0.632
 4.689 	0.357 	0.041
 4.928 	0.173 	-0.566
 5.021 	-0.342 	0.277
 5.181 	-0.598 	0.038
 4.902 	-0.031 	-0.093
 5.283 	-0.656 	0.271
 5.344 	-0.534 	-0.197
 4.276 	-0.147 	0.247
 4.047 	0.568 	0.847
 4.802 	0.959 	0.047
 4.619 	0.812 	0.297
 4.973 	0.175 	-0.008
 5.085 	0.308 	-0.149
 4.838 	0.763 	-0.653
 4.639 	0.695 	-0.332
 4.602 	0.651 	0.152
 5.154 	0.203 	-0.585
 5.481 	0.561 	-0.858
 5.436 	-0.113 	0.340
 5.100 	-0.362 	0.388
 4.466 	0.201 	0.439
 5.348 	-0.240 	0.094
 4.860 	0.533 	-0.140
 4.703 	0.411 	-0.003
 4.264 	-0.192 	0.252
 4.304 	-0.066 	0.246
 4.643 	0.105 	0.400
 4.721 	0.352 	0.071
 4.278 	0.216 	0.197
 4.474 	0.283 	0.301
 4.968 	0.900 	-0.443
 5.552 	0.468 	-0.514
 4.952 	0.397 	-0.300
 5.065 	0.249 	0.239
 5.423 	-0.027 	0.091
 5.324 	-0.225 	-0.134
 4.981 	0.240 	0.517
 4.623 	0.157 	0.279
 4.762 	0.657 	0.049
 5.077 	0.472 	-0.341
 5.116 	-0.064 	0.123
 4.836 	-0.393 	0.077
 4.721 	-0.403 	0.064
 4.363 	0.355 	0.128
 4.500 	0.101 	0.232
 4.235 	0.234 	0.939
 4.756 	0.511 	0.052
 4.762 	0.554 	0.082
 5.026 	0.404 	0.845
 5.288 	0.620 	0.217
 5.331 	0.135 	0.187
 5.275 	-0.241 	0.268
 5.061 	0.398 	0.353
 6.274 	-0.399 	0.842
 6.734 	0.486 	0.286
 6.959 	0.888 	0.499
 6.505 	0.470 	0.068
 6.709 	1.417 	0.508
 6.980 	1.311 	0.893
 6.930 	0.799 	-0.042
 7.234 	0.651 	-0.383
 7.979 	1.112 	0.183
 7.161 	1.354 	-0.379
 6.968 	0.351 	-0.301
 7.351 	0.284 	-0.715
 7.033 	0.596 	-0.860
 7.008 	0.442 	-0.694
 6.940 	0.041 	-0.532
 7.072 	0.384 	-0.507
 5.728 	-0.200 	1.380
 5.272 	-0.861 	1.315
 5.777 	1.372 	0.810
 5.548 	1.267 	0.669
 5.654 	0.915 	1.069
 5.939 	0.660 	0.439
 6.237 	0.184 	0.731
 5.922 	-0.382 	0.303
 6.063 	0.107 	0.273
 6.735 	0.847 	0.049
 6.104 	0.250 	-0.301
 6.384 	-0.010 	-0.615
 7.044 	0.357 	-0.349
 6.422 	-0.023 	-0.209
 6.306 	0.523 	-0.003
 6.661 	0.800 	-0.248
 4.942 	0.049 	0.775
 5.332 	-0.190 	0.855
 4.741 	0.300 	0.721
 5.342 	0.584 	1.439
 5.834 	0.465 	0.923
 6.301 	-0.055 	-0.068
 6.648 	0.270 	0.547
 5.871 	-0.218 	0.253
 5.605 	0.442 	0.029
 6.170 	0.422 	-0.661
 5.501 	0.594 	-0.083
 5.483 	-0.572 	0.796
 5.628 	-0.567 	0.186
 6.071 	-0.107 	-0.747
 6.305 	0.925 	-0.454
 6.716 	0.729 	0.039
 5.899 	0.080 	0.894
 5.095 	0.283 	0.999
 5.082 	-0.396 	1.049
 4.555 	-0.412 	0.346
 5.095 	-0.001 	0.230
 4.740 	0.060 	0.804
 4.900 	-0.404 	0.996
 5.058 	-0.475 	0.231
 6.104 	0.015 	-0.542
 6.090 	-0.526 	-0.803
 6.198 	0.656 	-0.648
 5.562 	0.369 	0.225
 5.305 	0.017 	0.203
 5.542 	0.494 	-0.171
 5.171 	1.061 	0.309
 4.558 	1.203 	0.952
 5.557 	-0.274 	0.837
 5.873 	-0.326 	0.969
 5.626 	-0.084 	0.564
 5.126 	-0.191 	0.246
 4.771 	-0.097 	0.844
 4.370 	0.256 	0.666
 4.647 	-0.335 	0.416
 5.467 	-0.207 	0.165
 5.777 	-0.519 	-0.018
 5.545 	0.208 	0.188
 6.514 	0.514 	-1.019
 6.524 	0.776 	-0.488
 6.056 	0.370 	0.043
 5.400 	0.574 	-0.366
 5.459 	1.533 	0.419
 5.210 	1.646 	0.339
 5.707 	-0.285 	0.855
 6.035 	-0.246 	0.175
 6.205 	-0.095 	0.694
 5.590 	-0.384 	0.062
 5.920 	-0.296 	-0.412
 6.004 	-0.329 	-0.057
 6.004 	-0.062 	0.090
 6.061 	0.184 	-0.108
 5.857 	-0.064 	-0.122
 6.110 	-0.029 	-0.547
 6.074 	-0.116 	0.347
 6.452 	1.238 	-0.922
 7.298 	1.210 	-0.535
 6.569 	0.380 	-0.092
 6.445 	1.026 	-0.328
 6.348 	1.053 	-0.159
 6.141 	-0.124 	0.185
 6.347 	-0.129 	-0.260
 6.470 	0.008 	-0.006
 6.232 	-0.213 	-0.136
 5.784 	-0.368 	-0.300
 6.002 	-0.296 	-0.268
 6.038 	-0.351 	-0.240
 6.516 	0.070 	-0.119
 6.437 	0.723 	-0.634
 6.677 	0.856 	-0.566
 5.949 	0.712 	-0.474
 5.997 	0.627 	0.182
 6.342 	1.320 	0.182
 6.360 	0.812 	-0.322
 6.772 	0.100 	-0.428
 7.223 	0.485 	-0.422
 6.060 	0.063 	0.196
 5.917 	-0.247 	-0.021
 6.195 	0.124 	-0.424
 6.002 	0.096 	-0.087
 5.403 	0.060 	0.175
 5.747 	-0.089 	-0.297
 5.558 	-0.254 	0.019
 5.125 	-0.222 	0.169
 5.746 	0.556 	-0.163
 6.278 	1.023 	-0.222
 6.279 	0.421 	-0.312
 5.502 	0.271 	0.291
 5.877 	0.708 	0.115
 6.305 	0.629 	0.195
 6.407 	-0.169 	-0.006
 6.257 	0.070 	-0.015
 5.153 	-0.681 	0.257
 5.381 	-0.374 	-0.120
 5.602 	0.198 	-0.446
 5.195 	-0.037 	-0.086
 5.301 	0.203 	0.186
 5.390 	0.376 	-0.094
 5.387 	0.518 	-0.066
 4.885 	0.080 	-0.153
 5.045 	0.382 	-0.335
 5.155 	0.824 	-0.290
 5.230 	0.315 	-0.307
 5.361 	0.237 	-0.138
 5.688 	0.616 	-0.038
 5.837 	0.431 	-0.342
 5.939 	-0.226 	-0.168
 5.640 	0.361 	0.305
 5.102 	-0.585 	0.554
 4.708 	-0.358 	0.348
 5.032 	0.347 	-0.140
 5.217 	0.189 	-0.250
 5.101 	-0.299 	-0.420
 5.609 	0.157 	-0.107
 5.604 	0.854 	-0.079
 5.682 	0.615 	-0.620
 5.537 	0.731 	-0.575
 5.829 	0.455 	-0.926
 6.425 	0.160 	-0.793
 6.337 	0.077 	-0.482
 5.791 	-0.346 	-0.457
 6.089 	0.034 	-0.741
 6.036 	0.180 	-0.754
 5.653 	0.390 	0.295
 4.433 	-0.281 	0.861
 4.641 	-0.538 	0.197
 5.192 	0.212 	-0.310
 4.860 	-0.022 	0.238
 5.505 	-0.798 	-0.101
 5.126 	-0.165 	-0.507
 5.480 	0.401 	-0.613
 5.496 	0.221 	-0.267
 5.465 	0.651 	-0.439
 4.792 	-0.479 	-0.411
 4.758 	-0.008 	0.166
 5.062 	0.421 	0.129
 4.676 	-0.446 	0.504
 5.281 	0.453 	-0.063
 4.971 	0.717 	-0.021
 5.087 	0.578 	0.417
 5.261 	-0.062 	0.673
 5.120 	-0.316 	0.252
 5.261 	-0.245 	-0.142
 5.754 	-0.279 	-0.222
 5.664 	-0.684 	-0.010
 6.137 	-0.517 	0.103
 5.667 	-0.049 	-0.438
 5.470 	0.146 	-0.538
 5.092 	0.269 	-0.316
 4.752 	0.364 	-0.324
 4.409 	0.399 	0.331
 4.534 	-0.123 	0.392
 4.676 	-0.053 	0.441
 4.726 	0.566 	0.156
 5.284 	0.954 	0.280
 5.792 	1.014 	-0.224
 6.401 	-0.220 	0.735
 5.796 	-0.301 	0.311
 5.893 	-0.700 	0.136
 6.039 	-0.433 	-0.195
 6.048 	-0.439 	-0.354
 5.643 	0.459 	0.736
 6.209 	-0.399 	-0.556
 5.954 	-0.337 	-0.315
 5.860 	0.279 	-0.674
 5.542 	0.299 	-0.622
 6.054 	0.506 	-0.275
 5.715 	0.426 	-0.515
 5.355 	0.711 	-0.373
 4.779 	0.631 	-0.249
 4.773 	0.356 	0.151
 5.005 	0.512 	-0.021
 6.448 	0.017 	0.158
 6.549 	-0.055 	-0.420
 5.622 	-0.386 	0.177
 5.256 	-0.479 	0.378
 5.328 	-0.368 	0.292
 5.448 	0.011 	0.025
 5.611 	-0.324 	-0.261
 5.869 	-0.116 	-0.034
 5.752 	0.198 	-0.550
 5.438 	0.612 	-0.247
 5.631 	0.496 	-0.250
 5.808 	1.129 	-0.743
 5.716 	0.622 	-0.334
 4.932 	0.261 	0.179
 4.873 	-0.091 	0.197
 5.252 	-0.040 	0.147
 6.371 	0.236 	-0.247
 5.693 	0.151 	-0.026
 4.897 	0.285 	0.250
 4.712 	-0.229 	0.565
 4.656 	-0.387 	0.662
 4.903 	-0.180 	0.814
 4.985 	-0.127 	0.582
 4.947 	-0.206 	0.383
 5.049 	0.076 	-0.045
 5.437 	0.388 	-0.428
 5.810 	0.652 	-0.679
 5.642 	0.488 	0.104
 6.155 	1.203 	-0.442
 5.412 	0.428 	0.007
 4.972 	-0.057 	-0.219
 5.407 	-0.065 	0.235
 5.018 	-0.354 	0.496
 4.692 	0.171 	-0.148
 4.847 	0.338 	-0.016
 5.296 	0.008 	-0.087
 5.052 	-0.228 	0.048
 4.657 	-0.206 	0.230
 4.793 	-0.594 	0.535
 4.785 	0.083 	0.657
 4.873 	0.302 	0.147
 5.113 	0.293 	-0.078
 5.587 	0.153 	-0.541
 5.478 	0.813 	0.129
 5.242 	1.106 	0.204
 5.192 	0.906 	-0.182
 5.259 	-0.020 	0.043
 5.646 	0.068 	0.187
 7.725 	0.331 	1.163
 7.639 	0.840 	0.628
 6.817 	0.753 	0.484
 6.764 	1.153 	0.186
 6.049 	0.371 	0.306
 6.377 	0.175 	0.129
 6.861 	1.099 	0.252
 6.936 	1.727 	0.281
 7.380 	1.594 	0.919
 7.438 	1.839 	0.012
 7.467 	2.050 	0.161
 7.392 	0.838 	-0.856
 7.075 	0.597 	-0.523
 7.175 	0.550 	-0.370
 7.207 	0.262 	-0.158
 7.417 	0.471 	-0.770
 5.928 	0.005 	1.510
 5.976 	0.451 	0.763
 6.128 	0.392 	0.534
 5.819 	0.698 	0.261
 5.986 	0.556 	0.488
 6.122 	0.978 	0.959
 6.089 	1.190 	0.921
 6.448 	0.244 	0.583
 7.085 	1.231 	0.701
 6.965 	1.296 	0.544
 6.955 	1.185 	0.126
 7.422 	0.831 	-0.064
 6.931 	0.773 	-0.059
 6.713 	0.308 	-0.301
 6.938 	-0.024 	-0.388
 7.303 	0.686 	-0.709
 5.153 	0.353 	1.119
 4.905 	-0.307 	1.279
 5.060 	0.180 	1.625
 5.832 	0.438 	1.946
 6.503 	0.825 	1.134
 5.870 	1.018 	0.296
 6.742 	0.261 	0.498
 7.272 	-0.001 	-0.156
 6.818 	0.536 	0.103
 6.613 	1.245 	0.213
 6.152 	0.986 	0.204
 5.897 	0.771 	0.356
 6.376 	0.862 	-0.096
 6.491 	0.349 	-0.189
 5.744 	-0.364 	-0.155
 5.702 	0.317 	0.025
 5.847 	-0.056 	1.300
 6.008 	-0.094 	1.071
 5.911 	-0.320 	1.148
 5.791 	-0.407 	0.396
 6.120 	0.698 	0.330
 6.177 	0.895 	0.563
 6.092 	-0.048 	1.240
 7.087 	0.543 	-0.187
 6.957 	1.003 	-0.242
 6.530 	0.953 	0.238
 6.658 	0.810 	-0.359
 6.372 	0.999 	-0.118
 6.752 	0.611 	-0.313
 6.400 	0.555 	0.165
 6.235 	0.743 	-0.166
 5.681 	0.407 	-0.048
 6.995 	-0.082 	0.550
 6.685 	-0.216 	0.859
 6.077 	0.083 	0.946
 5.583 	-0.801 	0.616
 5.127 	0.159 	0.788
 5.567 	-0.128 	1.178
 6.304 	-0.906 	0.178
 6.428 	0.110 	-0.238
 6.076 	0.423 	0.007
 7.068 	0.973 	-0.420
 7.025 	1.607 	-0.922
 7.110 	1.435 	-0.189
 7.059 	0.446 	-0.666
 6.631 	0.651 	0.454
 6.048 	1.228 	0.394
 6.536 	0.891 	-0.383
 7.018 	0.272 	0.765
 6.592 	0.522 	0.596
 6.254 	0.192 	0.760
 6.387 	-0.498 	0.202
 5.913 	-0.265 	0.046
 6.335 	0.010 	0.409
 6.266 	-0.795 	-0.058
 6.186 	-0.493 	0.127
 6.593 	0.576 	-0.258
 6.437 	1.376 	-0.584
 6.877 	0.837 	-0.376
 7.615 	1.130 	-0.779
 7.316 	0.853 	-0.814
 7.114 	1.545 	0.042
 7.250 	0.922 	-0.133
 7.741 	0.709 	-0.469
 6.724 	-0.084 	0.256
 6.563 	0.039 	0.008
 6.383 	-0.056 	0.031
 6.312 	-0.333 	0.291
 5.918 	-0.321 	-0.272
 6.170 	-0.658 	-0.040
 5.968 	-0.872 	-0.229
 6.075 	-0.381 	-0.363
 6.121 	-0.421 	-1.063
 6.727 	0.827 	-0.691
 6.498 	0.999 	-0.588
 6.514 	0.228 	0.237
 7.081 	0.508 	-0.265
 7.075 	1.393 	-0.426
 7.392 	0.751 	-0.096
 7.788 	0.836 	-0.081
 6.269 	-0.325 	0.411
 6.328 	0.014 	0.056
 6.291 	-0.383 	0.046
 5.972 	-0.561 	0.215
 5.940 	-0.684 	0.024
 6.365 	-0.376 	-0.643
 6.123 	-0.585 	-0.300
 5.813 	-0.555 	-0.046
 5.824 	-0.716 	0.272
 6.299 	0.013 	-0.096
 6.463 	0.779 	-0.241
 6.742 	0.119 	0.156
 6.773 	1.125 	0.285
 6.450 	1.136 	-0.091
 6.629 	0.148 	0.480
 6.599 	0.152 	0.346
 6.130 	-0.272 	0.158
 6.029 	-0.046 	-0.008
 6.103 	0.047 	-0.044
 5.635 	-0.546 	0.017
 5.496 	-1.022 	0.114
 6.231 	-0.902 	-0.474
 6.809 	-0.088 	-0.803
 6.798 	-0.013 	-0.810
 6.521 	-0.347 	-0.623
 6.255 	0.307 	0.047
 5.840 	0.470 	0.197
 5.885 	-0.117 	0.173
 6.069 	0.408 	-0.123
 6.610 	1.243 	-0.592
 6.716 	0.716 	-0.295
 5.987 	-0.160 	0.242
 5.267 	-0.192 	0.873
 5.679 	0.235 	0.118
 5.603 	-0.099 	-0.042
 5.722 	-0.589 	-0.192
 6.318 	-0.364 	-0.522
 6.088 	-0.743 	-0.468
 5.955 	-0.164 	0.081
 6.132 	-0.060 	-0.285
 6.503 	-0.087 	-0.579
 6.802 	0.147 	-0.520
 6.456 	0.290 	-0.235
 6.523 	-0.148 	-0.117
 6.231 	0.022 	-0.040
 6.203 	0.571 	0.044
 6.625 	0.763 	-0.119
 5.744 	-0.211 	0.218
 5.328 	0.352 	0.978
 5.362 	0.364 	-0.209
 5.893 	-0.310 	-0.407
 5.489 	-0.739 	-0.015
 5.659 	-0.442 	0.041
 6.029 	-0.174 	-0.270
 5.772 	0.213 	-0.340
 5.683 	-0.049 	-0.216
 5.571 	-0.422 	-0.284
 5.609 	0.006 	-0.235
 5.259 	0.024 	0.131
 5.356 	-0.355 	0.183
 6.190 	0.003 	-0.011
 6.745 	0.704 	-0.292
 6.724 	0.268 	-0.174
 6.087 	0.678 	-0.147
 5.926 	0.240 	0.648
 6.440 	-0.317 	0.497
 6.349 	-0.335 	-0.101
 6.390 	-0.249 	-0.325
 5.759 	-0.412 	0.000
 5.644 	-0.265 	-0.106
 5.840 	0.018 	0.068
 5.726 	-0.263 	-0.516
 5.647 	0.063 	-0.197
 5.575 	-0.096 	-0.424
 5.910 	0.460 	-0.164
 5.557 	0.430 	-0.007
 5.728 	0.173 	-0.372
 4.972 	0.430 	-0.032
 4.839 	0.525 	-0.108
 5.401 	0.841 	-0.063
 6.137 	0.644 	0.848
 6.144 	-0.064 	0.336
 6.557 	-0.188 	-0.123
 6.514 	0.063 	-0.081
 6.074 	-0.619 	0.032
 6.189 	-0.396 	0.045
 6.326 	-0.188 	-0.487
 6.187 	-0.057 	-0.272
 5.911 	-0.106 	-0.492
 5.802 	0.404 	-0.301
 5.672 	0.380 	-0.460
 6.075 	0.034 	-0.721
 5.282 	0.770 	-0.319
 4.997 	0.831 	0.383
 4.574 	0.545 	0.606
 4.891 	0.275 	0.139
 6.356 	0.251 	0.124
 6.049 	-0.193 	0.078
 5.762 	-0.011 	0.130
 5.371 	-0.170 	0.346
 5.317 	-0.734 	0.473
 5.329 	-0.923 	0.254
 6.112 	-0.444 	-0.570
 6.560 	-0.312 	-0.618
 6.378 	-0.032 	-0.062
 6.058 	0.452 	-0.135
 5.878 	0.327 	-0.348
 5.777 	0.776 	-0.971
 5.060 	0.815 	0.179
 4.652 	1.067 	0.739
 4.892 	0.522 	0.320
 5.428 	0.582 	-0.204
 5.131 	-0.513 	0.353
 5.070 	-0.036 	0.250
 5.197 	0.040 	0.295
 5.147 	-0.217 	0.227
 4.939 	-0.207 	0.598
 5.021 	-0.935 	0.398
 5.151 	-0.550 	0.309
 5.300 	-0.682 	0.543
 5.404 	-0.312 	0.025
 5.793 	0.349 	-0.163
 5.628 	0.412 	-0.236
 5.999 	0.510 	-0.032
 5.965 	1.122 	-0.628
 5.861 	0.985 	-0.303
 5.852 	0.748 	-0.400
 5.951 	0.616 	0.094
 4.890 	0.147 	0.426
 4.957 	-0.601 	0.178
 5.021 	-0.397 	0.292
 5.576 	-0.131 	-0.085
 5.595 	-0.177 	-0.007
 5.110 	-0.051 	0.226
 5.095 	-0.087 	0.695
 5.039 	-0.509 	0.586
 4.875 	-0.401 	0.141
 5.386 	-0.082 	-0.123
 5.654 	-0.064 	-0.327
 5.871 	0.349 	-0.019
 5.983 	0.646 	-0.003
 6.133 	1.216 	-0.186
 5.999 	0.869 	-0.017
 5.954 	0.731 	0.281
 7.132 	-0.003 	0.998
 7.185 	0.524 	1.075
 7.243 	0.780 	0.919
 7.406 	0.959 	0.463
 7.360 	1.249 	0.521
 6.826 	0.952 	0.724
 7.198 	1.040 	0.599
 7.612 	1.143 	0.285
 7.663 	1.896 	0.872
 8.192 	1.626 	0.467
 8.034 	1.357 	-0.470
 8.540 	1.388 	-0.336
 7.885 	0.769 	-0.139
 7.890 	0.228 	-0.338
 8.156 	0.315 	-0.496
 7.947 	0.661 	-0.222
 7.784 	1.016 	1.653
 6.229 	-0.597 	1.878
 5.902 	0.706 	1.385
 6.506 	0.745 	1.092
 6.749 	1.011 	0.715
 6.553 	1.188 	0.700
 6.931 	0.667 	0.426
 6.981 	0.692 	0.594
 7.599 	0.950 	1.062
 7.302 	1.967 	0.911
 7.203 	1.601 	0.342
 7.257 	1.003 	0.382
 7.476 	0.502 	-0.288
 7.681 	0.596 	-0.372
 7.571 	0.225 	-0.482
 7.625 	0.644 	-0.268
 5.788 	0.905 	1.568
 5.030 	-0.289 	1.763
 5.173 	-0.281 	1.731
 5.893 	0.110 	1.038
 6.710 	0.340 	0.657
 7.300 	0.258 	-0.243
 7.535 	0.672 	-0.290
 7.653 	0.555 	0.227
 7.522 	1.478 	0.252
 6.926 	2.063 	0.304
 6.894 	1.358 	0.243
 6.988 	0.883 	0.323
 6.976 	0.876 	-0.099
 7.214 	0.477 	-0.368
 7.276 	0.539 	-0.160
 7.354 	0.603 	-0.178
 5.576 	0.626 	1.347
 5.597 	0.353 	0.651
 5.749 	0.110 	0.721
 5.933 	0.090 	0.697
 6.073 	-0.505 	0.671
 6.498 	-0.106 	0.882
 7.713 	0.724 	0.768
 7.650 	0.481 	0.484
 7.347 	1.550 	0.091
 7.521 	1.911 	-0.127
 7.492 	1.160 	-0.550
 7.313 	1.200 	0.173
 6.850 	0.822 	-0.158
 7.276 	0.366 	-0.102
 7.570 	0.346 	-0.265
 7.484 	0.608 	-0.212
 6.449 	0.007 	1.362
 6.425 	-0.388 	0.470
 6.388 	0.037 	1.152
 6.398 	0.378 	0.760
 6.397 	-0.492 	0.543
 6.331 	-0.178 	1.003
 6.608 	-0.574 	0.737
 6.827 	0.202 	0.537
 6.785 	0.903 	0.111
 7.272 	1.135 	-0.357
 7.438 	1.043 	-0.712
 7.455 	1.097 	-0.128
 7.852 	0.882 	-0.523
 7.738 	0.525 	-0.337
 7.857 	0.519 	-0.235
 7.453 	0.620 	-0.191
 6.253 	-0.603 	0.447