# vtk DataFile Version 3.0
HighT1
ASCII
DATASET STRUCTURED_POINTS
DIMENSIONS 16 16 19
ORIGIN 929.001000000000 929.001000000000 5.001000000000
SPACING 10.000000000000 10.000000000000 10.000000000000
POINT_DATA 4864
 FIELD attributes 1
U 3 4864 float
2.960 	-0.873 	0.044
 3.113 	-0.694 	0.122
 3.187 	-0.664 	0.214
 3.248 	-0.604 	0.068
 3.530 	-0.694 	0.008
 3.768 	-0.392 	-0.047
 3.589 	0.028 	-0.051
 3.589 	0.019 	0.015
 3.602 	-0.095 	0.145
 3.562 	0.017 	0.225
 3.381 	-0.286 	0.175
 3.363 	0.076 	-0.110
 4.044 	0.313 	-0.412
 4.737 	0.256 	-0.610
 5.348 	0.057 	-0.458
 5.365 	-0.163 	-0.057
 3.223 	-0.740 	0.000
 2.975 	-0.466 	-0.180
 2.932 	-0.245 	-0.195
 2.708 	-0.154 	-0.089
 2.808 	-0.309 	-0.067
 3.045 	-0.375 	0.001
 3.495 	-0.516 	0.018
 3.866 	-0.368 	0.082
 3.985 	-0.120 	0.086
 3.996 	-0.161 	0.027
 3.811 	-0.348 	0.036
 3.877 	-0.312 	0.085
 4.581 	0.257 	0.078
 4.749 	0.780 	-0.181
 4.876 	0.675 	-0.495
 5.224 	0.593 	-0.178
 4.711 	-0.314 	-0.038
 3.816 	-0.076 	0.217
 3.385 	-0.167 	0.344
 3.278 	-0.625 	0.330
 3.545 	-0.742 	0.210
 4.031 	-0.834 	-0.032
 4.448 	-1.280 	-0.104
 4.430 	-0.815 	0.060
 3.958 	-0.433 	0.153
 3.166 	0.064 	0.312
 3.158 	-0.317 	0.261
 3.631 	-0.780 	-0.127
 3.828 	-0.937 	-0.156
 4.365 	0.058 	0.397
 4.762 	1.245 	0.173
 4.736 	1.279 	-0.125
 4.891 	0.309 	-0.063
 5.195 	-0.251 	-0.041
 5.383 	-0.747 	-0.145
 5.160 	-0.793 	-0.057
 4.556 	-0.607 	0.139
 4.285 	-0.835 	0.024
 4.445 	-1.001 	0.021
 4.054 	-0.956 	0.249
 4.406 	-0.467 	-0.021
 4.537 	-0.359 	0.122
 4.801 	-0.746 	0.137
 4.329 	-0.466 	0.104
 4.512 	-0.922 	-0.046
 4.958 	-0.206 	-0.108
 4.149 	0.922 	0.318
 4.114 	0.850 	-0.165
 4.900 	0.034 	-0.098
 4.899 	-0.152 	-0.148
 4.860 	-0.106 	-0.230
 4.665 	-0.110 	-0.044
 4.227 	-0.367 	-0.063
 4.061 	-0.635 	-0.017
 3.879 	-0.835 	0.165
 3.367 	-1.303 	0.295
 3.164 	-1.435 	0.471
 3.378 	-1.908 	0.362
 3.793 	-2.058 	-0.099
 5.211 	-1.458 	-0.108
 6.200 	-1.096 	-0.438
 5.863 	0.569 	-0.204
 4.307 	0.901 	0.344
 3.650 	1.129 	0.233
 4.200 	0.343 	0.145
 3.952 	0.240 	0.103
 3.926 	0.264 	0.039
 4.043 	0.218 	-0.068
 4.082 	0.043 	-0.096
 4.050 	-0.762 	-0.080
 4.143 	-0.587 	0.106
 3.616 	-0.724 	0.185
 4.050 	-1.684 	0.202
 4.378 	-2.393 	0.180
 5.347 	-1.638 	-0.352
 5.257 	-1.348 	-0.224
 4.578 	-0.432 	0.162
 3.582 	1.008 	0.356
 3.169 	1.083 	0.246
 3.703 	0.071 	-0.125
 3.869 	-0.135 	0.271
 4.023 	-0.298 	0.145
 4.268 	-0.349 	0.040
 4.486 	-0.100 	0.074
 4.722 	0.327 	-0.054
 5.438 	0.040 	-0.746
 4.171 	0.038 	0.166
 4.060 	-0.696 	0.070
 4.812 	-1.107 	-0.788
 5.140 	-1.468 	-0.559
 4.899 	-1.164 	0.404
 6.098 	0.895 	-0.766
 4.925 	0.752 	-0.348
 4.559 	0.978 	0.167
 3.443 	0.384 	0.000
 3.043 	-0.002 	0.129
 4.623 	-0.302 	-0.054
 4.581 	-0.688 	-0.000
 4.729 	-0.793 	-0.199
 4.898 	-0.674 	-0.113
 5.439 	-0.077 	-0.316
 5.659 	0.223 	-0.375
 5.238 	0.912 	0.059
 4.634 	-0.596 	-0.337
 5.087 	-0.695 	-0.987
 4.905 	-0.610 	0.010
 4.313 	-0.888 	0.263
 3.764 	0.423 	0.475
 4.063 	1.482 	0.057
 4.169 	0.537 	0.144
 3.609 	1.076 	0.100
 2.727 	0.393 	0.281
 4.309 	-0.131 	-0.009
 4.093 	-0.442 	-0.086
 4.301 	-0.488 	-0.206
 4.464 	-0.269 	-0.094
 4.807 	-0.084 	-0.098
 5.046 	1.064 	-0.136
 5.445 	1.207 	-0.223
 5.284 	0.386 	-0.421
 4.918 	-0.258 	-0.361
 4.839 	0.153 	-0.332
 4.628 	-0.654 	0.576
 3.845 	-0.208 	0.059
 3.920 	0.988 	0.008
 3.717 	1.295 	0.102
 2.802 	1.330 	0.267
 2.614 	0.104 	0.201
 4.749 	-0.006 	0.082
 4.437 	-0.205 	-0.002
 4.230 	-0.391 	-0.018
 4.207 	-0.386 	0.033
 4.517 	-0.022 	0.013
 5.046 	0.599 	-0.046
 5.260 	0.589 	0.140
 5.177 	0.857 	-0.005
 5.338 	0.466 	-0.247
 5.918 	0.423 	-0.376
 5.961 	0.570 	0.147
 3.593 	0.159 	0.326
 2.964 	0.617 	0.117
 3.127 	1.160 	0.109
 3.412 	0.732 	0.184
 3.052 	0.090 	0.218
 4.456 	-0.321 	0.117
 4.275 	0.004 	0.101
 4.530 	0.067 	-0.126
 5.137 	-0.311 	-0.114
 5.044 	-0.432 	0.037
 4.588 	0.169 	-0.026
 4.907 	0.438 	-0.292
 5.049 	0.836 	0.063
 6.014 	0.439 	-0.535
 5.756 	0.843 	-0.103
 5.883 	1.432 	-0.366
 5.164 	0.711 	0.229
 3.953 	0.976 	0.229
 2.824 	0.748 	0.502
 2.985 	-0.534 	0.363
 3.577 	-0.848 	-0.091
 2.623 	-1.505 	0.294
 3.741 	-0.704 	-0.594
 4.567 	-0.233 	-0.748
 5.302 	0.181 	-0.314
 5.189 	0.468 	-0.102
 4.431 	0.362 	-0.021
 4.675 	0.728 	-0.185
 4.691 	1.071 	0.120
 4.558 	1.243 	0.345
 4.697 	1.670 	0.162
 5.108 	1.763 	-0.113
 5.420 	1.608 	0.202
 5.398 	0.957 	0.275
 4.408 	0.201 	0.426
 4.586 	-0.893 	-0.324
 4.885 	-0.746 	-0.450
 2.609 	-1.281 	-0.338
 2.957 	-1.147 	0.113
 3.741 	0.134 	0.085
 4.172 	0.527 	0.153
 4.242 	0.174 	0.117
 4.144 	0.728 	0.144
 3.729 	0.965 	0.292
 3.418 	1.244 	0.442
 3.311 	0.788 	0.076
 4.007 	0.578 	-0.084
 4.453 	0.392 	0.116
 5.064 	1.025 	0.116
 4.934 	0.759 	0.127
 5.400 	0.153 	-0.456
 5.131 	0.337 	-0.785
 3.730 	0.179 	-0.171
 3.586 	-0.207 	-0.356
 3.337 	-0.993 	0.075
 3.084 	-0.756 	0.025
 3.185 	-0.028 	0.115
 2.964 	0.424 	0.332
 2.699 	0.406 	0.436
 3.231 	0.547 	0.191
 3.111 	0.874 	0.265
 3.689 	0.362 	-0.172
 3.930 	0.558 	-0.228
 3.939 	0.029 	0.101
 3.669 	-0.048 	0.258
 3.705 	0.221 	0.217
 3.922 	0.560 	0.142
 4.764 	1.440 	-0.237
 5.577 	1.942 	-0.532
 3.541 	-0.249 	0.024
 3.487 	-0.377 	0.017
 3.362 	-0.790 	-0.080
 3.799 	-0.229 	-0.172
 4.344 	0.389 	0.107
 4.056 	-0.332 	-0.173
 4.089 	-0.360 	0.020
 4.285 	0.164 	-0.152
 4.258 	0.468 	0.043
 3.847 	0.666 	0.167
 3.554 	0.316 	0.522
 3.514 	-0.130 	0.178
 3.464 	0.215 	0.220
 2.872 	0.627 	0.276
 2.212 	1.155 	0.466
 2.543 	1.709 	0.285
 4.122 	-0.344 	-0.164
 4.644 	-0.103 	-0.499
 5.008 	-0.078 	-0.287
 5.703 	-0.269 	-0.303
 3.865 	0.449 	0.422
 3.464 	0.557 	-0.512
 2.809 	0.065 	0.213
 2.112 	0.206 	0.332
 2.406 	0.256 	-0.080
 3.280 	0.354 	-0.034
 3.928 	-0.141 	-0.058
 3.655 	-0.277 	0.113
 2.900 	-0.344 	0.231
 2.921 	0.145 	0.096
 3.277 	0.273 	-0.060
 3.667 	0.336 	-0.164
 4.554 	0.713 	0.024
 4.046 	0.797 	0.179
 3.684 	0.729 	-0.061
 4.135 	0.512 	-0.304
 4.398 	0.376 	-0.384
 4.711 	-0.003 	-0.312
 5.161 	-0.584 	0.031
 5.359 	-0.621 	0.042
 4.625 	0.166 	0.361
 4.391 	0.166 	0.443
 4.783 	-0.114 	0.108
 4.944 	-0.447 	-0.471
 5.186 	-0.225 	-0.730
 5.189 	0.030 	-0.231
 5.397 	0.164 	-0.246
 5.155 	0.262 	-0.097
 4.815 	0.525 	0.058
 4.215 	0.662 	-0.002
 3.850 	0.762 	-0.144
 3.869 	0.476 	-0.098
 4.027 	0.013 	-0.031
 3.997 	-0.215 	0.229
 4.214 	-0.341 	0.486
 4.726 	-0.528 	0.494
 4.919 	-0.167 	0.213
 5.307 	0.165 	0.037
 5.217 	0.022 	-0.094
 4.707 	-0.098 	0.244
 4.823 	-0.598 	0.025
 5.813 	-0.853 	-0.357
 5.494 	-0.725 	-0.513
 5.958 	-0.226 	-0.436
 4.073 	1.040 	0.169
 3.716 	0.774 	0.615
 3.956 	0.727 	0.703
 4.471 	0.428 	0.624
 5.756 	-0.276 	0.040
 5.765 	-0.271 	-0.097
 4.933 	-0.554 	0.415
 4.604 	-1.222 	1.100
 4.742 	-0.476 	0.581
 4.744 	0.132 	0.113
 5.012 	0.396 	-0.034
 5.303 	-0.262 	-0.470
 5.348 	-0.751 	-0.295
 6.070 	-1.156 	0.215
 6.502 	-1.027 	-0.274
 6.326 	-0.580 	-0.449
 5.448 	0.720 	0.011
 5.842 	0.327 	-0.055
 5.990 	-0.099 	-0.046
 6.300 	-0.327 	-0.056
 6.595 	-0.681 	0.250
 6.156 	-0.774 	-0.542
 6.348 	-0.366 	0.179
 6.827 	-0.421 	0.184
 5.223 	-0.516 	1.131
 4.919 	-0.151 	0.905
 5.050 	-0.223 	0.591
 5.667 	-0.441 	0.077
 6.387 	-0.997 	-0.326
 6.994 	-1.150 	0.091
 7.000 	-1.035 	0.152
 6.435 	-0.678 	-0.821
 6.038 	0.568 	-0.232
 6.399 	0.091 	-0.239
 6.521 	-0.471 	-0.228
 6.488 	-0.730 	-0.145
 6.337 	-0.611 	-0.217
 6.221 	-0.083 	-0.398
 6.489 	-0.505 	-0.144
 6.945 	-0.075 	0.073
 6.323 	0.507 	0.464
 5.625 	0.545 	-0.002
 5.627 	0.098 	-0.376
 6.375 	-0.422 	-0.768
 6.536 	-2.314 	-0.094
 6.421 	-1.004 	-0.279
 6.174 	-0.065 	0.419
 6.010 	-0.414 	-0.249
 6.347 	0.298 	0.075
 6.539 	0.067 	-0.124
 6.740 	-0.472 	-0.178
 6.903 	-1.065 	-0.250
 6.455 	-0.375 	-0.239
 6.393 	-0.193 	-0.534
 6.707 	-0.161 	-0.403
 6.938 	-0.068 	-0.264
 6.957 	0.710 	-0.193
 7.155 	0.483 	-0.511
 6.871 	-0.408 	-0.531
 6.829 	-0.613 	-0.579
 6.147 	-1.459 	0.263
 4.957 	-0.283 	0.468
 5.111 	0.343 	0.335
 5.411 	0.299 	-0.282
 5.502 	0.505 	0.321
 6.209 	0.543 	-0.229
 7.133 	-0.430 	-0.650
 7.272 	-0.721 	0.038
 6.508 	-0.217 	-0.237
 6.416 	-0.513 	-0.498
 6.713 	-0.141 	-0.608
 7.087 	-0.082 	-0.874
 7.206 	0.107 	-0.603
 6.739 	-0.276 	-0.220
 7.363 	-0.798 	-0.580
 7.835 	-0.386 	-0.285
 6.619 	0.599 	0.131
 5.100 	0.245 	0.680
 4.864 	-0.070 	0.769
 5.300 	0.630 	0.231
 6.527 	0.698 	-0.443
 6.412 	0.625 	-0.757
 6.376 	-0.429 	-0.110
 6.514 	0.054 	-0.078
 6.553 	-0.269 	-0.371
 6.820 	-0.469 	-0.647
 6.600 	0.075 	0.112
 6.915 	0.322 	-1.273
 6.378 	0.378 	-0.317
 5.182 	0.048 	-0.111
 4.534 	-0.813 	0.416
 4.836 	-0.754 	0.239
 4.808 	0.569 	0.170
 5.464 	0.578 	0.094
 4.097 	0.572 	1.285
 2.944 	0.752 	1.153
 6.807 	0.525 	-0.287
 7.847 	0.364 	-0.257
 6.434 	0.087 	0.152
 6.174 	-0.464 	0.064
 6.522 	-0.218 	-0.449
 6.461 	-0.273 	-0.017
 5.866 	0.547 	-0.048
 5.425 	0.174 	-0.369
 5.807 	0.531 	0.081
 5.759 	0.200 	-0.554
 4.596 	-0.187 	0.796
 3.071 	-0.250 	0.908
 3.608 	0.201 	0.089
 3.834 	0.533 	-0.043
 2.975 	1.150 	0.772
 3.218 	0.393 	0.270
 7.083 	0.157 	0.200
 7.485 	0.162 	-0.169
 6.932 	0.757 	-0.185
 6.267 	0.079 	-0.047
 6.269 	-0.407 	0.011
 6.530 	0.462 	-0.200
 6.431 	0.428 	0.319
 6.962 	0.492 	-0.508
 6.348 	0.155 	-0.449
 5.926 	0.402 	-0.502
 5.717 	0.591 	0.846
 4.340 	-0.174 	0.856
 4.115 	0.290 	0.099
 3.940 	1.139 	0.334
 4.043 	1.063 	0.623
 4.429 	0.089 	0.640
 6.632 	0.533 	0.487
 7.120 	0.653 	-0.222
 7.036 	1.030 	-0.088
 6.459 	0.104 	-0.054
 6.338 	-0.005 	-0.138
 5.983 	-0.051 	-0.066
 6.484 	0.249 	-0.211
 6.785 	0.328 	-0.011
 6.493 	-0.007 	-0.002
 6.389 	0.803 	-0.113
 6.030 	1.086 	-0.046
 5.085 	0.736 	0.321
 4.161 	1.151 	0.753
 4.631 	1.647 	0.456
 5.130 	1.521 	0.051
 5.334 	0.221 	-0.577
 6.644 	1.436 	-0.111
 6.504 	0.756 	-0.514
 5.482 	0.150 	-0.359
 5.128 	-0.164 	-0.600
 5.136 	0.074 	-0.132
 5.124 	0.220 	-0.091
 4.399 	-0.240 	-0.178
 4.039 	-0.336 	-0.230
 4.332 	-0.003 	0.091
 4.187 	-0.018 	0.317
 5.269 	0.935 	-0.234
 6.040 	1.713 	-0.352
 4.980 	1.297 	0.592
 5.328 	1.255 	0.768
 6.132 	1.440 	-0.633
 6.700 	0.463 	-1.080
 6.265 	1.022 	-0.408
 4.770 	0.265 	0.176
 3.978 	-0.098 	0.032
 4.205 	-0.125 	-0.069
 4.248 	-0.149 	0.226
 3.802 	-0.084 	0.316
 3.661 	0.188 	0.501
 4.226 	-0.840 	0.011
 4.119 	-0.316 	0.205
 4.530 	-0.286 	0.320
 4.810 	-0.345 	0.793
 5.208 	0.487 	0.963
 5.789 	0.888 	0.864
 6.404 	1.337 	-0.733
 6.970 	0.687 	-1.109
 7.170 	0.504 	-1.011
 5.290 	0.904 	-0.196
 4.218 	0.760 	0.217
 4.524 	0.097 	-0.268
 5.126 	-1.112 	0.162
 4.177 	0.332 	0.579
 3.251 	0.569 	0.931
 4.775 	0.050 	0.164
 5.895 	-0.689 	-0.268
 5.224 	-1.091 	0.049
 4.672 	-0.667 	-0.210
 4.998 	0.017 	-0.291
 5.677 	0.151 	-0.162
 6.230 	0.495 	-0.383
 6.840 	0.556 	-0.380
 6.847 	0.400 	-0.736
 6.607 	0.434 	-0.795
 5.261 	0.834 	0.199
 5.494 	0.153 	-0.109
 5.913 	-0.232 	-0.325
 6.137 	0.365 	-0.323
 5.100 	0.905 	0.632
 5.448 	0.031 	-0.057
 5.583 	0.324 	0.173
 6.018 	-0.284 	0.385
 4.556 	-0.561 	-0.189
 3.259 	-0.339 	0.795
 3.317 	-0.278 	0.765
 4.131 	0.054 	0.817
 4.835 	0.376 	0.498
 5.203 	0.380 	0.277
 5.662 	0.335 	0.027
 6.205 	0.572 	-0.418
 6.347 	1.249 	-0.288
 5.649 	0.443 	-0.149
 5.210 	-0.327 	-0.479
 5.334 	0.207 	0.157
 5.856 	0.370 	0.158
 5.728 	0.292 	-0.306
 5.747 	0.168 	0.087
 6.255 	0.319 	-0.092
 4.994 	0.962 	-0.087
 4.832 	-0.150 	-0.298
 4.938 	-0.352 	0.326
 4.510 	-0.307 	0.383
 4.638 	-0.149 	0.394
 4.805 	0.564 	0.396
 5.399 	0.733 	-0.018
 5.842 	0.595 	-0.206
 5.416 	1.028 	0.753
 5.226 	0.788 	0.265
 5.247 	0.739 	-0.172
 5.614 	1.108 	-0.138
 5.968 	0.945 	-0.262
 5.741 	0.661 	-0.267
 5.559 	0.663 	-0.234
 5.083 	0.479 	0.220
 4.789 	0.288 	1.017
 4.896 	0.346 	0.788
 5.782 	-0.306 	0.072
 6.013 	-0.091 	-0.140
 6.077 	0.387 	-0.504
 5.367 	0.013 	0.106
 5.339 	-0.266 	0.463
 5.563 	0.364 	0.304
 5.761 	1.351 	0.089
 5.989 	0.828 	-0.104
 5.196 	0.553 	-0.033
 4.564 	0.495 	0.005
 4.303 	0.286 	0.347
 4.945 	0.112 	0.623
 5.683 	0.339 	0.452
 6.118 	0.525 	0.286
 6.086 	0.470 	0.068
 6.002 	0.184 	-0.213
 5.674 	-0.365 	0.116
 5.402 	-0.345 	0.306
 5.870 	0.361 	-0.351
 5.908 	0.215 	-0.193
 5.552 	-0.242 	0.241
 5.762 	0.390 	0.106
 4.826 	1.160 	0.294
 4.539 	0.959 	0.534
 4.965 	0.571 	0.407
 5.310 	0.620 	0.230
 5.302 	-0.291 	-0.170
 4.945 	-0.403 	0.171
 5.032 	0.108 	0.788
 4.997 	0.226 	0.958
 5.622 	0.154 	0.652
 6.278 	0.286 	0.037
 6.116 	0.325 	-0.084
 5.464 	0.126 	-0.102
 5.677 	-0.370 	-0.240
 6.465 	-0.981 	-0.199
 6.967 	-1.098 	0.101
 6.311 	-0.494 	0.377
 5.372 	1.092 	-0.010
 5.792 	0.684 	0.100
 6.056 	0.311 	0.168
 6.201 	0.161 	0.087
 5.753 	0.146 	0.056
 5.276 	-0.099 	-0.479
 5.111 	0.171 	0.176
 5.057 	0.322 	0.324
 5.308 	0.285 	0.724
 5.369 	0.353 	0.384
 5.407 	0.386 	0.084
 5.701 	-0.156 	-0.418
 5.975 	-1.229 	-0.410
 6.641 	-1.301 	-0.376
 7.006 	-0.815 	-0.521
 6.572 	-0.617 	-0.640
 6.456 	0.739 	-0.316
 6.685 	0.722 	-0.551
 6.693 	0.596 	-0.460
 6.678 	0.298 	-0.241
 6.538 	-0.032 	-0.030
 6.290 	-0.527 	-0.149
 6.189 	0.021 	-0.315
 6.249 	0.305 	0.105
 6.496 	0.359 	0.230
 6.219 	0.710 	0.060
 6.370 	-0.007 	-0.654
 6.803 	-0.406 	-0.658
 6.831 	-1.893 	-0.087
 6.795 	-1.394 	0.367
 6.815 	-0.319 	0.014
 6.627 	-0.571 	-0.338
 6.397 	0.842 	-0.118
 6.586 	0.721 	-0.583
 6.799 	0.524 	-0.547
 6.940 	0.170 	-0.199
 6.895 	-0.061 	0.010
 6.804 	-0.633 	-0.048
 6.682 	-0.529 	-0.452
 6.662 	0.156 	-0.335
 6.996 	0.297 	0.115
 7.430 	0.259 	-0.090
 7.913 	-0.299 	-0.539
 7.483 	-0.697 	-0.266
 6.742 	-1.215 	-0.156
 5.743 	-1.352 	0.912
 5.959 	-0.520 	0.143
 5.999 	-0.363 	-0.333
 6.781 	0.984 	-0.389
 6.926 	0.611 	-0.564
 6.608 	0.696 	-0.420
 6.778 	0.219 	0.004
 6.787 	-0.147 	0.062
 6.876 	-0.765 	-0.579
 7.016 	-0.836 	-0.536
 7.024 	-0.186 	-0.733
 7.140 	0.129 	-0.502
 7.342 	-0.096 	-0.428
 6.926 	-0.416 	-0.247
 7.649 	-0.903 	-0.556
 6.899 	-0.189 	-0.245
 5.463 	-0.511 	1.557
 4.752 	-0.485 	0.421
 4.433 	-0.241 	-0.252
 6.715 	0.954 	-0.018
 6.593 	0.570 	-0.094
 6.666 	0.195 	-0.254
 6.786 	-0.033 	-0.242
 6.958 	-0.311 	-0.772
 6.887 	-0.865 	-0.744
 6.986 	-0.558 	-0.420
 6.746 	-0.055 	-0.760
 6.462 	0.101 	-0.399
 6.002 	0.381 	0.083
 5.008 	-0.291 	0.819
 3.979 	-0.926 	0.379
 3.925 	-0.454 	0.864
 4.064 	0.090 	1.073
 3.338 	0.052 	0.583
 3.124 	0.351 	0.787
 6.582 	0.027 	-0.254
 6.713 	0.069 	0.194
 6.798 	0.363 	0.482
 6.896 	0.171 	-0.123
 6.823 	-0.552 	-0.564
 6.729 	-0.654 	-0.287
 7.060 	-0.390 	-0.307
 6.819 	0.205 	-0.142
 6.533 	0.720 	0.217
 6.308 	0.571 	-0.040
 6.242 	0.368 	0.241
 5.493 	0.219 	0.918
 5.402 	-0.540 	-0.365
 3.340 	0.638 	1.432
 2.958 	0.790 	1.150
 3.757 	0.499 	0.301
 6.558 	-0.057 	-0.294
 6.646 	0.094 	-0.523
 6.591 	0.270 	-0.451
 6.455 	0.068 	-0.171
 6.273 	-0.367 	-0.156
 6.351 	-0.335 	0.002
 6.807 	-0.068 	-0.066
 6.730 	0.435 	-0.106
 6.675 	0.860 	-0.171
 6.455 	0.392 	-0.103
 6.219 	1.438 	0.403
 6.501 	0.939 	-0.268
 6.312 	0.127 	-0.535
 4.076 	0.989 	1.054
 4.490 	0.467 	0.583
 4.912 	0.228 	0.244
 6.528 	-0.206 	-0.501
 6.393 	0.642 	-0.421
 5.964 	0.499 	0.151
 5.953 	-0.009 	0.234
 5.958 	-0.204 	-0.005
 5.906 	-0.360 	-0.209
 6.027 	-0.494 	0.083
 6.185 	-0.293 	0.252
 6.288 	-0.169 	0.440
 7.103 	0.541 	0.278
 6.787 	0.891 	0.167
 6.337 	0.692 	0.173
 6.411 	0.713 	0.094
 6.710 	1.194 	0.106
 7.197 	0.548 	-0.447
 7.116 	0.269 	-0.371
 6.206 	0.212 	-0.345
 5.945 	0.889 	0.168
 5.588 	0.455 	0.950
 5.481 	0.004 	0.610
 4.467 	-0.383 	0.276
 4.300 	-0.310 	0.344
 4.499 	-0.595 	0.240
 4.093 	-1.037 	0.241
 5.069 	-0.847 	0.311
 5.718 	-0.058 	0.039
 6.011 	0.338 	-0.079
 6.097 	0.486 	0.109
 6.476 	0.632 	0.577
 6.685 	0.773 	0.098
 6.842 	0.652 	-0.489
 7.007 	-0.160 	-0.662
 6.306 	0.731 	-0.245
 6.014 	1.093 	1.270
 5.391 	0.377 	0.388
 5.059 	-0.436 	0.215
 5.065 	-0.041 	0.227
 5.282 	-0.188 	-0.148
 5.212 	-0.501 	-0.117
 4.836 	-0.642 	-0.110
 4.529 	-1.064 	0.720
 4.767 	-0.226 	1.192
 5.216 	0.322 	0.986
 5.630 	0.651 	0.638
 6.228 	-0.378 	0.324
 6.777 	-0.554 	-0.225
 7.154 	0.185 	-0.309
 6.647 	-0.355 	-0.393
 5.857 	0.004 	-0.055
 6.698 	1.769 	0.769
 5.684 	0.331 	-0.066
 4.806 	0.393 	0.124
 5.174 	-0.095 	0.889
 6.077 	-0.391 	0.058
 6.176 	-0.475 	-0.166
 5.446 	-0.529 	-0.292
 5.139 	-0.740 	0.171
 5.197 	-0.819 	0.327
 5.208 	-1.026 	0.321
 5.965 	-1.051 	0.318
 6.627 	-0.931 	-0.017
 6.900 	-0.859 	-0.497
 6.930 	-0.669 	-0.595
 6.774 	-0.257 	-0.280
 6.699 	0.407 	-0.041
 6.817 	0.789 	-0.135
 7.117 	0.138 	-0.268
 6.987 	0.326 	0.034
 6.704 	0.462 	0.159
 6.550 	0.034 	0.107
 6.183 	0.025 	-0.244
 5.518 	-0.083 	-0.451
 5.356 	-0.212 	0.259
 5.245 	-0.631 	0.271
 5.286 	-1.191 	0.173
 5.872 	-1.394 	0.446
 6.465 	-1.160 	-0.063
 6.405 	-0.655 	-0.192
 6.586 	-0.114 	-0.567
 6.561 	-0.192 	-0.389
 6.612 	0.601 	-0.257
 6.757 	0.665 	0.076
 6.221 	0.161 	0.026
 5.933 	-0.316 	0.127
 6.040 	0.198 	0.113
 6.015 	0.289 	0.004
 5.895 	0.277 	-0.264
 5.728 	0.318 	-0.285
 5.975 	0.329 	0.047
 6.658 	-0.078 	-0.444
 6.783 	-0.537 	-0.528
 6.618 	-0.456 	-0.234
 6.581 	-0.598 	0.497
 6.434 	-0.448 	0.090
 5.761 	0.061 	-0.115
 5.580 	-0.107 	-0.460
 5.808 	1.280 	0.753
 5.323 	1.010 	0.567
 5.328 	1.410 	0.383
 5.532 	1.040 	0.131
 5.492 	0.761 	-0.039
 5.601 	0.750 	-0.159
 5.735 	0.411 	-0.213
 5.950 	0.142 	-0.094
 6.338 	0.340 	0.421
 6.247 	0.524 	0.438
 6.481 	0.646 	0.151
 6.442 	0.679 	0.010
 6.276 	0.308 	-0.278
 6.550 	0.301 	-0.347
 6.492 	-0.155 	0.467
 6.606 	0.319 	-0.139
 5.558 	0.945 	0.024
 5.527 	0.889 	0.229
 5.310 	0.972 	0.336
 4.991 	0.616 	0.382
 4.733 	0.347 	0.632
 5.052 	0.041 	0.998
 5.526 	0.369 	1.224
 5.564 	0.002 	0.657
 6.055 	0.129 	0.135
 6.321 	0.339 	0.076
 6.228 	0.265 	0.109
 6.388 	-0.105 	0.101
 6.596 	0.118 	0.093
 6.400 	0.392 	-0.266
 6.384 	0.245 	0.326
 6.261 	0.260 	0.901
 5.226 	0.626 	0.352
 5.360 	0.830 	0.524
 5.610 	0.672 	0.380
 5.568 	0.655 	0.369
 5.509 	0.528 	0.019
 5.902 	-0.545 	0.106
 6.013 	-0.542 	0.637
 6.256 	-0.257 	0.865
 6.534 	-0.171 	0.567
 6.585 	0.236 	0.019
 6.075 	0.322 	0.069
 5.879 	-0.137 	0.083
 5.939 	-0.185 	0.207
 5.904 	0.618 	-0.021
 5.673 	0.500 	0.047
 5.866 	0.044 	0.691
 6.733 	0.633 	0.057
 6.163 	0.827 	0.099
 6.175 	0.723 	-0.024
 6.285 	0.665 	-0.153
 6.565 	0.027 	-0.156
 6.664 	-0.663 	0.043
 6.694 	-0.379 	0.014
 6.679 	-0.103 	0.446
 6.280 	0.092 	0.569
 5.517 	0.619 	0.435
 5.610 	0.484 	0.060
 5.712 	-0.373 	-0.308
 5.800 	-0.853 	0.146
 6.501 	-0.560 	0.089
 6.593 	-0.063 	-0.246
 6.350 	-0.081 	-0.258
 6.982 	0.482 	-0.280
 7.298 	0.792 	-0.330
 6.907 	1.042 	-0.186
 6.966 	0.566 	-0.085
 7.334 	-0.081 	0.125
 7.085 	-0.371 	0.028
 6.332 	-0.749 	0.305
 6.423 	-0.318 	0.437
 6.259 	0.550 	0.366
 6.702 	0.700 	0.142
 6.779 	0.147 	-0.490
 6.656 	-0.300 	-0.514
 6.685 	-1.274 	0.087
 6.939 	-1.461 	0.641
 7.203 	-0.471 	0.287
 7.208 	-0.764 	-0.114
 6.374 	0.259 	-0.153
 6.668 	0.340 	-0.356
 6.970 	0.449 	-0.281
 7.290 	0.265 	-0.280
 7.564 	0.177 	-0.116
 7.723 	-0.252 	0.024
 7.311 	-0.516 	-0.010
 6.746 	-0.160 	-0.025
 6.842 	0.126 	-0.070
 7.231 	0.317 	-0.249
 7.384 	0.129 	-0.322
 7.554 	-0.338 	-0.124
 7.358 	-1.271 	-0.338
 7.401 	-1.381 	0.718
 7.028 	-0.263 	0.338
 6.744 	-0.770 	-0.246
 6.597 	-0.395 	-0.109
 6.711 	-0.507 	-0.268
 6.938 	-0.237 	-0.253
 7.183 	0.018 	0.119
 7.536 	0.156 	0.055
 7.422 	-0.305 	-0.132
 7.309 	-0.256 	-0.401
 7.276 	-0.288 	-0.461
 7.391 	-0.262 	-0.524
 7.426 	0.111 	-0.336
 7.144 	0.043 	-0.185
 6.834 	-0.929 	0.076
 5.730 	-0.664 	1.210
 5.602 	-0.494 	1.529
 6.327 	-0.578 	0.204
 6.380 	-0.344 	-0.267
 6.710 	-0.683 	0.088
 6.636 	-1.165 	0.027
 6.580 	-0.773 	-0.223
 6.885 	-0.206 	-0.309
 7.034 	-0.199 	-0.418
 7.019 	-0.683 	-0.425
 7.217 	-0.714 	-0.562
 7.282 	-0.633 	-0.887
 6.863 	-0.211 	-0.469
 6.568 	0.442 	0.023
 6.320 	-0.002 	0.611
 4.903 	-0.407 	0.746
 4.310 	-0.938 	1.395
 5.093 	-0.682 	0.670
 4.960 	-0.242 	0.064
 4.405 	0.038 	0.284
 7.046 	-0.347 	-0.346
 6.950 	-0.533 	0.018
 6.967 	-0.582 	0.281
 7.090 	-0.614 	-0.149
 7.333 	-0.488 	-0.445
 7.058 	-0.857 	-0.535
 6.662 	-0.816 	-0.470
 6.281 	-0.595 	-0.274
 6.491 	0.363 	0.047
 6.533 	-0.044 	0.154
 6.440 	-0.095 	0.293
 5.605 	0.271 	0.702
 5.909 	-0.511 	0.125
 6.056 	-0.711 	1.548
 5.956 	-0.157 	0.530
 6.036 	0.117 	-0.212
 7.096 	-0.354 	-0.237
 7.357 	-0.369 	-0.484
 7.595 	-0.264 	-0.535
 7.477 	-0.272 	-0.360
 6.857 	-0.292 	-0.178
 6.596 	-0.447 	-0.309
 6.502 	-0.823 	-0.130
 6.597 	-0.693 	-0.066
 6.727 	-0.450 	-0.055
 6.731 	-0.491 	0.160
 6.879 	-0.401 	0.331
 7.004 	-0.356 	0.115
 6.293 	-0.156 	-0.021
 6.534 	0.123 	0.709
 6.861 	-0.141 	0.377
 7.428 	-0.566 	0.053
 6.271 	-0.576 	-0.288
 6.111 	-0.579 	-0.233
 6.026 	-0.036 	0.137
 6.035 	-0.045 	0.321
 6.101 	-0.079 	0.203
 6.299 	-0.336 	0.009
 6.708 	-0.501 	-0.081
 6.888 	-0.505 	0.034
 6.894 	-0.478 	0.127
 6.846 	-0.462 	0.015
 6.899 	-0.127 	0.265
 6.633 	-0.511 	0.029
 6.616 	-0.563 	-0.002
 6.743 	-0.154 	0.012
 7.064 	-0.261 	-0.189
 7.530 	-0.470 	-0.574
 6.504 	-0.699 	-0.296
 5.529 	0.108 	0.256
 5.182 	0.238 	0.822
 5.422 	-0.059 	0.853
 6.054 	-0.048 	0.245
 6.479 	-0.229 	-0.078
 6.109 	-0.531 	0.238
 5.810 	-0.338 	0.241
 5.910 	-0.755 	0.381
 6.123 	-0.639 	0.226
 6.033 	-0.251 	0.705
 6.274 	-0.150 	1.021
 6.609 	-0.715 	0.814
 6.817 	-1.018 	0.218
 7.064 	-1.134 	0.093
 7.269 	-0.818 	-0.222
 5.482 	-0.058 	-0.031
 5.168 	0.418 	0.646
 5.878 	0.223 	0.344
 6.486 	-0.128 	-0.060
 6.959 	-0.253 	-0.008
 6.963 	0.007 	-0.012
 6.333 	0.229 	0.218
 6.550 	0.043 	0.099
 5.764 	-0.372 	0.495
 5.142 	-0.535 	0.966
 5.482 	-0.654 	1.041
 6.199 	-0.592 	0.907
 6.938 	-0.962 	0.338
 7.340 	-1.160 	0.013
 7.185 	-1.210 	0.064
 6.964 	-1.181 	-0.154
 5.804 	-0.144 	0.142
 6.133 	0.317 	0.307
 6.799 	0.089 	-0.189
 6.782 	-0.118 	-0.059
 6.944 	-0.308 	0.008
 7.139 	-0.416 	-0.123
 7.427 	0.160 	-0.106
 7.639 	0.370 	-0.015
 7.456 	0.020 	-0.159
 7.527 	-0.419 	0.013
 7.655 	-0.387 	-0.123
 7.735 	-0.600 	-0.166
 7.702 	-0.962 	-0.224
 7.828 	-1.003 	-0.426
 7.615 	-1.087 	-0.375
 7.225 	-1.138 	-0.159
 6.674 	0.311 	-0.194
 6.736 	0.394 	-0.220
 6.705 	-0.041 	0.032
 6.289 	-0.355 	0.297
 6.175 	-0.351 	0.341
 6.279 	-0.572 	-0.240
 6.492 	-0.322 	-0.506
 6.982 	-0.117 	-0.436
 7.313 	-0.131 	-0.275
 7.647 	-0.156 	-0.220
 7.706 	-0.499 	-0.446
 7.567 	-0.934 	-0.334
 7.688 	-1.191 	-0.344
 7.910 	-1.027 	-0.543
 7.714 	-0.739 	-0.643
 7.617 	-0.390 	-0.397
 6.487 	0.207 	-0.260
 6.357 	0.157 	-0.125
 6.047 	-0.097 	0.616
 6.089 	-0.414 	0.517
 6.091 	-0.203 	0.398
 6.297 	-0.386 	-0.109
 6.478 	-0.429 	-0.452
 6.790 	-0.162 	-0.702
 7.258 	0.027 	-0.768
 7.534 	-0.015 	-0.642
 7.589 	-0.065 	-0.634
 7.708 	-0.184 	-0.735
 7.641 	-0.491 	-0.330
 7.419 	-0.640 	0.200
 7.540 	-0.363 	-0.316
 7.855 	-0.156 	-0.657
 5.800 	1.526 	0.989
 5.493 	1.728 	0.842
 5.416 	1.624 	0.806
 5.786 	1.169 	0.401
 5.638 	0.880 	0.312
 5.619 	0.548 	0.446
 5.871 	0.334 	0.421
 6.218 	0.290 	0.377
 6.491 	0.001 	0.313
 6.856 	0.144 	0.329
 6.877 	0.593 	0.499
 6.949 	0.117 	-0.088
 6.964 	-0.172 	-0.347
 6.930 	-0.258 	-0.386
 6.763 	-0.026 	-0.219
 6.989 	0.200 	0.112
 5.092 	0.487 	0.592
 5.611 	1.013 	0.640
 5.779 	1.219 	0.518
 5.404 	1.041 	0.582
 5.378 	0.690 	0.689
 5.440 	0.235 	0.675
 5.724 	-0.260 	0.654
 6.210 	-0.453 	0.525
 6.652 	-0.173 	0.227
 6.536 	0.009 	0.219
 6.533 	0.399 	0.443
 6.622 	0.045 	0.612
 6.716 	-0.482 	0.477
 6.665 	-0.332 	-0.132
 6.177 	0.258 	0.170
 6.322 	0.410 	0.450
 5.913 	0.465 	0.207
 5.546 	0.773 	0.588
 5.416 	1.051 	0.756
 5.544 	1.168 	0.408
 5.569 	0.917 	0.084
 5.614 	0.511 	0.130
 6.044 	-0.199 	0.357
 6.627 	-0.795 	0.496
 6.548 	-0.486 	0.762
 6.792 	0.248 	0.272
 6.770 	0.464 	0.351
 6.646 	-0.074 	0.168
 6.607 	-0.548 	0.306
 6.508 	-0.599 	0.069
 6.570 	0.212 	0.080
 6.490 	0.506 	0.404
 6.411 	0.703 	0.081
 6.103 	0.829 	0.098
 5.986 	1.136 	-0.102
 5.953 	1.293 	-0.348
 5.964 	0.648 	-0.159
 6.422 	-0.000 	0.124
 6.954 	-0.569 	0.162
 6.862 	-0.775 	0.061
 6.448 	-0.186 	0.718
 6.335 	0.178 	0.512
 6.760 	0.008 	-0.066
 6.634 	0.037 	-0.088
 6.371 	-0.376 	0.316
 6.530 	-0.532 	0.694
 6.481 	-0.261 	0.522
 6.621 	-0.070 	0.355
 7.149 	0.944 	-0.131
 6.744 	1.059 	-0.076
 6.594 	1.253 	-0.021
 6.540 	0.937 	0.006
 6.660 	0.230 	-0.015
 6.646 	-0.218 	0.124
 6.621 	-0.536 	0.374
 6.665 	-0.824 	0.394
 6.692 	-0.495 	0.513
 7.222 	-0.351 	0.481
 7.051 	-0.343 	-0.035
 6.799 	0.028 	-0.162
 6.558 	-0.328 	0.360
 6.843 	-0.783 	0.780
 7.263 	-0.452 	0.521
 7.134 	-0.312 	0.365
 6.651 	0.914 	0.136
 6.646 	1.051 	0.019
 6.694 	1.055 	0.054
 6.974 	0.617 	-0.224
 7.010 	0.231 	-0.295
 6.990 	-0.115 	-0.008
 7.061 	-0.460 	0.031
 7.120 	-0.651 	-0.208
 7.102 	-0.840 	-0.106
 7.477 	-0.532 	-0.067
 7.392 	-0.220 	-0.190
 7.244 	-0.124 	-0.176
 7.425 	-0.540 	-0.268
 7.564 	-0.740 	-0.115
 7.830 	-0.529 	-0.158
 7.783 	-0.521 	-0.092
 6.470 	0.982 	0.142
 6.580 	1.073 	0.014
 6.893 	0.941 	-0.050
 7.309 	0.654 	0.045
 7.335 	0.391 	0.045
 7.326 	0.050 	-0.231
 7.344 	-0.148 	-0.545
 7.271 	-0.473 	-0.524
 7.323 	-0.633 	-0.290
 7.035 	-0.659 	-0.157
 6.934 	-0.468 	0.065
 7.183 	-0.702 	0.399
 7.244 	-0.632 	0.801
 7.437 	-0.679 	0.881
 7.792 	-0.404 	0.144
 7.731 	-0.217 	-0.130
 6.659 	0.803 	-0.015
 6.718 	0.499 	-0.056
 7.008 	0.182 	-0.042
 7.209 	0.001 	-0.011
 7.432 	0.132 	0.064
 7.446 	-0.042 	-0.007
 7.344 	-0.251 	-0.226
 7.115 	-0.425 	-0.251
 6.782 	-0.632 	-0.097
 6.356 	-0.903 	0.003
 6.064 	-0.365 	0.668
 6.209 	-0.250 	1.045
 6.504 	-0.826 	1.110
 6.582 	-1.005 	0.677
 6.216 	-0.542 	0.531
 6.735 	-0.288 	0.018
 6.946 	0.258 	-0.097
 7.072 	0.194 	-0.199
 7.428 	-0.099 	-0.245
 7.619 	-0.460 	-0.308
 7.542 	-0.496 	-0.203
 7.516 	-0.456 	-0.033
 7.338 	-0.313 	-0.249
 7.321 	-0.573 	-0.034
 7.100 	-0.909 	0.306
 6.663 	-0.856 	0.566
 6.637 	-0.542 	0.951
 6.682 	-0.386 	0.762
 7.055 	-0.496 	0.321
 7.118 	-0.771 	0.573
 7.377 	-0.611 	0.764
 7.447 	-0.730 	0.319
 7.252 	-0.385 	-0.033
 7.507 	-0.465 	-0.194
 7.602 	-0.518 	-0.361
 7.412 	-0.606 	-0.437
 7.327 	-0.566 	-0.285
 7.443 	-0.394 	-0.319
 7.676 	-0.121 	-0.505
 7.842 	-0.404 	-0.196
 7.739 	-0.684 	0.218
 7.461 	-0.658 	0.396
 7.123 	-0.862 	0.460
 7.102 	-0.677 	0.621
 7.305 	-0.962 	0.320
 7.390 	-1.051 	0.256
 7.766 	-0.858 	0.213
 7.917 	-0.771 	0.193
 7.372 	-0.797 	-0.034
 7.311 	-0.566 	-0.009
 6.792 	-0.586 	0.203
 6.686 	-0.545 	0.172
 6.947 	-0.495 	-0.105
 7.140 	-0.444 	-0.059
 7.303 	-0.343 	0.013
 7.593 	-0.293 	0.055
 7.861 	-0.342 	0.073
 7.832 	-0.472 	0.264
 7.354 	-0.703 	0.313
 7.158 	-0.842 	0.286
 7.192 	-1.131 	0.215
 7.111 	-1.494 	0.185
 7.654 	-1.326 	-0.345
 8.172 	-1.005 	-0.830
 7.089 	-0.543 	0.039
 6.545 	-0.621 	0.355
 6.432 	-0.374 	0.553
 6.767 	-0.598 	0.322
 7.045 	-0.747 	0.068
 7.287 	-0.423 	-0.084
 7.319 	-0.318 	-0.230
 7.301 	-0.281 	0.338
 6.860 	-0.271 	0.509
 6.716 	-0.657 	0.584
 6.765 	-0.896 	0.579
 6.965 	-1.068 	0.402
 7.044 	-1.102 	0.293
 7.057 	-1.341 	0.308
 7.243 	-1.417 	0.040
 7.700 	-1.165 	-0.617
 6.573 	-0.408 	0.248
 6.627 	-0.422 	0.327
 6.863 	-0.611 	0.331
 6.895 	-0.905 	0.106
 6.821 	-0.989 	-0.004
 6.882 	-0.839 	-0.004
 7.057 	-0.466 	-0.008
 7.367 	-0.043 	0.089
 7.430 	0.015 	0.268
 7.288 	-0.261 	0.562
 7.272 	-0.588 	0.520
 7.421 	-0.725 	0.338
 7.598 	-0.741 	-0.042
 7.655 	-0.914 	-0.002
 7.469 	-1.245 	0.117
 7.403 	-1.165 	-0.065
 6.572 	-0.240 	0.224
 6.688 	-0.553 	0.156
 6.486 	-0.889 	-0.049
 6.171 	-1.075 	0.006
 6.335 	-1.040 	-0.052
 6.489 	-0.823 	-0.192
 6.692 	-0.717 	0.065
 7.065 	-0.400 	0.168
 7.574 	-0.189 	0.129
 8.036 	-0.261 	-0.207
 8.009 	-0.443 	-0.616
 7.905 	-0.520 	-0.626
 7.965 	-0.531 	-0.414
 7.736 	-0.665 	-0.325
 7.547 	-0.839 	-0.438
 7.624 	-1.006 	-0.556
 6.391 	-0.362 	-0.004
 6.483 	-0.713 	-0.115
 6.283 	-0.847 	0.105
 6.200 	-0.988 	0.205
 6.313 	-1.292 	0.082
 6.587 	-1.237 	-0.206
 6.989 	-1.175 	-0.566
 7.401 	-0.614 	-0.583
 7.730 	-0.149 	-0.609
 7.937 	0.094 	-0.666
 7.985 	0.228 	-0.772
 7.917 	0.083 	-0.840
 7.747 	-0.075 	-0.931
 7.822 	-0.421 	-0.806
 7.811 	-0.746 	-0.655
 7.695 	-0.865 	-0.619
 6.427 	-0.903 	0.115
 6.014 	-0.757 	0.453
 5.979 	-0.643 	0.797
 6.336 	-0.902 	0.654
 6.485 	-1.344 	0.105
 6.783 	-1.291 	-0.325
 6.793 	-1.158 	-0.497
 6.924 	-1.309 	-0.689
 7.455 	-0.552 	-0.908
 7.933 	0.156 	-0.992
 8.114 	0.183 	-1.200
 7.817 	0.190 	-1.235
 8.170 	-0.131 	-0.497
 8.097 	-0.430 	-0.296
 7.943 	-0.872 	-0.576
 7.875 	-0.807 	-0.535
 5.268 	0.842 	1.229
 5.581 	1.133 	0.873
 6.185 	1.205 	0.474
 6.566 	1.240 	0.262
 6.558 	1.055 	0.252
 6.278 	0.810 	0.228
 6.150 	0.684 	0.185
 6.251 	0.600 	0.288
 6.488 	0.439 	0.308
 6.717 	0.323 	0.400
 6.837 	0.171 	0.372
 6.862 	-0.052 	0.110
 6.928 	-0.248 	-0.042
 7.076 	-0.300 	-0.250
 7.088 	-0.310 	-0.242
 7.192 	-0.077 	-0.048
 5.365 	0.725 	0.719
 5.722 	1.013 	0.916
 5.908 	1.006 	0.760
 5.626 	1.246 	0.713
 5.562 	1.377 	0.648
 5.639 	1.080 	0.480
 5.773 	0.921 	0.342
 6.166 	0.603 	0.191
 6.468 	0.121 	0.180
 6.742 	0.093 	0.317
 6.932 	-0.003 	0.399
 7.071 	-0.152 	0.442
 7.036 	-0.336 	0.378
 7.071 	-0.457 	0.410
 7.098 	-0.231 	0.205
 7.018 	0.045 	0.205
 6.361 	0.481 	0.312
 6.183 	0.693 	0.424
 5.953 	1.142 	0.566
 5.739 	1.488 	0.492
 5.796 	1.378 	0.282
 5.786 	0.985 	0.159
 5.929 	1.006 	0.159
 6.363 	0.138 	0.675
 6.731 	-0.632 	0.934
 7.033 	-0.490 	0.633
 7.160 	-0.120 	0.352
 7.199 	0.023 	0.242
 7.266 	-0.117 	0.234
 7.142 	-0.498 	0.234
 7.164 	-0.260 	0.462
 7.195 	-0.234 	0.302
 6.868 	0.724 	0.265
 6.551 	0.719 	0.278
 6.279 	1.109 	0.142
 6.179 	1.313 	0.035
 6.037 	1.030 	0.028
 6.224 	0.769 	0.150
 6.490 	0.535 	0.190
 6.724 	-0.041 	0.080
 7.074 	-0.555 	0.357
 7.316 	-0.560 	0.425
 7.359 	-0.366 	0.227
 7.068 	-0.304 	0.231
 6.852 	-0.303 	0.363
 6.700 	-0.299 	0.350
 6.547 	-0.226 	0.469
 6.599 	-0.220 	0.596
 7.063 	0.889 	0.085
 7.075 	1.066 	0.063
 6.910 	1.077 	0.140
 6.750 	1.031 	0.195
 6.685 	0.813 	0.135
 6.690 	0.605 	0.037
 6.963 	0.146 	0.066
 6.902 	-0.147 	0.404