# vtk DataFile Version 3.0
HighT1
ASCII
DATASET STRUCTURED_POINTS
DIMENSIONS 16 16 19
ORIGIN 929.001000000000 929.001000000000 5.001000000000
SPACING 10.000000000000 10.000000000000 10.000000000000
POINT_DATA 4864
 FIELD attributes 1
U 3 4864 float
3.053 	0.272 	0.265
 4.069 	0.921 	-0.255
 5.066 	0.313 	-0.588
 5.594 	-0.498 	-0.924
 5.006 	-0.346 	-1.013
 4.578 	0.274 	0.223
 2.606 	0.014 	0.061
 3.299 	-0.434 	0.631
 3.977 	0.716 	0.034
 4.308 	0.854 	-0.251
 4.462 	0.454 	-0.414
 4.993 	0.791 	-0.255
 5.018 	0.912 	-0.470
 4.743 	0.205 	-0.087
 4.025 	0.755 	0.018
 4.444 	-0.176 	-0.160
 3.674 	-0.145 	-0.003
 3.786 	0.465 	-0.213
 3.714 	0.037 	0.050
 3.721 	0.803 	0.020
 4.254 	0.646 	-0.337
 3.391 	0.434 	0.125
 4.281 	-0.009 	-0.356
 4.493 	-0.255 	-0.624
 4.624 	1.257 	-0.058
 5.045 	0.557 	-0.064
 3.647 	0.567 	0.324
 2.632 	0.618 	0.220
 2.894 	0.919 	0.203
 3.733 	0.749 	-0.044
 4.194 	0.348 	0.093
 5.010 	0.216 	-0.281
 2.319 	-0.215 	0.596
 1.641 	0.051 	0.700
 3.125 	0.858 	-0.030
 3.714 	0.898 	-0.007
 3.111 	0.652 	0.066
 3.095 	0.060 	0.225
 2.633 	-0.287 	0.141
 2.579 	0.180 	0.665
 4.187 	1.437 	-0.213
 3.724 	0.341 	0.811
 4.224 	1.801 	0.034
 4.060 	0.576 	-0.136
 3.911 	0.711 	-0.067
 3.886 	0.298 	-0.016
 4.454 	-0.127 	-0.099
 4.904 	-0.122 	0.123
 3.193 	0.654 	0.220
 3.245 	-0.144 	-0.161
 3.154 	0.216 	-0.187
 3.229 	0.838 	-0.013
 4.033 	-0.029 	-0.310
 3.245 	-0.119 	0.402
 2.367 	0.254 	0.319
 2.711 	-0.638 	0.356
 2.798 	0.530 	0.377
 3.662 	0.260 	0.077
 3.450 	0.356 	0.045
 4.339 	-0.115 	0.161
 4.569 	0.194 	0.538
 4.343 	-0.323 	0.019
 4.009 	0.256 	-0.106
 4.429 	-0.288 	-0.631
 2.588 	0.206 	0.274
 2.670 	-0.043 	0.219
 2.485 	-0.411 	0.219
 2.572 	0.322 	0.145
 3.090 	-0.271 	0.228
 3.453 	-0.020 	0.270
 3.765 	-0.584 	-0.054
 3.591 	-0.670 	-0.235
 4.088 	-0.171 	-0.370
 4.121 	0.633 	-0.088
 3.936 	0.219 	-0.193
 3.455 	-0.507 	0.608
 3.151 	-1.534 	0.461
 3.645 	-0.557 	0.217
 3.796 	-0.525 	0.208
 3.484 	-0.643 	-0.227
 3.960 	0.209 	-0.026
 4.088 	-0.460 	-0.269
 4.150 	-0.387 	-0.367
 3.962 	0.014 	-0.050
 3.337 	-0.310 	-0.038
 3.859 	0.180 	-0.531
 3.627 	-0.309 	0.367
 3.282 	-0.344 	0.307
 2.693 	-0.299 	0.309
 3.526 	-0.108 	0.017
 4.090 	0.155 	0.308
 4.111 	-0.500 	0.265
 4.216 	-0.259 	0.212
 2.263 	-0.270 	0.320
 2.560 	0.206 	-0.051
 2.925 	0.068 	0.090
 4.675 	-0.210 	-0.159
 4.576 	0.013 	0.029
 4.249 	-0.227 	-0.092
 4.425 	0.250 	-0.068
 4.400 	-0.311 	0.156
 3.654 	0.141 	0.037
 3.772 	0.023 	0.108
 3.522 	-0.707 	-0.286
 3.475 	-1.007 	0.049
 4.291 	-0.665 	-0.382
 4.492 	-0.359 	-0.359
 4.166 	-0.415 	0.046
 3.985 	-0.342 	0.038
 3.894 	0.169 	0.187
 3.707 	-0.282 	0.081
 2.874 	-0.031 	0.185
 3.498 	-0.352 	0.101
 3.501 	0.373 	0.167
 3.282 	0.496 	0.031
 2.505 	0.132 	0.139
 2.286 	0.022 	0.246
 2.754 	0.273 	0.056
 3.501 	0.173 	-0.217
 3.805 	-0.002 	-0.255
 4.205 	-1.064 	-0.833
 3.635 	-1.173 	0.326
 4.335 	-0.236 	-0.702
 4.961 	-0.002 	-0.529
 4.755 	0.464 	-0.152
 4.843 	0.301 	-0.380
 4.535 	0.133 	-0.115
 4.946 	0.134 	-0.410
 3.726 	0.785 	0.037
 2.559 	0.321 	-0.034
 2.998 	0.656 	-0.260
 3.852 	0.381 	-0.150
 4.425 	-0.322 	-0.036
 4.254 	-0.325 	0.003
 3.704 	0.037 	-0.173
 4.307 	-0.058 	-0.055
 4.406 	-0.674 	0.167
 4.559 	-0.145 	-0.189
 5.013 	-0.234 	0.084
 3.552 	0.790 	0.088
 3.845 	0.714 	0.100
 4.092 	0.403 	0.033
 4.401 	0.360 	0.312
 3.852 	0.295 	0.023
 4.163 	1.166 	0.123
 3.979 	0.787 	-0.418
 4.129 	0.384 	-0.235
 4.425 	0.296 	-0.199
 4.710 	0.008 	-0.666
 4.531 	0.044 	-0.315
 4.224 	0.289 	-0.156
 4.411 	-0.280 	-0.445
 4.125 	-0.438 	0.161
 4.112 	0.279 	0.158
 4.081 	0.363 	-0.004
 3.783 	0.440 	0.130
 4.058 	0.311 	-0.126
 4.195 	0.571 	-0.113
 4.319 	0.625 	-0.206
 4.228 	0.333 	-0.304
 3.776 	1.252 	-0.184
 3.726 	0.304 	0.114
 4.208 	0.626 	0.216
 3.630 	0.640 	0.103
 3.724 	0.616 	0.011
 3.864 	0.904 	-0.051
 3.881 	0.253 	-0.346
 4.129 	0.560 	-0.021
 3.756 	-0.557 	-0.207
 3.149 	0.391 	0.403
 3.391 	0.208 	-0.113
 3.276 	0.121 	-0.331
 3.346 	0.076 	-0.081
 3.692 	0.503 	-0.096
 3.827 	0.643 	0.033
 4.068 	0.639 	-0.281
 2.769 	0.790 	0.208
 2.676 	-0.023 	0.285
 2.445 	-0.507 	0.086
 2.847 	-0.145 	0.187
 3.096 	0.133 	0.162
 3.341 	0.812 	-0.096
 3.801 	0.385 	0.057
 4.013 	0.551 	0.238
 3.409 	-0.517 	0.272
 3.775 	0.057 	-0.127
 4.061 	0.314 	-0.153
 4.128 	0.516 	-0.159
 3.871 	0.608 	0.033
 3.989 	0.833 	-0.303
 4.188 	0.714 	-0.127
 4.008 	0.201 	0.058
 3.825 	0.197 	0.058
 3.820 	-0.263 	0.288
 3.775 	-0.519 	0.163
 3.682 	-0.629 	0.090
 3.548 	-0.425 	-0.006
 3.191 	-0.210 	0.321
 3.011 	-0.213 	0.324
 3.568 	-0.340 	0.130
 4.307 	-0.705 	-0.245
 3.785 	-0.071 	0.079
 3.608 	0.356 	0.160
 3.709 	0.287 	0.006
 4.170 	-0.109 	0.069
 4.287 	0.307 	-0.066
 4.499 	0.659 	0.028
 4.503 	0.878 	-0.056
 4.279 	0.170 	-0.059
 4.417 	-0.232 	0.142
 3.266 	-0.396 	0.214
 3.358 	-0.322 	-0.081
 3.384 	-0.368 	-0.172
 3.702 	0.136 	-0.117
 3.813 	0.437 	-0.371
 4.464 	0.381 	-0.213
 4.286 	0.030 	0.090
 4.116 	-0.439 	0.098
 4.417 	-0.410 	-0.151
 4.721 	-0.271 	0.044
 4.787 	0.043 	-0.299
 4.552 	0.290 	-0.030
 4.100 	0.917 	0.352
 3.847 	0.195 	-0.065
 3.045 	0.024 	-0.055
 3.842 	0.095 	0.008
 4.038 	-0.237 	-0.085
 3.516 	-0.272 	0.137
 3.023 	-0.566 	0.191
 3.078 	-0.173 	0.109
 3.689 	0.458 	-0.233
 3.920 	0.147 	-0.231
 4.278 	0.384 	-0.256
 4.055 	-0.245 	-0.177
 3.846 	-0.420 	0.072
 3.917 	-0.200 	0.042
 3.755 	0.572 	0.240
 3.475 	0.786 	0.100
 3.854 	0.591 	-0.275
 3.923 	0.593 	-0.037
 3.124 	-0.133 	-0.038
 3.179 	0.078 	-0.224
 3.442 	0.126 	-0.254
 3.365 	-0.354 	-0.050
 3.302 	-0.163 	0.040
 2.702 	0.418 	0.036
 2.162 	-0.194 	0.140
 2.411 	-0.141 	0.041
 3.063 	0.052 	0.109
 3.439 	0.470 	-0.429
 2.733 	-0.174 	0.375
 2.344 	-0.244 	0.181
 2.544 	-0.021 	0.034
 2.960 	0.792 	-0.210
 2.955 	-0.357 	0.298
 2.728 	-0.025 	0.325
 5.809 	1.217 	0.386
 4.941 	0.314 	0.362
 5.875 	1.022 	0.544
 5.784 	1.070 	-0.581
 5.701 	0.341 	-1.039
 5.458 	-0.609 	0.500
 6.143 	-0.240 	-0.642
 5.224 	0.220 	0.205
 5.476 	-0.279 	-0.508
 6.122 	-0.206 	-0.889
 6.450 	-0.023 	-0.846
 6.240 	0.240 	-0.359
 6.557 	0.230 	-1.199
 6.275 	1.070 	-0.324
 6.163 	1.037 	-0.127
 5.531 	0.983 	0.108
 5.271 	1.350 	0.272
 5.593 	0.224 	0.547
 5.519 	0.614 	-0.202
 5.947 	0.103 	-0.730
 5.855 	0.451 	-0.138
 5.182 	0.515 	1.042
 5.126 	0.952 	0.092
 4.924 	-0.645 	-0.867
 4.791 	-0.272 	-0.868
 5.351 	0.055 	-1.021
 6.219 	0.586 	-0.277
 6.076 	0.991 	-0.542
 6.083 	0.411 	-0.076
 5.962 	1.333 	0.370
 6.093 	1.756 	-0.314
 5.621 	0.990 	0.524
 5.049 	0.480 	0.068
 6.080 	0.438 	0.099
 4.983 	-0.580 	-0.231
 5.160 	0.721 	-0.543
 5.290 	1.127 	0.130
 5.041 	-0.082 	0.674
 5.125 	0.643 	-0.320
 4.727 	0.311 	0.049
 4.251 	-0.800 	-0.354
 3.851 	0.135 	0.092
 4.298 	0.161 	0.687
 3.863 	0.857 	1.094
 4.676 	0.960 	0.750
 5.009 	-0.245 	0.867
 5.515 	1.695 	0.422
 6.067 	0.757 	-0.030
 4.355 	-0.058 	0.433
 4.761 	-0.099 	-0.236
 3.909 	-0.228 	0.306
 3.693 	0.709 	0.701
 3.778 	1.206 	-0.153
 3.770 	-0.231 	0.838
 3.569 	0.902 	0.305
 3.454 	0.407 	0.525
 3.471 	-0.012 	0.308
 3.900 	0.004 	-0.003
 4.171 	0.548 	0.594
 5.234 	-0.457 	1.238
 4.659 	-0.489 	0.325
 5.230 	-0.447 	0.103
 5.420 	0.141 	0.266
 5.373 	-0.826 	0.323
 4.186 	-0.146 	0.724
 4.034 	0.007 	0.365
 4.231 	0.070 	-0.213
 4.624 	-0.205 	-0.065
 4.684 	0.391 	0.472
 4.615 	0.001 	0.260
 4.727 	-0.108 	0.017
 4.968 	0.299 	-0.037
 4.640 	-0.303 	0.047
 5.306 	0.431 	-0.128
 5.584 	0.233 	-0.334
 5.849 	0.193 	0.350
 5.936 	-0.373 	-0.746
 5.736 	-0.178 	-0.425
 5.443 	-0.551 	-0.181
 5.484 	-0.811 	-0.770
 4.680 	-0.367 	0.131
 4.804 	-0.238 	0.248
 4.764 	-0.007 	-0.113
 4.641 	0.461 	-0.207
 5.329 	0.055 	-0.005
 5.181 	0.068 	-0.212
 4.922 	-0.465 	0.464
 4.540 	-0.531 	0.064
 4.511 	0.015 	0.012
 3.980 	-0.660 	0.622
 4.167 	0.058 	0.288
 5.485 	0.196 	-0.179
 5.534 	0.246 	-0.876
 4.997 	-0.172 	0.190
 5.222 	-0.170 	-0.232
 4.627 	-0.909 	0.005
 5.019 	-0.159 	0.237
 4.954 	-0.246 	-0.002
 4.720 	-0.323 	0.103
 4.648 	0.390 	0.534
 4.854 	0.506 	0.203
 4.900 	0.398 	-0.217
 5.172 	0.286 	-0.493
 4.971 	-0.438 	-0.420
 4.954 	0.045 	-0.434
 5.294 	0.015 	-0.232
 4.718 	0.186 	0.136
 4.265 	0.124 	0.258
 4.678 	0.458 	0.149
 5.557 	0.567 	-0.151
 5.214 	0.018 	0.238
 5.590 	-0.005 	0.062
 5.355 	0.141 	-0.172
 5.036 	-0.040 	-0.371
 5.299 	0.072 	-0.587
 5.087 	0.174 	0.004
 4.855 	0.561 	-0.118
 4.229 	-0.093 	0.212
 4.468 	0.465 	-0.301
 4.506 	-0.300 	0.070
 4.934 	-0.073 	-0.026
 4.907 	-0.525 	-0.766
 5.584 	-0.218 	-0.592
 5.684 	-0.268 	-0.589
 5.189 	0.193 	-0.257
 5.450 	0.148 	0.016
 5.647 	-0.257 	-0.308
 5.808 	-0.117 	-0.185
 4.209 	0.252 	-0.218
 4.849 	0.348 	-0.180
 4.591 	-0.013 	-0.727
 4.722 	0.439 	-0.275
 4.503 	0.748 	0.169
 4.556 	0.260 	0.248
 4.612 	-0.246 	0.181
 4.526 	-0.617 	0.189
 4.747 	-0.853 	-0.411
 5.306 	-0.491 	-0.263
 5.092 	-0.142 	-0.047
 5.485 	-0.196 	-0.315
 5.316 	-0.084 	-0.344
 5.721 	0.094 	-0.540
 5.160 	0.311 	0.208
 5.470 	-0.370 	0.066
 3.717 	0.090 	0.009
 3.977 	0.040 	-0.311
 4.326 	0.194 	-0.336
 4.547 	0.285 	-0.723
 5.072 	0.864 	-0.702
 4.912 	0.437 	-0.553
 5.206 	0.137 	-0.319
 4.875 	-0.610 	-0.599
 4.478 	-0.729 	-0.184
 5.232 	-0.125 	0.165
 4.704 	0.576 	0.301
 5.454 	0.267 	-0.299
 4.784 	-0.039 	-0.498
 4.704 	-0.682 	-0.406
 5.048 	-0.034 	-0.610
 5.642 	0.365 	-0.186
 3.956 	0.342 	0.511
 3.442 	-0.205 	0.467
 3.260 	-0.258 	0.524
 3.776 	0.008 	0.230
 4.231 	0.687 	-0.027
 4.120 	0.450 	0.138
 4.463 	-0.053 	-0.824
 4.905 	-0.142 	-0.978
 5.128 	0.327 	-0.430
 4.340 	-0.407 	0.506
 4.768 	0.534 	0.123
 4.710 	0.255 	-0.175
 4.599 	0.395 	0.094
 4.679 	-0.482 	0.047
 5.224 	0.063 	-0.151
 5.043 	0.558 	0.022
 3.591 	0.055 	-0.059
 2.991 	0.396 	0.179
 2.679 	-0.376 	0.425
 3.324 	-0.621 	0.860
 3.004 	-0.046 	0.786
 3.328 	0.149 	-0.486
 3.738 	0.206 	-0.673
 3.769 	0.384 	0.092
 4.140 	0.587 	0.028
 4.373 	0.041 	0.131
 4.638 	0.064 	0.183
 4.236 	0.015 	0.362
 4.654 	-0.386 	0.018
 5.018 	-0.797 	-0.081
 4.902 	0.057 	-0.165
 5.240 	0.824 	0.078
 3.495 	0.497 	0.575
 3.647 	0.582 	-0.000
 3.519 	-0.090 	0.006
 3.411 	-0.371 	0.319
 3.116 	-0.069 	0.554
 3.513 	0.375 	-0.407
 4.284 	0.562 	-0.307
 4.258 	1.021 	-0.248
 4.516 	0.622 	-0.711
 4.506 	0.142 	-0.262
 4.332 	-0.321 	0.144
 4.436 	-0.182 	0.392
 4.940 	-0.424 	0.397
 4.628 	-0.108 	-0.186
 4.492 	0.057 	-0.052
 4.093 	0.506 	0.720
 4.170 	0.145 	-0.254
 4.216 	0.182 	-0.084
 4.296 	0.018 	0.034
 3.881 	-0.299 	0.490
 3.749 	-0.392 	0.197
 4.146 	0.018 	-0.026
 4.548 	0.666 	-0.694
 5.076 	0.487 	-0.613
 4.807 	0.704 	-0.011
 4.659 	0.605 	-0.260
 4.479 	0.151 	-0.261
 5.038 	-0.105 	-0.124
 5.119 	-0.346 	0.130
 4.163 	0.163 	0.011
 4.240 	0.045 	0.292
 4.215 	-0.071 	0.015
 3.910 	-0.134 	-0.058
 4.189 	0.087 	-0.008
 4.133 	0.254 	-0.144
 3.928 	-0.038 	0.019
 3.686 	-0.193 	0.099
 3.917 	-0.220 	-0.121
 4.053 	-0.090 	-0.055
 4.245 	0.376 	0.016
 4.548 	0.433 	-0.304
 4.923 	0.891 	-0.252
 5.113 	0.140 	0.059
 4.341 	-0.465 	0.279
 4.070 	0.064 	0.158
 3.942 	0.238 	-0.148
 3.789 	0.381 	0.272
 3.546 	-0.267 	0.951
 4.581 	-0.419 	-0.420
 4.398 	-0.236 	-0.385
 3.955 	0.272 	-0.118
 3.468 	0.064 	-0.088
 3.657 	-0.483 	-0.037
 3.419 	-0.797 	0.088
 3.623 	-0.432 	-0.010
 3.946 	-0.298 	0.107
 4.530 	-0.063 	-0.086
 4.658 	0.716 	-0.332
 4.865 	0.527 	0.594
 4.779 	-0.330 	0.190
 3.442 	0.019 	0.202
 3.255 	0.246 	0.217
 4.028 	0.798 	0.551
 4.156 	0.218 	0.372
 6.371 	0.652 	0.218
 6.573 	1.177 	0.336
 6.288 	2.174 	0.112
 6.416 	1.605 	0.346
 6.602 	0.577 	-0.215
 6.268 	0.748 	-0.462
 6.758 	0.337 	-0.401
 7.167 	0.475 	-0.559
 6.518 	-0.327 	-0.315
 6.578 	-0.033 	-0.853
 7.048 	0.651 	-1.303
 6.637 	0.331 	-1.067
 6.997 	0.821 	-1.069
 6.826 	0.260 	-0.626
 6.792 	0.443 	-0.205
 6.900 	0.933 	-0.119
 5.502 	0.787 	0.525
 5.849 	0.389 	1.052
 5.897 	1.829 	0.529
 5.613 	0.556 	0.114
 5.082 	-0.235 	0.150
 4.999 	0.528 	0.203
 5.804 	0.189 	-0.342
 5.739 	0.307 	0.047
 6.019 	-0.043 	-0.776
 5.405 	-0.431 	-0.630
 5.865 	-0.471 	-0.314
 6.195 	0.460 	-0.861
 5.847 	-0.013 	-0.003
 5.779 	-0.093 	0.412
 6.049 	0.830 	-0.606
 5.798 	1.410 	0.110
 4.925 	-0.262 	1.137
 4.908 	0.200 	0.191
 4.930 	0.133 	-0.074
 5.230 	-0.601 	-0.042
 5.001 	0.617 	0.042
 5.106 	0.779 	0.155
 5.016 	0.771 	-0.228
 5.354 	0.148 	-0.287
 5.523 	0.546 	-0.386
 4.401 	-0.388 	0.019
 3.864 	0.049 	0.569
 4.151 	-0.060 	1.019
 4.837 	0.652 	0.639
 5.245 	0.768 	0.530
 4.117 	1.344 	0.497
 5.138 	1.294 	0.471
 4.647 	0.159 	0.555
 4.681 	-0.070 	0.177
 4.505 	0.253 	0.273
 4.283 	-0.671 	0.599
 4.436 	0.796 	0.807
 4.191 	0.163 	0.633
 4.126 	0.311 	-0.004
 4.318 	0.660 	0.553
 5.175 	0.876 	-0.120
 5.398 	0.853 	-1.083
 5.914 	0.149 	0.010
 5.242 	0.864 	1.212
 4.765 	0.865 	0.821
 5.118 	1.591 	0.600
 5.464 	1.363 	1.149
 5.904 	0.574 	0.675
 4.990 	-0.059 	0.544
 4.576 	-0.572 	0.156
 4.280 	0.520 	0.028
 4.109 	-0.324 	0.547
 4.297 	-0.199 	0.761
 4.761 	-0.252 	0.661
 4.436 	0.899 	0.341
 4.897 	1.010 	0.287
 4.433 	0.904 	-0.046
 5.104 	0.165 	0.047
 5.194 	0.610 	-0.095
 4.921 	1.008 	-0.716
 5.455 	0.750 	-0.513
 5.724 	0.862 	-0.725
 5.645 	0.081 	-0.454
 5.237 	0.211 	0.173
 5.406 	-0.020 	0.379
 5.377 	-0.158 	0.088
 5.766 	-0.082 	-0.192
 6.188 	-0.815 	-0.318
 5.397 	0.252 	0.204
 5.573 	-0.116 	0.251
 4.940 	0.743 	-0.080
 4.761 	0.935 	0.020
 4.751 	0.823 	-0.280
 4.927 	0.265 	0.223
 5.374 	0.361 	-0.042
 5.398 	0.418 	-0.222
 5.735 	0.620 	-0.732
 6.288 	0.235 	-0.557
 6.263 	0.737 	-0.624
 6.022 	0.881 	-0.893
 5.463 	0.165 	0.092
 5.451 	-0.490 	0.132
 5.529 	-0.433 	-0.178
 5.345 	-0.307 	0.185
 5.386 	-0.185 	-0.412
 5.610 	-0.315 	-0.379
 5.421 	1.240 	-0.647
 5.016 	1.123 	-0.294
 5.105 	1.036 	-0.148
 6.003 	1.017 	-0.894
 6.060 	0.868 	-0.685
 5.788 	-0.150 	0.061
 5.925 	0.027 	-0.298
 6.090 	0.688 	-0.405
 5.528 	1.259 	-0.401
 5.654 	0.794 	-0.239
 5.642 	0.259 	-0.189
 5.446 	-0.153 	-0.135
 5.279 	-0.238 	-0.475
 5.035 	-0.069 	0.312
 4.976 	0.069 	-0.036
 5.066 	0.245 	-0.015
 4.388 	0.638 	0.167
 5.180 	0.734 	0.106
 5.770 	0.638 	-0.457
 6.212 	0.818 	-0.175
 5.924 	0.857 	0.165
 5.550 	0.093 	0.245
 6.012 	-0.073 	-0.158
 6.223 	0.634 	-0.084
 5.710 	1.582 	0.025
 5.683 	1.209 	-0.383
 4.571 	0.170 	-0.017
 5.017 	-0.076 	-0.175
 5.014 	-0.670 	-0.536
 5.106 	-0.144 	-0.203
 4.760 	0.535 	0.111
 4.765 	0.834 	0.103
 4.512 	0.708 	0.059
 4.412 	0.790 	0.056
 4.866 	0.279 	-0.457
 5.432 	-0.401 	-0.299
 5.765 	-0.314 	-0.524
 6.032 	-0.253 	-0.471
 5.760 	-0.223 	-0.257
 5.868 	0.651 	0.043
 5.667 	0.623 	0.299
 6.117 	0.277 	0.283
 4.416 	-0.296 	0.132
 4.642 	-0.763 	-0.451
 5.090 	-1.070 	-0.558
 5.081 	-0.277 	-0.791
 5.237 	0.341 	-0.253
 5.273 	0.819 	-0.444
 5.038 	0.898 	-0.649
 5.180 	0.326 	-0.519
 5.731 	-0.160 	-0.804
 5.628 	-0.286 	-0.347
 5.133 	-0.461 	0.041
 5.433 	0.229 	-0.645
 5.415 	0.184 	-0.234
 5.479 	0.276 	-0.206
 5.465 	0.460 	-0.800
 5.462 	0.069 	-0.292
 3.655 	-0.606 	0.758
 4.122 	-0.898 	-0.229
 4.093 	-1.050 	0.411
 4.064 	-0.207 	-0.237
 4.853 	-0.154 	-0.762
 5.007 	0.738 	-0.341
 5.284 	0.920 	-0.448
 5.153 	0.264 	-0.967
 5.302 	0.346 	-0.785
 5.562 	0.352 	-0.195
 4.932 	0.067 	-0.273
 4.529 	0.407 	0.334
 4.907 	0.668 	0.042
 4.836 	0.171 	-0.170
 5.023 	-0.536 	0.212
 4.837 	0.293 	0.353
 4.113 	-0.591 	0.368
 4.275 	-0.385 	0.243
 4.629 	0.141 	-0.156
 3.719 	-0.385 	0.354
 4.080 	0.622 	1.099
 4.940 	0.905 	-1.190
 4.467 	0.504 	-0.585
 5.370 	0.826 	-0.777
 4.517 	0.258 	-0.278
 3.982 	0.121 	0.468
 4.137 	0.646 	0.612
 4.582 	-0.030 	0.617
 4.652 	-0.295 	0.395
 4.899 	-0.479 	0.197
 5.039 	-0.521 	-0.279
 5.075 	-0.416 	0.197
 4.844 	-0.591 	0.404
 5.434 	-0.632 	-0.432
 5.547 	0.389 	0.133
 5.905 	0.485 	-0.692
 4.125 	0.219 	1.010
 4.807 	0.625 	-0.881
 4.705 	0.499 	-0.441
 5.002 	0.766 	-0.889
 4.538 	0.906 	-0.492
 4.661 	0.637 	-0.525
 4.767 	0.363 	-0.148
 4.999 	0.114 	-0.482
 5.095 	-0.449 	0.281
 5.126 	-0.518 	-0.016
 4.913 	0.012 	-0.125
 5.054 	-0.033 	0.059
 5.319 	-0.473 	-0.303
 4.201 	-0.062 	0.486
 4.101 	0.742 	0.712
 4.655 	1.198 	-0.031
 4.741 	0.940 	-0.015
 4.984 	0.248 	-0.132
 5.001 	0.290 	-0.212
 4.897 	0.859 	-0.746
 4.654 	0.619 	-0.311
 4.658 	0.540 	0.168
 5.253 	0.453 	-0.656
 5.493 	0.669 	-0.475
 5.448 	-0.358 	0.390
 4.938 	-0.312 	0.455
 4.583 	0.195 	0.355
 5.248 	0.008 	0.201
 4.934 	0.659 	-0.183
 4.594 	0.236 	0.128
 4.325 	-0.248 	0.345
 4.406 	-0.072 	0.218
 4.656 	0.146 	0.433
 4.707 	0.410 	0.034
 4.295 	0.275 	0.150
 4.547 	0.341 	0.170
 5.247 	0.851 	-0.548
 5.506 	0.502 	-0.524
 4.886 	0.446 	-0.149
 5.166 	0.159 	0.291
 5.319 	-0.116 	0.145
 5.394 	-0.187 	-0.121
 4.931 	0.331 	0.554
 4.690 	0.468 	0.179
 4.865 	0.649 	-0.053
 5.268 	0.311 	-0.269
 5.068 	-0.129 	0.127
 4.768 	-0.465 	-0.022
 4.674 	-0.381 	0.071
 4.411 	0.388 	0.142
 4.512 	0.237 	0.198
 4.342 	0.325 	0.791
 4.832 	0.649 	-0.101
 4.841 	0.565 	0.187
 5.169 	0.480 	0.745
 5.234 	0.652 	0.164
 5.414 	0.013 	0.081
 5.090 	-0.280 	0.464
 4.989 	0.624 	0.442
 5.180 	0.903 	0.055
 7.030 	0.779 	0.238
 6.400 	0.606 	0.096
 6.040 	0.637 	0.385
 6.568 	1.373 	0.986
 6.825 	1.008 	0.641
 7.067 	0.534 	-0.320
 7.650 	0.797 	-0.060
 7.572 	1.426 	-0.386
 7.147 	0.614 	-0.274
 7.287 	0.314 	-0.654
 6.948 	0.440 	-0.827
 6.977 	0.435 	-0.822
 7.076 	-0.129 	-0.651
 6.761 	0.101 	-0.248
 7.297 	0.650 	-0.378
 6.406 	0.669 	0.095
 5.667 	-0.164 	1.573
 5.800 	1.546 	1.098
 5.871 	1.192 	1.037
 5.867 	0.710 	0.947
 6.158 	0.456 	0.594
 6.199 	-0.572 	0.677
 6.029 	-0.171 	0.005
 6.148 	0.421 	0.307
 6.532 	0.739 	-0.323
 5.965 	-0.147 	-0.333
 6.624 	0.390 	-0.367
 6.749 	-0.603 	-0.363
 6.301 	0.476 	-0.134
 6.668 	0.733 	-0.200
 6.835 	0.725 	-0.173
 6.754 	1.277 	-0.392
 5.131 	0.106 	0.670
 5.041 	0.563 	1.013
 5.734 	0.684 	1.331
 6.328 	0.497 	0.370
 6.294 	-0.390 	0.039
 6.459 	0.155 	0.429
 5.538 	-0.141 	-0.195
 5.980 	0.381 	-0.252
 5.958 	0.852 	-0.512
 5.506 	-0.070 	0.200
 5.516 	-0.532 	0.760
 5.596 	-0.640 	-0.300
 6.083 	0.660 	-0.635
 6.171 	0.869 	0.282
 6.445 	0.618 	-0.138
 6.151 	1.646 	-0.140
 5.205 	0.055 	0.900
 4.966 	-0.593 	1.031
 4.807 	-0.131 	0.143
 5.241 	0.187 	0.238
 4.718 	0.093 	1.095
 4.663 	-0.459 	0.900
 5.473 	-0.491 	-0.226
 6.445 	-0.226 	-0.568
 6.285 	0.417 	-0.693
 6.305 	0.141 	-0.748
 5.297 	0.515 	0.437
 5.237 	0.175 	-0.208
 5.491 	0.803 	0.320
 4.663 	1.210 	0.608
 4.644 	1.166 	0.581
 5.391 	1.790 	0.848
 5.705 	-0.266 	1.020
 5.383 	-0.160 	0.501
 5.049 	-0.165 	0.237
 4.831 	0.001 	0.966
 4.632 	0.191 	0.499
 4.814 	-0.298 	0.195
 5.737 	-0.188 	-0.047
 5.646 	-0.213 	0.240
 5.842 	0.615 	-0.239
 6.711 	0.786 	-0.984
 6.473 	0.509 	-0.038
 5.767 	0.588 	-0.013
 5.217 	0.891 	-0.166
 4.905 	1.723 	0.276
 6.195 	0.975 	-0.031
 6.035 	1.463 	-0.266
 6.164 	-0.301 	0.226
 6.059 	-0.253 	0.630
 5.728 	-0.281 	-0.222
 5.907 	-0.315 	-0.380
 6.144 	-0.190 	0.201
 5.960 	0.199 	-0.061
 5.946 	0.361 	-0.245
 5.764 	-0.157 	-0.303
 6.035 	-0.218 	-0.215
 6.034 	0.717 	0.028
 6.674 	1.484 	-0.918
 6.821 	0.818 	-0.115
 6.614 	0.459 	-0.298
 6.792 	1.035 	-0.470
 6.833 	0.570 	-0.409
 6.983 	0.539 	-0.372
 6.356 	-0.073 	-0.196
 6.595 	0.001 	-0.043
 5.831 	-0.405 	-0.253
 5.916 	-0.335 	-0.348
 5.882 	-0.339 	-0.099
 6.419 	0.055 	-0.155
 6.476 	0.196 	-0.406
 6.574 	1.046 	-0.555
 6.190 	0.944 	-0.404
 5.855 	0.364 	-0.587
 6.247 	0.779 	0.131
 6.316 	1.029 	-0.266
 6.609 	0.089 	-0.361
 6.933 	0.190 	-0.116
 7.326 	0.879 	-0.520
 6.930 	0.511 	-0.299
 5.990 	-0.116 	-0.215
 6.123 	0.077 	-0.320
 5.789 	0.006 	-0.040
 5.375 	0.035 	0.068
 5.974 	-0.114 	-0.247
 5.239 	-0.233 	0.191
 5.259 	0.102 	0.204
 6.074 	0.855 	-0.138
 6.526 	0.969 	-0.143
 5.669 	0.261 	-0.034
 5.436 	0.426 	0.429
 5.879 	0.729 	0.104
 6.476 	0.083 	0.147
 6.144 	-0.061 	-0.079
 6.506 	0.278 	-0.041
 6.904 	1.018 	-0.630
 5.526 	-0.215 	-0.338
 5.560 	0.216 	-0.340
 5.146 	-0.044 	0.088
 5.345 	0.300 	0.064
 5.474 	0.435 	-0.113
 5.272 	0.393 	-0.088
 4.802 	0.141 	-0.245
 4.919 	0.793 	-0.236
 5.142 	0.631 	-0.358
 5.355 	0.087 	-0.288
 5.385 	0.352 	-0.196
 5.980 	0.652 	-0.143
 5.805 	-0.183 	-0.358
 5.937 	0.114 	-0.021
 5.655 	0.629 	0.322
 5.923 	1.512 	0.385
 4.775 	-0.166 	0.223
 5.159 	0.469 	-0.180
 5.238 	0.118 	-0.336
 5.210 	-0.299 	-0.332
 5.664 	0.479 	-0.019
 5.562 	0.769 	-0.300
 5.652 	0.763 	-0.647
 5.601 	0.744 	-0.729
 6.179 	0.474 	-0.912
 6.253 	-0.173 	-0.682
 6.236 	-0.043 	-0.282
 5.761 	-0.165 	-0.687
 6.002 	-0.129 	-0.814
 5.841 	0.505 	-0.257
 5.505 	0.332 	0.436
 5.399 	0.573 	0.276
 4.749 	-0.491 	0.033
 5.215 	0.486 	-0.311
 5.049 	-0.223 	0.406
 5.601 	-0.664 	-0.407
 5.081 	0.043 	-0.405
 5.657 	0.565 	-0.412
 5.371 	0.335 	-0.298
 5.474 	0.576 	-0.549
 4.722 	-0.532 	-0.198
 4.829 	0.143 	0.174
 5.006 	0.259 	0.212
 4.909 	-0.247 	0.494
 5.352 	0.780 	-0.104
 4.996 	0.735 	0.229
 5.146 	0.421 	0.364
 5.263 	0.286 	0.409
 5.157 	-0.274 	-0.018
 5.430 	-0.057 	-0.178
 5.744 	-0.511 	-0.158
 5.830 	-0.793 	0.118
 6.112 	-0.377 	-0.152
 5.627 	0.289 	-0.597
 5.371 	0.113 	-0.646
 4.910 	0.615 	-0.253
 4.729 	0.284 	-0.325
 4.364 	0.326 	0.347
 4.624 	-0.069 	0.325
 4.551 	0.213 	0.401
 4.837 	0.737 	0.164
 5.436 	1.074 	0.248
 5.587 	1.034 	-0.193
 5.284 	0.458 	0.034
 5.748 	-0.527 	0.268
 6.022 	-0.540 	0.096
 6.282 	-0.488 	-0.230
 5.767 	-0.290 	-0.073
 5.918 	0.088 	0.328
 6.022 	-0.374 	-0.442
 5.904 	-0.127 	-0.500
 5.954 	0.307 	-0.641
 5.614 	0.349 	-0.676
 6.032 	0.348 	-0.262
 5.182 	0.947 	-0.462
 5.200 	0.607 	-0.311
 4.671 	0.528 	-0.180
 4.764 	0.294 	0.157
 4.987 	0.552 	-0.046
 5.182 	0.583 	0.054
 6.376 	-0.029 	-0.138
 5.313 	-0.435 	0.241
 5.343 	-0.446 	0.360
 5.325 	-0.427 	0.251
 5.484 	-0.047 	-0.079
 5.796 	-0.257 	-0.158
 5.750 	0.008 	-0.063
 5.692 	0.131 	-0.560
 5.468 	0.816 	-0.296
 5.623 	0.648 	-0.349
 6.315 	1.007 	-0.694
 5.303 	0.407 	-0.227
 4.833 	0.168 	0.215
 4.947 	-0.155 	0.127
 5.453 	-0.053 	0.090
 5.702 	0.371 	-0.298
 5.269 	0.227 	-0.095
 4.748 	0.135 	0.352
 4.620 	-0.297 	0.646
 4.717 	-0.379 	0.760
 5.116 	-0.092 	0.734
 5.116 	0.004 	0.552
 5.013 	-0.135 	0.256
 5.179 	0.196 	-0.181
 5.469 	0.595 	-0.583
 5.982 	0.480 	-0.404
 5.424 	0.867 	0.033
 5.774 	1.174 	-0.186
 5.235 	0.269 	-0.188
 5.044 	-0.173 	-0.144
 5.477 	-0.018 	0.342
 5.470 	0.367 	0.220
 4.715 	0.343 	-0.221
 4.951 	0.266 	-0.043
 5.337 	-0.072 	-0.121
 4.933 	-0.292 	0.146
 4.596 	-0.222 	0.410
 4.870 	-0.245 	0.762
 4.806 	0.052 	0.474
 5.015 	0.341 	-0.017
 5.248 	0.252 	-0.201
 5.506 	0.511 	-0.379
 5.248 	1.072 	0.173
 5.124 	1.021 	-0.019
 5.153 	0.623 	-0.221
 5.408 	-0.066 	0.137
 5.474 	0.140 	0.330
 5.019 	0.405 	0.352
 6.769 	0.674 	0.664
 6.662 	1.224 	0.272
 6.401 	0.709 	0.141
 5.996 	0.231 	0.366
 6.446 	0.743 	0.093
 6.800 	1.279 	0.078
 7.228 	1.604 	0.608
 7.188 	1.823 	0.108
 7.506 	1.915 	0.185
 7.382 	0.798 	-0.789
 7.147 	0.768 	-0.564
 7.059 	0.451 	-0.338
 7.222 	0.394 	-0.226
 7.334 	0.260 	-0.570
 7.315 	0.512 	-0.333
 7.423 	-0.253 	-0.366
 5.519 	0.388 	0.829
 5.868 	0.006 	0.536
 5.972 	0.295 	0.660
 6.266 	0.741 	0.562
 5.976 	1.428 	1.004
 6.496 	0.274 	0.684
 6.548 	0.316 	0.684
 7.254 	1.724 	0.672
 6.806 	1.150 	0.120
 7.280 	0.729 	0.110
 7.123 	1.023 	-0.155
 6.773 	0.415 	-0.011
 6.751 	-0.168 	-0.566
 6.950 	0.239 	-0.523
 6.963 	0.486 	-0.544
 6.704 	0.519 	-0.282
 4.961 	-0.518 	1.483
 5.257 	-0.226 	2.002
 6.349 	-0.017 	1.221
 6.316 	1.553 	0.439
 6.238 	0.674 	0.379
 7.484 	0.139 	-0.106
 6.988 	0.265 	-0.088
 6.874 	1.197 	-0.068
 6.121 	1.146 	-0.082
 6.356 	0.682 	0.271
 6.276 	1.060 	0.035
 6.412 	0.533 	-0.081
 5.934 	-0.032 	-0.175
 5.466 	-0.208 	0.102
 5.715 	0.527 	0.174
 5.783 	0.539 	0.303
 6.110 	0.004 	0.894
 6.041 	-0.235 	0.930
 5.857 	-0.253 	0.261
 6.079 	0.677 	0.455
 6.236 	0.751 	1.073
 7.068 	0.528 	0.588
 6.763 	0.342 	-0.172
 6.713 	0.988 	-0.230
 6.962 	0.975 	-0.432
 6.799 	0.822 	-0.041
 6.252 	0.858 	-0.448
 6.753 	0.454 	0.133
 6.128 	0.864 	-0.239
 5.861 	0.600 	0.158
 5.679 	0.539 	0.237
 6.638 	0.474 	0.247
 6.799 	0.124 	0.630
 5.806 	-0.145 	1.230
 5.751 	-0.930 	0.438
 5.450 	0.293 	0.996
 5.841 	-0.638 	0.764
 6.525 	-0.283 	-0.000
 6.143 	0.493 	-0.252
 6.432 	0.781 	-0.256
 6.922 	1.538 	-0.543
 6.956 	1.256 	-0.446
 7.000 	0.768 	-0.863
 7.175 	0.743 	0.177
 6.266 	1.003 	0.376
 6.684 	1.184 	-0.039
 7.087 	1.041 	-0.499
 7.037 	0.967 	0.062
 6.265 	0.313 	0.620
 6.309 	-0.011 	0.659
 6.301 	-0.471 	0.174
 5.914 	-0.138 	0.113
 6.554 	-0.489 	0.247
 6.137 	-0.501 	0.188
 6.455 	0.114 	-0.203
 6.710 	1.143 	-0.589
 6.512 	0.883 	-0.520
 7.284 	0.737 	-0.572
 7.600 	0.817 	-0.937
 7.151 	1.597 	-0.020
 7.193 	1.144 	-0.239
 7.724 	0.823 	-0.420
 7.716 	0.873 	-0.438
 7.609 	1.526 	-0.162
 6.353 	0.181 	0.097
 6.412 	-0.259 	0.075
 5.984 	-0.460 	0.065
 6.118 	-0.291 	-0.264
 5.989 	-1.025 	-0.089
 5.950 	-0.463 	-0.189
 6.111 	-0.367 	-0.596
 6.550 	-0.244 	-1.223
 6.779 	1.360 	-0.625
 6.627 	0.421 	-0.184
 6.707 	0.252 	0.247
 7.091 	1.151 	-0.349
 6.882 	0.789 	-0.251
 7.521 	1.109 	-0.017
 7.487 	1.021 	0.208
 6.985 	1.111 	-0.233
 6.370 	-0.176 	0.049
 6.114 	-0.481 	0.161
 5.913 	-0.603 	0.099
 6.078 	-0.541 	-0.335
 6.227 	-0.652 	-0.437
 5.770 	-0.276 	-0.034
 5.510 	-0.850 	0.144
 6.228 	-0.205 	0.214
 6.285 	0.734 	-0.083
 6.467 	0.444 	-0.037
 6.874 	0.471 	0.590
 6.828 	1.309 	-0.000
 6.710 	0.593 	0.464
 6.632 	0.025 	0.346
 6.763 	0.534 	-0.038
 6.970 	0.930 	-0.619
 6.071 	0.031 	-0.109
 5.925 	-0.234 	0.030
 5.425 	-0.855 	0.013
 5.787 	-0.954 	-0.090
 6.646 	-0.498 	-0.785
 6.924 	0.148 	-0.752
 6.677 	0.026 	-0.883
 6.494 	-0.488 	-0.097
 6.212 	0.905 	0.010
 5.799 	0.153 	0.171
 5.902 	0.006 	-0.039
 6.173 	0.721 	-0.629
 7.049 	1.507 	-0.430
 6.068 	-0.073 	0.038
 5.917 	0.139 	0.224
 6.374 	0.880 	-0.152
 5.656 	0.240 	0.023
 5.614 	-0.351 	-0.037
 5.917 	-0.495 	-0.318
 6.138 	-0.661 	-0.674
 5.902 	-0.524 	0.134
 6.121 	0.150 	-0.083
 6.376 	-0.081 	-0.440
 6.939 	0.037 	-0.698
 6.555 	0.245 	-0.286
 6.572 	0.020 	-0.393
 6.301 	-0.012 	-0.029
 6.236 	0.234 	-0.058
 6.270 	0.615 	-0.098
 6.333 	0.413 	-0.134
 5.504 	-0.111 	0.422
 5.810 	0.634 	0.393
 5.738 	0.176 	-0.334
 5.680 	-0.672 	-0.315
 5.603 	-0.621 	0.130
 5.908 	-0.337 	-0.221
 5.914 	-0.061 	-0.219
 5.675 	0.259 	-0.270
 5.699 	-0.147 	-0.297
 5.515 	-0.484 	-0.294
 5.685 	0.086 	-0.145
 5.292 	-0.020 	0.295
 5.628 	-0.272 	0.144
 6.634 	0.429 	-0.098
 6.797 	0.541 	-0.109
 6.428 	0.358 	-0.303
 5.974 	0.904 	-0.288
 6.125 	0.664 	0.103
 6.568 	-0.344 	0.020
 6.243 	-0.320 	-0.079
 5.994 	-0.387 	-0.125
 5.625 	-0.257 	-0.104
 5.658 	-0.196 	0.090
 5.876 	-0.213 	-0.103
 5.696 	-0.068 	-0.684
 5.636 	0.091 	-0.028
 5.715 	-0.094 	-0.575
 5.751 	0.691 	0.141
 5.841 	0.194 	-0.224
 5.434 	0.416 	-0.272
 4.706 	0.441 	0.008
 4.596 	0.539 	-0.101
 5.238 	0.715 	0.012
 5.544 	0.617 	-0.027
 6.552 	-0.226 	-0.037
 6.492 	0.024 	-0.127
 6.321 	-0.190 	0.069
 6.136 	-0.548 	0.237
 6.254 	-0.289 	-0.228
 6.253 	-0.056 	-0.476
 6.117 	-0.066 	-0.309
 6.003 	0.026 	-0.478
 5.639 	0.420 	-0.413
 5.863 	0.308 	-0.418
 5.776 	0.291 	-0.728
 5.262 	0.806 	0.054
 4.772 	0.915 	0.628
 4.616 	0.442 	0.390
 5.043 	0.254 	0.003
 4.864 	0.391 	-0.011
 6.013 	-0.127 	0.044
 5.650 	-0.020 	0.223
 5.366 	-0.270 	0.404
 5.274 	-0.915 	0.517
 5.856 	-0.578 	-0.031
 6.378 	-0.429 	-0.764
 6.647 	-0.262 	-0.166
 6.063 	0.205 	-0.217
 6.084 	0.555 	-0.201
 5.900 	0.258 	-0.476
 5.588 	0.938 	-1.027
 4.790 	0.922 	0.549
 4.623 	0.834 	0.623
 5.258 	0.442 	0.041
 5.549 	0.732 	-0.208
 5.866 	0.934 	-0.131
 5.054 	0.123 	0.200
 5.244 	0.032 	0.223
 5.195 	-0.222 	0.179
 5.086 	-0.388 	0.635
 5.026 	-0.937 	0.221
 5.182 	-0.559 	0.356
 5.322 	-0.633 	0.481
 5.609 	0.037 	-0.060
 5.838 	0.406 	-0.338
 5.616 	0.477 	-0.099
 6.184 	0.565 	-0.234
 5.992 	1.346 	-0.453
 5.903 	1.057 	-0.566
 6.042 	0.730 	-0.128
 6.116 	0.572 	0.139
 6.279 	0.874 	0.018
 4.943 	-0.661 	0.332
 5.128 	-0.319 	0.169
 5.788 	-0.007 	-0.184
 5.535 	-0.129 	0.053
 4.998 	-0.124 	0.334
 5.108 	-0.104 	0.806
 4.906 	-0.666 	0.386
 4.993 	-0.257 	0.046
 5.682 	-0.063 	-0.178
 5.628 	0.077 	-0.365
 5.898 	0.477 	0.140
 5.885 	0.904 	0.074
 5.945 	1.039 	-0.117
 5.950 	0.789 	0.166
 5.792 	0.720 	0.362
 5.737 	0.755 	0.235
 7.395 	0.842 	1.162
 7.361 	0.837 	0.524
 7.202 	1.199 	0.671
 7.070 	1.290 	0.509
 6.826 	1.089 	0.757
 7.309 	1.236 	0.705
 7.864 	1.443 	0.489
 7.931 	1.490 	0.842
 7.590 	1.530 	-0.055
 8.151 	1.435 	-0.301
 7.785 	0.714 	-0.206
 7.803 	0.242 	-0.374
 8.059 	0.307 	-0.468
 8.124 	0.526 	-0.517
 7.895 	0.367 	-0.563
 8.230 	0.636 	-0.188
 6.021 	-0.084 	1.756
 6.363 	1.235 	1.143
 7.016 	0.915 	0.730
 6.857 	1.327 	0.811
 7.064 	0.910 	0.362
 7.501 	0.775 	0.307
 7.852 	0.637 	0.954
 7.327 	1.912 	0.938
 7.338 	1.768 	0.352
 7.183 	0.990 	0.333
 7.314 	0.533 	-0.189
 7.594 	0.671 	-0.390
 7.404 	0.337 	-0.380
 7.655 	0.528 	-0.289
 7.657 	0.312 	-0.414
 8.112 	0.716 	-0.420
 4.715 	0.039 	1.684
 5.802 	0.667 	1.115
 6.445 	0.477 	0.657
 7.205 	0.123 	0.069
 7.464 	0.766 	-0.290
 7.431 	0.475 	0.224
 7.636 	1.413 	0.002
 7.172 	2.266 	0.134
 7.231 	1.524 	-0.027
 7.049 	0.932 	0.243
 7.009 	0.920 	-0.085
 7.107 	0.570 	-0.098
 7.323 	0.601 	-0.451
 7.359 	0.544 	0.044
 7.425 	0.425 	-0.133
 7.545 	0.211 	-0.239
 5.753 	0.377 	0.554
 6.001 	0.459 	0.794
 6.143 	0.006 	0.812
 6.316 	-0.513 	0.666
 7.214 	0.360 	0.995
 7.641 	0.283 	0.538
 7.419 	1.128 	0.259
 7.769 	1.861 	-0.121
 7.799 	1.329 	-0.604
 7.456 	1.138 	0.118
 7.165 	1.105 	-0.172
 7.078 	0.423 	-0.092
 7.670 	0.331 	-0.241
 7.548 	0.584 	-0.363
 7.662 	0.485 	-0.201
 7.599 	0.389 	-0.399
 6.289 	-0.109 	0.684
 6.328 	0.234 	1.212
 6.427 	-0.069 	0.527
 6.403 	-0.402 	0.951
 6.411 	-0.641 	0.968
 6.727 	-0.012 	0.586
 6.723 	0.695 	0.144
 6.942 	0.975 	-0.394
 7.319 	0.852 	-0.816
 7.644 	1.281 	-0.145
 7.879 	0.775 	-0.644
 7.626 	0.743 	-0.389
 7.938 	0.624 	-0.372
 7.351 	0.663 	-0.200
 7.548 	0.582 	-0.591
 7.297 	0.830 	-0.136