# vtk DataFile Version 3.0
HighT1
ASCII
DATASET STRUCTURED_POINTS
DIMENSIONS 16 16 19
ORIGIN 929.001000000000 929.001000000000 5.001000000000
SPACING 10.000000000000 10.000000000000 10.000000000000
POINT_DATA 4864
 FIELD attributes 1
U 3 4864 float
2.124 	0.201 	0.504
 2.344 	0.511 	0.241
 2.845 	-0.554 	0.019
 3.578 	0.490 	0.184
 4.054 	1.557 	0.121
 4.082 	1.575 	-0.147
 5.311 	1.372 	-0.347
 5.835 	-0.084 	-0.288
 5.407 	-0.248 	-0.309
 3.285 	0.048 	0.417
 3.149 	-0.761 	0.283
 3.792 	-0.310 	0.298
 4.295 	-0.482 	-0.134
 5.255 	0.175 	-0.743
 5.150 	0.947 	-0.618
 4.178 	0.673 	-0.268
 4.149 	-0.105 	-0.633
 4.055 	-0.003 	-0.073
 3.718 	-1.188 	0.101
 3.117 	0.019 	0.140
 3.231 	1.190 	-0.129
 3.048 	0.691 	0.326
 3.716 	1.127 	0.020
 4.455 	0.272 	-0.381
 4.925 	0.144 	-0.592
 4.751 	0.394 	-0.128
 4.597 	0.378 	-0.427
 3.985 	0.002 	-0.094
 4.303 	0.365 	-0.323
 3.406 	0.201 	0.294
 3.051 	0.484 	0.429
 4.580 	0.649 	-0.283
 3.135 	0.383 	0.132
 3.135 	-0.013 	-0.002
 4.203 	0.587 	-0.281
 2.565 	0.097 	0.820
 2.989 	0.455 	0.513
 3.693 	0.716 	0.151
 4.034 	0.605 	-0.235
 3.977 	0.425 	-0.327
 3.461 	0.279 	0.212
 3.079 	-0.450 	0.390
 3.195 	-0.338 	0.644
 3.917 	0.782 	-0.028
 4.241 	0.621 	0.290
 4.196 	1.128 	0.072
 3.263 	0.295 	0.157
 3.002 	1.114 	0.025
 4.588 	-0.116 	-0.208
 3.648 	-0.478 	-0.312
 3.616 	0.471 	0.182
 3.159 	0.209 	0.201
 3.324 	-0.051 	-0.206
 2.480 	0.411 	0.214
 3.127 	0.593 	-0.102
 2.723 	0.405 	0.591
 2.860 	0.229 	0.243
 2.967 	-0.507 	0.581
 3.159 	-0.888 	-0.153
 3.674 	0.940 	0.373
 3.670 	0.032 	0.195
 3.391 	1.048 	0.121
 3.642 	-0.433 	0.115
 4.521 	0.567 	0.001
 3.102 	0.453 	0.412
 3.005 	0.366 	0.073
 3.213 	0.189 	0.076
 3.111 	0.280 	0.176
 2.619 	-0.234 	0.104
 2.425 	-0.369 	0.484
 3.076 	-0.187 	-0.409
 2.964 	0.564 	0.483
 3.170 	-0.173 	0.146
 3.204 	-0.775 	-0.301
 3.496 	-0.506 	-0.191
 3.484 	0.331 	-0.144
 3.647 	0.443 	-0.168
 3.133 	0.113 	-0.003
 3.884 	-0.280 	0.129
 2.874 	-0.748 	0.818
 3.799 	-0.293 	-0.093
 4.271 	-0.006 	0.184
 4.136 	0.132 	-0.236
 4.099 	-0.033 	-0.182
 4.579 	-0.477 	-0.380
 4.144 	-0.471 	-0.072
 3.663 	-0.397 	0.429
 3.909 	0.361 	-0.284
 3.931 	0.305 	0.042
 3.683 	-0.312 	-0.081
 3.351 	-0.665 	0.258
 2.918 	-0.311 	0.373
 3.481 	-0.606 	0.103
 4.160 	0.273 	0.083
 4.497 	-0.339 	0.242
 4.405 	-0.334 	0.016
 4.512 	-0.246 	-0.160
 4.150 	0.146 	0.075
 4.076 	-0.302 	0.089
 4.670 	-0.288 	-0.004
 4.905 	-0.002 	-0.227
 4.147 	-0.268 	0.183
 4.307 	0.205 	0.294
 4.172 	-0.162 	0.074
 3.562 	0.190 	0.158
 3.592 	0.009 	0.043
 3.853 	-0.207 	-0.270
 3.836 	-0.579 	-0.058
 3.903 	-1.271 	-0.092
 4.449 	-0.373 	-0.133
 4.086 	-0.409 	0.237
 3.419 	-0.304 	0.309
 4.485 	0.765 	-0.041
 3.428 	0.102 	0.311
 3.086 	-0.571 	0.019
 3.599 	-0.293 	-0.027
 4.231 	0.526 	-0.265
 3.435 	0.605 	0.111
 2.611 	0.477 	0.053
 2.711 	-0.090 	-0.030
 3.340 	-0.017 	-0.164
 3.526 	-0.073 	-0.230
 4.205 	0.050 	-0.430
 4.507 	-0.229 	-0.534
 4.231 	-0.457 	-0.033
 4.121 	-0.592 	-0.125
 5.109 	0.298 	-0.899
 5.081 	-0.009 	-0.327
 4.056 	0.484 	-0.207
 4.737 	-0.133 	-0.155
 4.910 	0.066 	-0.223
 3.081 	0.186 	0.114
 2.355 	0.771 	0.256
 3.367 	0.823 	-0.178
 4.029 	0.743 	-0.375
 4.285 	0.195 	-0.221
 4.330 	-0.456 	-0.125
 3.769 	-0.062 	0.139
 4.021 	-0.145 	0.145
 4.290 	-0.486 	-0.028
 4.158 	-0.227 	0.073
 4.463 	-0.017 	-0.207
 4.040 	0.138 	-0.053
 4.030 	0.507 	-0.222
 4.149 	0.310 	-0.328
 4.188 	0.079 	-0.265
 4.394 	0.742 	0.211
 4.355 	1.042 	0.110
 3.949 	0.661 	-0.161
 3.722 	0.734 	-0.175
 3.957 	0.962 	0.080
 4.588 	0.594 	-0.198
 4.622 	-0.082 	-0.183
 4.392 	-0.019 	-0.204
 3.903 	-0.334 	-0.368
 3.821 	-0.791 	0.520
 3.673 	0.444 	0.220
 3.754 	0.114 	-0.113
 3.483 	0.232 	0.239
 3.818 	0.550 	0.026
 2.817 	-0.083 	0.222
 3.236 	-0.193 	0.029
 3.482 	0.348 	0.084
 3.887 	0.877 	0.047
 4.100 	0.508 	0.063
 4.126 	0.552 	0.004
 3.975 	0.494 	-0.144
 4.020 	0.599 	-0.165
 3.896 	0.552 	-0.488
 3.789 	0.058 	-0.358
 4.154 	0.411 	-0.046
 4.104 	0.090 	-0.319
 2.975 	0.034 	0.194
 3.175 	-0.083 	-0.013
 3.493 	-0.126 	-0.019
 3.477 	-0.157 	-0.037
 3.489 	0.458 	-0.064
 2.863 	-0.487 	-0.039
 3.116 	0.043 	-0.096
 2.896 	0.720 	0.332
 2.560 	-0.253 	0.229
 2.881 	0.030 	0.137
 2.662 	-0.431 	0.233
 3.187 	0.370 	-0.100
 3.216 	0.434 	0.055
 3.408 	0.399 	0.046
 2.994 	0.391 	0.346
 3.176 	0.012 	0.351
 3.681 	0.069 	-0.069
 4.082 	-0.136 	-0.094
 4.169 	0.346 	-0.236
 3.920 	0.524 	0.229
 3.167 	-0.104 	0.455
 3.191 	-0.186 	0.134
 3.298 	-0.074 	0.167
 3.171 	0.120 	0.467
 3.792 	-0.635 	0.022
 4.022 	-0.446 	0.116
 3.100 	-0.624 	0.228
 2.688 	0.224 	0.184
 2.019 	-0.163 	0.638
 2.511 	0.487 	0.313
 3.401 	-0.332 	0.206
 3.855 	-0.483 	-0.422
 3.841 	-0.350 	-0.114
 3.376 	0.046 	0.270
 3.577 	0.399 	0.169
 3.799 	0.287 	0.168
 4.008 	-0.587 	0.117
 4.123 	-0.123 	0.010
 3.853 	0.244 	-0.186
 3.975 	0.174 	-0.078
 3.983 	-0.022 	0.245
 2.612 	-0.664 	0.138
 3.196 	-0.571 	-0.067
 3.585 	-0.133 	-0.288
 3.690 	0.055 	0.032
 3.831 	0.276 	-0.409
 4.223 	0.083 	-0.334
 4.128 	0.190 	-0.211
 4.121 	-0.085 	0.223
 4.175 	-0.487 	-0.005
 4.502 	-0.463 	0.081
 4.876 	-0.453 	-0.230
 3.613 	-0.353 	0.136
 2.566 	-0.130 	0.254
 3.091 	-0.035 	-0.083
 3.257 	0.187 	0.073
 3.886 	0.172 	-0.185
 4.059 	-0.321 	-0.218
 3.733 	-0.316 	0.222
 3.231 	-0.244 	0.020
 3.152 	-0.192 	0.050
 3.532 	0.283 	-0.064
 3.642 	0.389 	-0.119
 4.116 	0.314 	-0.049
 3.995 	0.129 	-0.144
 3.368 	-0.459 	0.015
 3.300 	-0.493 	0.198
 3.895 	0.454 	0.005
 3.159 	0.072 	-0.031
 3.460 	-0.478 	0.138
 3.146 	-0.332 	0.223
 3.094 	-0.045 	-0.102
 3.419 	0.206 	-0.305
 3.458 	0.049 	-0.062
 3.098 	-0.151 	0.154
 3.327 	0.161 	-0.254
 2.236 	0.313 	0.258
 2.316 	0.008 	0.093
 2.841 	0.044 	-0.153
 3.158 	0.285 	0.042
 3.369 	0.147 	0.109
 2.753 	0.053 	-0.033
 2.841 	-0.190 	-0.105
 3.126 	0.255 	-0.099
 5.222 	-0.099 	-0.047
 4.795 	0.037 	0.355
 4.617 	-0.455 	0.420
 5.333 	0.509 	0.291
 5.312 	0.463 	0.336
 4.897 	1.357 	0.354
 5.257 	1.161 	0.696
 5.851 	1.667 	-0.101
 5.549 	0.847 	-0.564
 5.269 	0.199 	0.347
 5.982 	0.060 	-0.328
 6.524 	-0.347 	-0.249
 5.573 	-0.463 	0.047
 5.962 	-0.558 	-0.555
 6.442 	-0.140 	-0.787
 6.066 	0.709 	-0.523
 6.572 	0.208 	-0.543
 5.827 	1.026 	-0.183
 5.355 	0.768 	-0.609
 5.210 	-0.527 	0.615
 5.365 	0.854 	-0.140
 5.192 	0.521 	0.068
 5.380 	0.075 	0.325
 5.186 	1.087 	0.206
 5.791 	0.708 	-0.510
 5.407 	0.415 	0.251
 5.717 	0.682 	-0.009
 5.307 	0.243 	-0.424
 4.587 	-0.393 	-0.383
 5.064 	-0.423 	-0.882
 5.986 	0.180 	-0.806
 5.559 	0.551 	-0.920
 4.249 	0.108 	0.347
 5.086 	0.260 	-0.568
 5.809 	0.716 	-0.716
 5.173 	0.747 	0.580
 5.427 	-0.392 	-0.066
 5.799 	1.274 	-0.175
 5.569 	-0.233 	-0.600
 5.691 	0.693 	-0.630
 5.348 	0.668 	-0.161
 5.743 	0.768 	0.339
 5.067 	1.140 	0.162
 4.503 	-0.315 	0.013
 4.085 	0.232 	-0.155
 5.072 	-0.322 	0.228
 4.968 	0.232 	0.767
 4.473 	1.017 	0.859
 4.033 	0.326 	0.063
 4.198 	0.294 	0.026
 4.612 	-0.095 	0.119
 4.556 	0.211 	0.372
 4.564 	0.091 	0.034
 4.386 	0.479 	0.027
 3.647 	0.047 	0.549
 3.452 	0.747 	0.961
 3.328 	0.450 	0.987
 3.967 	0.145 	-0.038
 4.152 	0.673 	-0.382
 3.515 	0.020 	0.432
 3.653 	-0.396 	0.283
 4.403 	-0.247 	-0.740
 4.665 	0.207 	0.785
 4.714 	-0.062 	0.530
 4.799 	-0.058 	0.277
 4.103 	0.335 	0.313
 4.111 	0.032 	0.353
 3.758 	0.266 	0.549
 3.357 	0.119 	0.427
 3.911 	0.126 	0.547
 4.353 	0.066 	-0.110
 4.540 	0.354 	-0.177
 4.539 	0.442 	0.244
 4.421 	0.053 	0.023
 4.614 	-0.008 	0.234
 4.669 	-0.092 	0.005
 4.570 	-0.248 	-0.029
 4.353 	0.650 	-0.096
 5.033 	0.505 	-0.085
 5.393 	-0.424 	0.047
 5.550 	0.062 	-0.080
 5.447 	-0.236 	0.025
 5.830 	-0.063 	-0.033
 5.230 	0.127 	-0.051
 4.616 	-0.386 	0.016
 4.590 	-0.511 	0.282
 4.893 	-0.091 	0.540
 4.441 	0.692 	0.023
 5.075 	0.339 	-0.277
 5.089 	0.279 	-0.015
 4.284 	-0.171 	0.441
 4.308 	-0.037 	0.085
 4.249 	-0.578 	0.435
 4.137 	-0.106 	0.447
 4.506 	0.284 	0.668
 5.162 	0.207 	0.333
 5.324 	-0.301 	-0.340
 5.678 	-0.108 	-0.615
 5.905 	0.013 	-0.082
 6.229 	0.145 	-0.609
 5.455 	-0.132 	-0.114
 4.982 	-0.237 	0.382
 4.965 	-0.043 	0.282
 4.644 	0.476 	0.367
 4.543 	-0.010 	0.319
 5.102 	0.598 	-0.313
 5.451 	0.696 	-0.466
 5.261 	-0.241 	-0.270
 4.835 	-0.490 	-0.115
 5.142 	0.109 	-0.134
 4.805 	0.079 	-0.157
 4.516 	-0.286 	0.261
 5.234 	-0.234 	-0.774
 4.988 	-0.272 	-0.495
 5.377 	0.087 	-0.670
 5.499 	0.355 	-0.050
 5.795 	0.449 	-0.006
 5.179 	0.059 	-0.368
 5.144 	0.310 	-0.428
 5.261 	0.309 	0.088
 4.964 	0.242 	0.004
 4.582 	0.279 	-0.019
 4.401 	0.288 	-0.156
 4.619 	-0.134 	-0.159
 4.717 	-0.454 	-0.047
 4.933 	-0.121 	-0.343
 5.162 	0.013 	-0.398
 5.882 	0.069 	-0.581
 4.377 	0.132 	0.455
 4.873 	-0.829 	-0.016
 5.221 	0.195 	0.317
 4.982 	0.012 	0.025
 4.925 	0.438 	-0.386
 4.748 	0.032 	-0.283
 4.642 	-0.332 	-0.565
 4.757 	0.133 	-0.547
 4.666 	0.669 	0.238
 4.368 	0.178 	0.449
 4.442 	-0.258 	0.521
 4.512 	-0.463 	-0.025
 4.683 	-0.922 	-0.185
 5.309 	-0.767 	-0.545
 5.287 	-0.273 	-0.327
 5.350 	0.036 	-0.528
 3.585 	-0.816 	0.141
 3.603 	-1.554 	-0.025
 3.897 	-0.013 	0.074
 4.024 	0.210 	-0.132
 4.175 	0.137 	-0.072
 4.512 	0.163 	0.202
 4.215 	0.058 	-0.128
 4.497 	0.174 	-0.709
 4.916 	0.746 	-0.499
 4.970 	0.270 	-0.406
 5.144 	0.234 	-0.234
 4.640 	-0.457 	-0.070
 4.737 	-0.804 	-0.167
 4.841 	-0.297 	-0.094
 4.523 	0.247 	0.361
 5.199 	0.391 	-0.309
 4.131 	-0.368 	-0.286
 4.473 	-0.914 	-0.050
 4.078 	-0.818 	-0.002
 3.950 	0.340 	0.228
 3.968 	-0.372 	0.610
 3.860 	-0.346 	0.422
 4.220 	-0.009 	0.537
 3.830 	0.459 	-0.182
 4.316 	0.421 	0.174
 4.365 	0.431 	0.027
 4.786 	0.360 	-0.436
 4.836 	-0.169 	-0.616
 5.105 	0.191 	-0.700
 4.529 	-0.155 	0.175
 4.962 	0.298 	-0.079
 5.203 	0.370 	-0.257
 4.392 	-0.520 	-0.013
 3.515 	-0.945 	0.371
 3.630 	-0.598 	0.050
 3.824 	0.517 	0.065
 2.953 	0.008 	0.498
 3.008 	-0.519 	-0.045
 3.375 	-0.403 	0.583
 3.024 	-0.216 	0.704
 3.437 	0.601 	0.298
 4.245 	0.707 	-0.596
 4.032 	0.159 	-0.546
 4.353 	0.177 	0.046
 4.567 	0.719 	0.100
 4.539 	-0.164 	0.074
 4.627 	0.096 	0.108
 4.338 	0.092 	0.100
 4.931 	-0.912 	0.368
 4.970 	-1.026 	0.150
 4.227 	0.142 	-0.221
 3.357 	0.716 	0.624
 3.578 	0.264 	0.191
 3.654 	0.302 	-0.232
 3.542 	-0.345 	0.329
 3.113 	0.049 	0.367
 3.223 	0.256 	0.224
 3.860 	0.536 	-0.256
 4.026 	1.091 	-0.013
 4.333 	1.040 	-0.727
 4.711 	0.428 	-0.486
 4.750 	-0.004 	-0.271
 4.404 	-0.563 	0.203
 4.513 	-0.250 	0.306
 4.449 	-0.062 	0.491
 4.231 	-0.126 	0.015
 4.112 	-0.522 	-0.092
 4.254 	0.033 	-0.082
 4.161 	0.019 	-0.171
 4.454 	-0.180 	-0.041
 4.381 	-0.110 	0.347
 3.722 	-0.402 	0.319
 3.895 	-0.364 	0.412
 4.224 	0.325 	-0.556
 4.046 	0.980 	-0.427
 4.340 	0.583 	-0.452
 4.858 	0.553 	-0.121
 4.564 	0.491 	-0.235
 4.578 	0.145 	-0.132
 5.042 	0.056 	-0.478
 4.565 	0.055 	0.258
 4.184 	0.190 	0.281
 4.371 	-0.346 	-0.024
 4.206 	-0.386 	-0.018
 4.021 	-0.296 	-0.079
 4.215 	0.138 	-0.147
 4.003 	-0.132 	-0.007
 3.761 	-0.495 	0.180
 3.677 	-0.573 	0.121
 3.591 	-0.301 	0.028
 4.053 	0.220 	0.178
 4.198 	0.255 	0.235
 4.631 	0.387 	-0.051
 4.905 	0.535 	-0.322
 3.931 	-0.678 	0.237
 4.274 	0.132 	-0.211
 4.359 	-0.283 	0.204
 4.180 	-0.176 	-0.168
 4.377 	-0.537 	0.131
 4.438 	-0.591 	0.058
 4.410 	-0.116 	-0.476
 4.084 	-0.127 	-0.185
 3.408 	0.014 	0.091
 3.528 	-0.492 	0.128
 3.420 	-0.721 	0.115
 3.661 	-0.700 	0.296
 3.676 	-1.042 	0.221
 4.114 	-0.850 	-0.274
 4.234 	0.337 	-0.250
 4.715 	0.808 	-0.576
 4.588 	0.092 	0.345
 3.958 	-0.572 	0.497
 6.496 	1.091 	-0.094
 6.791 	-0.050 	0.081
 7.307 	0.267 	-0.725
 6.398 	-0.164 	0.320
 5.967 	0.012 	0.581
 6.353 	0.424 	0.430
 6.512 	1.664 	0.815
 7.127 	0.741 	-0.051
 7.189 	1.760 	0.276
 5.964 	0.718 	0.344
 6.553 	1.738 	-0.822
 6.186 	0.874 	-0.311
 6.438 	0.704 	-0.146
 6.446 	0.404 	-0.456
 6.784 	-0.127 	-0.535
 6.542 	0.537 	-0.781
 7.422 	0.881 	-0.627
 7.014 	0.306 	-0.589
 6.952 	0.496 	-0.739
 7.395 	1.140 	0.027
 7.813 	0.180 	0.118
 6.106 	0.585 	0.750
 6.453 	1.044 	0.863
 6.867 	1.413 	0.407
 5.904 	1.247 	0.455
 6.297 	0.587 	-0.121
 6.363 	0.871 	0.102
 6.421 	0.810 	-0.174
 6.181 	0.348 	-0.216
 5.842 	-0.080 	-0.516
 5.504 	-0.496 	-0.089
 5.955 	0.543 	-1.131
 7.379 	0.846 	-0.268
 7.348 	1.458 	-0.025
 5.839 	0.036 	0.277
 5.174 	0.183 	1.031
 5.222 	0.666 	0.755
 5.153 	-0.199 	0.666
 4.777 	-0.040 	0.490
 5.242 	0.266 	-0.225
 5.963 	0.958 	-0.176
 5.273 	0.766 	0.960
 5.274 	0.558 	0.635
 5.236 	0.498 	0.205
 5.057 	0.467 	-0.745
 4.130 	-0.065 	0.062
 4.318 	-0.273 	0.314
 4.027 	-0.818 	0.600
 6.322 	1.195 	0.400
 6.042 	1.589 	-0.305
 5.591 	0.661 	0.807
 5.105 	0.166 	1.050
 4.845 	0.072 	0.521
 4.849 	-0.456 	0.254
 4.719 	-0.397 	0.352
 3.855 	0.519 	0.791
 4.026 	-0.071 	0.866
 4.824 	0.417 	-0.257
 4.735 	0.970 	0.013
 5.189 	0.915 	0.070
 5.224 	0.457 	-0.864
 5.739 	0.518 	-0.502
 5.674 	0.386 	-0.178
 6.152 	-0.128 	0.667
 5.435 	0.646 	-0.049
 5.266 	1.218 	0.867
 5.445 	0.426 	0.898
 5.705 	0.042 	0.706
 5.250 	-0.059 	0.543
 4.766 	-0.384 	0.314
 4.354 	-0.182 	0.238
 4.518 	-0.057 	0.576
 4.444 	0.097 	0.678
 4.248 	0.294 	0.669
 4.159 	0.447 	0.711
 4.279 	0.813 	0.727
 4.416 	0.626 	0.304
 4.811 	0.297 	-0.140
 5.330 	0.323 	0.055
 5.975 	0.369 	-0.391
 5.056 	1.419 	0.208
 5.257 	0.680 	-0.052
 5.535 	0.336 	0.192
 5.780 	-0.185 	0.512
 5.648 	-0.235 	0.433
 5.131 	-0.063 	0.348
 5.538 	0.026 	-0.037
 5.912 	-0.868 	-0.063
 5.831 	0.070 	-0.213
 5.480 	0.138 	-0.198
 4.592 	0.202 	0.424
 4.601 	0.959 	-0.224
 4.728 	0.527 	0.318
 4.087 	-0.078 	0.630
 5.200 	0.023 	0.093
 5.309 	0.670 	-0.051
 5.354 	0.735 	0.312
 5.886 	0.056 	-0.040
 6.213 	0.059 	-0.318
 6.002 	-0.069 	-0.233
 5.413 	0.267 	0.292
 5.428 	0.149 	0.363
 5.270 	-0.557 	0.016
 5.505 	-0.497 	0.296
 5.640 	0.108 	-0.162
 5.360 	-0.193 	-0.109
 6.242 	0.217 	-0.313
 5.364 	0.753 	-0.174
 5.112 	0.873 	-0.365
 4.970 	0.398 	-0.679
 5.220 	0.960 	-0.516
 5.380 	0.555 	-0.269
 5.025 	-0.680 	-0.004
 4.970 	-1.019 	-0.012
 5.335 	-0.403 	-0.428
 5.363 	-0.334 	0.150
 5.486 	0.252 	0.014
 5.533 	0.037 	0.088
 5.587 	-0.008 	-0.416
 5.483 	0.158 	0.073
 5.058 	0.101 	0.108
 5.294 	-0.148 	-0.249
 4.697 	0.351 	-0.009
 4.914 	0.975 	0.138
 5.173 	1.039 	-0.296
 5.697 	0.399 	-0.356
 6.207 	0.190 	-0.681
 5.916 	0.825 	-0.167
 4.158 	-0.457 	0.494
 4.897 	-0.929 	-0.140
 4.677 	-0.438 	0.103
 4.754 	-0.112 	0.023
 4.623 	0.080 	0.256
 5.184 	0.165 	-0.030
 5.094 	-0.117 	-0.323
 4.905 	-0.168 	-0.298
 4.906 	0.284 	0.015
 4.614 	0.505 	0.178
 4.331 	0.413 	0.374
 4.751 	0.846 	-0.031
 4.902 	0.736 	-0.368
 5.069 	0.041 	-0.271
 5.684 	-0.074 	-0.100
 6.069 	0.163 	-0.235
 4.783 	-0.838 	-0.000
 4.325 	-0.617 	-0.032
 3.835 	-1.009 	0.412
 4.046 	-0.292 	0.551
 4.146 	-0.443 	0.264
 4.488 	-0.583 	-0.124
 5.020 	-0.854 	-0.563
 5.146 	-0.242 	-1.014
 5.127 	0.608 	-0.389
 4.970 	0.753 	-0.084
 4.505 	0.929 	-0.507
 4.600 	0.762 	-0.473
 5.520 	0.576 	-0.686
 5.931 	-0.023 	-0.766
 5.787 	-0.417 	-0.354
 5.781 	-0.161 	-0.433
 5.991 	-0.481 	-0.443
 5.130 	-0.312 	0.426
 4.603 	-0.720 	-0.322
 3.734 	-0.367 	0.808
 2.954 	-0.563 	0.487
 3.534 	-0.583 	0.260
 3.856 	-1.126 	0.051
 4.536 	-0.455 	-0.281
 4.620 	0.563 	-0.692
 4.898 	0.637 	-0.405
 5.099 	0.776 	-0.478
 5.472 	0.792 	-0.811
 5.606 	0.245 	-0.745
 5.551 	0.701 	-0.186
 5.253 	0.102 	-0.159
 5.001 	0.379 	0.267
 5.268 	-0.118 	0.377
 5.000 	-0.259 	0.541
 5.027 	-0.799 	0.319
 4.536 	-0.209 	0.209
 3.589 	-0.207 	0.539
 4.316 	-0.510 	0.084
 3.916 	-0.079 	0.250
 4.072 	-0.789 	1.265
 4.419 	0.362 	-0.369
 4.629 	0.964 	-0.663
 4.784 	0.367 	-0.717
 5.251 	0.727 	-0.615
 4.753 	-0.040 	-0.040
 4.400 	0.378 	0.496
 4.417 	0.286 	0.620
 4.401 	0.113 	0.408
 6.493 	0.224 	-0.112
 6.021 	0.169 	0.026
 5.549 	-0.487 	0.321
 5.222 	-0.245 	0.633
 5.257 	-0.746 	0.298
 4.967 	-0.867 	-0.454
 5.214 	0.321 	0.324
 5.404 	0.230 	-0.286
 4.847 	0.214 	0.543
 4.375 	0.671 	-0.478
 4.996 	0.515 	-0.602
 5.434 	0.371 	-0.834
 5.214 	0.729 	-0.555
 4.712 	0.319 	-0.342
 4.631 	0.337 	0.197
 4.751 	0.128 	-0.548
 6.114 	0.615 	0.137
 6.119 	0.349 	0.017
 5.943 	0.000 	0.176
 5.373 	-0.280 	0.613
 5.037 	-0.678 	-0.119
 4.104 	-0.107 	0.339
 3.953 	0.483 	0.687
 4.888 	0.808 	0.476
 4.768 	0.240 	0.529
 4.871 	0.178 	0.043
 5.210 	0.399 	-0.013
 4.960 	0.554 	-0.318
 4.847 	0.680 	-0.383
 4.957 	0.772 	-0.035
 5.322 	0.138 	-0.307
 5.197 	0.208 	-0.871
 4.965 	0.297 	0.662
 4.974 	-0.169 	0.451
 5.215 	-0.309 	-0.202
 5.402 	-0.155 	0.075
 4.679 	0.452 	-0.071
 4.576 	0.186 	-0.111
 4.041 	-0.065 	0.269
 4.449 	0.082 	0.041
 4.653 	0.052 	0.375
 4.234 	0.024 	0.211
 4.244 	-0.002 	0.376
 4.620 	0.390 	0.211
 4.720 	0.938 	-0.371
 5.193 	0.263 	-0.183
 4.757 	0.222 	-0.071
 5.235 	0.205 	0.008
 4.318 	-0.492 	0.331
 4.099 	-0.522 	0.180
 4.412 	-0.297 	0.177
 4.670 	0.053 	0.428
 4.796 	0.715 	-0.300
 4.866 	0.424 	-0.037
 4.966 	-0.027 	0.174
 4.637 	-0.443 	0.183
 4.751 	-0.264 	0.140
 4.315 	0.471 	0.063
 4.100 	-0.204 	0.703
 4.265 	0.238 	0.498
 4.388 	-0.082 	0.789
 5.073 	0.560 	-0.343
 4.990 	0.610 	0.439
 5.373 	0.422 	0.313
 7.270 	0.689 	-0.223
 7.207 	-0.570 	-0.538
 8.165 	0.124 	-0.426
 7.051 	-0.149 	-0.765
 6.671 	-0.197 	0.485
 7.120 	0.636 	0.513
 7.081 	1.001 	0.660
 7.101 	0.908 	0.006
 6.194 	1.193 	0.806
 6.488 	1.175 	0.831
 7.076 	0.707 	0.102
 7.045 	1.575 	-0.028
 7.104 	1.421 	0.203
 6.389 	1.488 	-0.163
 6.835 	0.852 	-0.259
 7.283 	0.523 	-0.879
 6.875 	0.676 	-0.108
 6.749 	0.129 	-1.202
 5.227 	-0.575 	0.376
 5.540 	0.280 	0.381
 5.418 	-0.315 	0.650
 5.535 	0.465 	1.479
 5.640 	0.675 	0.385
 6.266 	1.196 	0.400
 5.985 	0.678 	0.884
 6.310 	0.724 	0.529
 5.901 	0.129 	0.425
 6.015 	-0.060 	-0.158
 6.570 	0.311 	0.214
 6.698 	0.973 	0.230
 6.458 	-0.247 	-0.117
 7.162 	0.922 	-0.977
 7.027 	0.892 	-0.459
 7.632 	0.677 	-0.295
 6.200 	0.350 	1.015
 5.275 	0.057 	1.208
 5.198 	0.181 	1.323
 5.182 	-0.147 	0.560
 5.464 	1.018 	0.443
 5.701 	0.384 	1.243
 5.920 	0.133 	0.566
 5.757 	0.367 	0.675
 5.674 	-0.349 	0.668
 5.560 	0.651 	0.336
 6.066 	0.179 	0.045
 5.782 	0.710 	-0.186
 5.032 	-0.053 	0.564
 4.840 	-0.121 	0.586
 7.719 	1.475 	0.257
 6.544 	1.034 	0.199
 5.652 	1.111 	1.750
 5.585 	0.117 	1.137
 5.231 	0.197 	0.712
 4.768 	-0.104 	0.664
 4.302 	-0.073 	0.685
 4.629 	-0.307 	0.662
 4.621 	-0.144 	0.477
 5.045 	-0.095 	0.534
 4.786 	-0.722 	0.644
 5.697 	0.192 	-0.026
 5.933 	-0.152 	-0.493
 6.181 	0.911 	-0.243
 5.615 	0.169 	0.084
 5.004 	0.201 	0.516
 7.252 	1.116 	0.345
 6.034 	1.757 	1.109
 5.864 	1.617 	0.895
 6.035 	-0.038 	0.923
 5.895 	0.154 	0.850
 5.401 	-0.134 	0.785
 5.204 	0.145 	0.055
 4.741 	-0.029 	0.683
 4.193 	-0.064 	1.044
 4.887 	-0.172 	0.923
 5.168 	-0.288 	0.461
 5.700 	-0.808 	-0.042
 5.516 	0.003 	0.403
 5.789 	-0.162 	-0.487
 6.414 	0.715 	-0.434
 6.191 	0.122 	0.120
 6.427 	0.711 	0.669
 6.589 	1.314 	0.979
 7.452 	1.480 	0.548
 6.222 	0.152 	0.786
 5.916 	-0.225 	0.678
 5.914 	-0.059 	0.746
 5.612 	-0.189 	0.328
 5.864 	-0.446 	-0.163
 5.783 	-0.362 	-0.189
 5.803 	-0.428 	-0.091
 6.228 	-0.151 	0.027
 6.103 	-0.234 	-0.150
 6.120 	0.263 	0.039
 6.073 	-0.474 	0.023
 6.264 	0.132 	-0.441
 6.429 	0.792 	-0.148
 5.158 	0.260 	0.841
 5.472 	0.256 	0.453
 6.322 	0.408 	-0.048
 6.381 	0.074 	0.123
 6.385 	-0.189 	0.040
 6.204 	-0.022 	-0.099
 6.617 	0.000 	-0.181
 5.998 	-0.236 	0.062
 6.069 	-0.191 	-0.518
 5.773 	-0.720 	-0.401
 6.151 	-0.010 	-0.208
 6.379 	0.040 	-0.156
 6.509 	0.241 	-1.074
 7.024 	0.534 	-1.087
 6.262 	0.318 	0.143
 6.278 	0.968 	-0.060
 5.378 	0.542 	0.806
 5.506 	-0.633 	0.177
 5.587 	-0.789 	0.384
 5.914 	-0.086 	0.421
 6.013 	-0.095 	0.214
 6.083 	0.067 	-0.204
 6.096 	0.124 	-0.310
 5.755 	0.233 	0.331
 5.478 	-0.040 	-0.194
 5.585 	-0.356 	-0.203
 5.218 	-0.437 	-0.167
 5.276 	-0.106 	-0.172
 5.922 	0.428 	-0.173
 5.902 	0.788 	-0.482
 5.706 	0.147 	-0.173
 6.006 	0.300 	-0.018
 5.621 	0.467 	0.178
 5.835 	-0.364 	0.025
 6.900 	-0.934 	-0.602
 6.363 	-0.849 	0.037
 5.339 	-0.471 	0.073
 5.469 	0.158 	-0.395
 5.215 	0.007 	-0.309
 5.292 	0.167 	0.065
 5.416 	0.084 	0.155
 5.184 	0.477 	-0.019
 5.048 	0.165 	-0.054
 5.560 	0.031 	-0.466
 5.660 	0.161 	-0.446
 5.413 	0.666 	-0.057
 5.400 	0.397 	-0.140
 5.598 	0.249 	0.293
 5.383 	-0.870 	0.220
 5.439 	-0.300 	0.019
 4.383 	-0.958 	0.516
 3.798 	-0.882 	0.904
 4.665 	-0.231 	0.316
 4.933 	0.246 	-0.140
 5.172 	0.043 	-0.105
 4.970 	-0.309 	-0.283
 5.457 	0.044 	-0.350
 5.619 	0.736 	0.002
 5.805 	0.400 	-0.434
 5.620 	0.279 	-0.432
 6.113 	0.153 	-0.661
 6.308 	0.600 	-0.939
 6.506 	0.178 	-0.794
 6.052 	-0.348 	-0.367
 6.533 	-0.340 	-0.357
 5.357 	-0.685 	0.933
 5.000 	-0.013 	0.399
 4.845 	-0.356 	1.117
 4.754 	-0.570 	0.326
 5.178 	-0.123 	-0.433
 4.992 	-0.023 	-0.131
 5.401 	-1.008 	-0.055
 5.090 	-0.168 	-0.385
 5.479 	0.321 	-0.525
 5.433 	-0.061 	-0.387
 5.498 	0.196 	-0.361
 4.795 	-0.378 	-0.205
 4.880 	-0.135 	-0.099
 4.964 	0.445 	0.117
 4.478 	-0.651 	0.664
 5.615 	-0.101 	0.521
 5.634 	0.069 	0.282
 5.330 	-0.436 	0.752
 5.389 	-0.158 	0.701
 5.028 	-0.357 	0.362
 5.147 	-0.125 	0.052
 5.589 	-0.217 	-0.144
 5.123 	-0.661 	0.906
 5.609 	-0.488 	0.096
 5.637 	-0.358 	-0.417
 5.595 	-0.209 	-0.264
 5.168 	-0.187 	-0.132
 5.144 	0.351 	-0.441
 4.275 	0.180 	0.358
 4.568 	-0.041 	0.503
 4.735 	-0.260 	0.377
 6.116 	0.332 	-0.169
 6.544 	0.412 	-0.280
 5.686 	0.046 	0.635
 6.245 	-0.191 	0.850
 5.759 	0.039 	0.468
 5.977 	-0.609 	-0.041
 5.903 	-0.532 	-0.022
 5.984 	-0.459 	-0.590
 5.588 	0.106 	0.632
 5.918 	0.075 	-0.669
 6.208 	-0.185 	-0.609
 5.908 	0.129 	-0.454
 5.614 	0.383 	-0.471
 5.597 	0.871 	-0.348
 6.211 	-0.003 	-0.283
 5.935 	0.426 	-0.458
 5.297 	-0.598 	-0.238
 6.032 	0.299 	-0.393
 6.616 	0.631 	0.224
 6.316 	0.357 	0.812
 6.295 	-0.312 	-0.364
 6.131 	-0.124 	-0.020
 5.415 	-0.530 	0.691
 5.087 	-0.131 	0.197
 5.387 	0.310 	-0.043
 5.464 	-0.452 	-0.163
 5.748 	-0.123 	-0.207
 5.972 	0.031 	-0.442
 5.549 	0.497 	-0.310
 5.600 	0.375 	-0.117
 5.771 	0.712 	-0.527
 5.538 	0.803 	-0.433
 4.800 	-0.730 	1.124
 4.962 	-0.068 	1.398
 6.070 	0.592 	0.816
 6.050 	0.433 	-0.074
 6.295 	0.088 	-0.275
 5.358 	0.513 	0.307
 4.831 	-0.390 	0.430
 4.484 	-0.448 	0.701
 4.593 	-0.114 	0.859
 4.779 	-0.679 	0.607
 4.883 	-0.129 	0.306
 4.981 	-0.041 	0.188
 5.156 	0.335 	-0.250
 5.588 	0.567 	-0.456
 5.488 	0.472 	-0.062
 6.176 	1.127 	-0.676
 4.501 	-0.243 	-0.182
 4.580 	-0.488 	-0.122
 4.555 	-0.432 	-0.036
 5.120 	-0.316 	0.227
 4.683 	0.223 	-0.048
 4.844 	0.327 	0.032
 5.272 	-0.021 	-0.038
 5.085 	-0.052 	0.115
 4.873 	-0.264 	-0.033
 4.904 	-0.975 	-0.009
 4.421 	-0.003 	1.102
 4.624 	0.222 	0.230
 5.042 	0.203 	0.287
 5.354 	-0.020 	-0.722
 5.540 	0.287 	0.198
 5.424 	1.308 	0.216
 7.347 	0.680 	0.263
 7.430 	0.338 	-0.619
 8.157 	0.515 	-0.653
 8.108 	1.000 	-0.539
 8.022 	-0.123 	1.065
 7.350 	0.622 	0.634
 6.879 	0.985 	0.768
 6.665 	0.711 	0.384
 6.228 	0.487 	0.079
 6.739 	0.579 	0.327
 7.102 	0.764 	0.617
 7.038 	1.256 	0.374
 7.210 	2.060 	0.399
 7.330 	1.495 	0.646
 7.841 	0.899 	-0.728
 8.247 	1.548 	-0.676
 7.218 	1.052 	-0.468
 7.305 	-0.137 	-0.517
 7.099 	-0.072 	0.154
 7.542 	1.243 	0.488
 6.226 	-0.265 	1.047
 5.898 	-0.136 	1.035
 6.083 	0.976 	0.422
 6.153 	0.813 	-0.039
 5.728 	0.368 	0.916
 6.425 	0.941 	1.247
 6.555 	0.935 	0.790
 6.616 	0.963 	0.487
 7.308 	1.376 	0.633
 7.087 	1.340 	0.523
 7.410 	1.398 	0.462
 7.287 	1.223 	-0.300
 6.319 	-0.578 	-0.581
 6.572 	0.290 	0.461
 6.157 	0.770 	0.992
 6.307 	1.125 	1.093
 5.686 	-0.010 	1.195
 5.112 	-0.213 	1.263
 5.651 	0.915 	1.193
 5.942 	1.046 	1.840
 5.541 	0.717 	0.594
 6.006 	-0.211 	0.391
 6.428 	0.307 	0.701
 6.738 	-0.063 	0.057
 7.243 	0.491 	0.358
 6.032 	1.526 	0.347
 5.403 	-0.042 	1.022
 6.315 	0.841 	0.244
 6.291 	-0.187 	-0.152
 6.885 	0.320 	1.050
 5.554 	1.108 	1.335
 5.231 	0.522 	1.159
 5.278 	0.353 	1.172
 5.108 	-0.490 	1.207
 5.343 	-0.272 	0.443
 6.058 	0.092 	0.389
 6.292 	1.242 	0.417
 5.776 	-0.462 	0.931
 6.078 	-0.370 	0.578
 7.127 	0.349 	0.065
 6.672 	0.366 	-0.064
 6.487 	1.394 	0.062
 6.342 	0.608 	0.377
 6.381 	0.973 	-0.323
 6.570 	0.049 	0.581
 6.686 	0.772 	0.334
 6.079 	1.408 	1.273
 6.078 	0.217 	1.551
 6.760 	-0.270 	0.757
 5.632 	-0.049 	0.836
 5.164 	-0.353 	0.596
 5.330 	0.070 	0.586
 5.172 	1.152 	0.903
 5.996 	-0.463 	0.500
 6.326 	-1.010 	-0.065
 5.935 	-0.356 	0.162
 6.470 	0.643 	0.130
 6.801 	1.311 	-0.324
 6.965 	0.883 	-0.550
 6.616 	1.116 	-0.504
 4.835 	-0.493 	0.541
 5.558 	-0.147 	1.107
 6.694 	1.346 	0.876
 6.696 	0.496 	1.155
 6.563 	0.571 	0.667
 6.367 	0.283 	0.330
 6.218 	-0.469 	0.455
 6.213 	-0.235 	0.178
 6.007 	0.181 	0.187
 6.138 	-0.857 	-0.099
 6.197 	-0.747 	-0.041
 6.250 	-0.341 	0.255
 6.405 	0.488 	-0.169
 6.903 	0.906 	-0.809
 7.122 	0.972 	-0.597
 6.922 	1.268 	-0.502
 5.353 	0.430 	0.904
 5.446 	-0.304 	0.822
 6.134 	-0.267 	0.748
 6.702 	0.103 	0.386
 6.860 	-0.039 	0.183
 6.602 	0.098 	0.113
 6.543 	-0.096 	0.067
 6.091 	-0.481 	0.138
 6.255 	-0.083 	-0.075
 6.499 	-0.738 	-0.382
 6.017 	-0.810 	-0.246
 6.171 	-0.483 	-0.606
 6.248 	0.006 	-0.565
 6.959 	0.778 	-0.815
 6.596 	0.921 	-0.296
 6.723 	0.453 	0.068
 6.457 	0.516 	0.631
 5.800 	-0.053 	0.128
 5.887 	-1.213 	0.341
 6.377 	-0.668 	0.689
 6.326 	-0.051 	0.303
 6.410 	0.037 	-0.037
 6.112 	-0.436 	0.049
 5.825 	-0.791 	0.204
 6.003 	-0.670 	-0.010
 6.396 	-0.754 	-0.606
 6.473 	-0.472 	-0.405
 6.192 	-0.307 	-0.385
 6.333 	-0.964 	-0.117
 6.421 	0.072 	-0.408
 6.365 	0.821 	-0.251
 7.266 	0.175 	-0.169
 5.207 	0.434 	0.004
 6.377 	-0.796 	-0.020
 5.650 	-1.229 	0.260
 5.629 	-0.430 	0.379
 6.077 	-0.110 	0.089
 6.004 	0.174 	-0.151
 5.991 	-0.046 	0.051
 5.819 	-0.473 	-0.009
 5.993 	-0.995 	-0.107
 6.366 	-1.134 	-0.357
 6.726 	-0.200 	-0.952
 6.690 	0.031 	-0.934
 6.359 	-0.448 	-0.432
 5.789 	0.115 	0.276
 5.799 	0.087 	0.305
 5.941 	0.142 	0.209
 5.893 	-0.382 	0.176
 6.496 	-1.214 	-0.048
 6.041 	-0.540 	0.196
 5.799 	-0.627 	1.020
 5.344 	0.064 	0.477
 5.442 	0.224 	-0.086
 5.658 	-0.415 	-0.194
 5.853 	-0.806 	-0.110
 6.410 	-0.446 	-0.494
 6.320 	-0.444 	-0.373
 6.004 	-0.388 	-0.139
 5.972 	-0.251 	-0.134
 6.239 	-0.261 	-0.809
 6.264 	0.335 	-0.286
 6.573 	0.000 	-0.132
 6.402 	-0.065 	0.002
 6.552 	-0.430 	0.007
 5.841 	-0.586 	0.457
 5.538 	0.089 	0.702
 6.545 	-0.186 	1.005
 5.591 	0.239 	0.210
 5.759 	0.037 	-0.487
 5.692 	-0.418 	-0.304
 5.337 	-0.686 	0.173
 5.805 	-0.430 	-0.043
 6.086 	0.149 	-0.375
 5.831 	0.088 	-0.273
 5.605 	-0.266 	-0.330
 5.526 	-0.300 	-0.154
 5.349 	0.014 	-0.083
 5.431 	-0.315 	0.016
 5.706 	-0.127 	0.087
 6.345 	-0.377 	0.019
 6.251 	0.064 	0.449
 6.046 	-0.027 	0.494
 5.952 	0.165 	0.519
 5.963 	-0.133 	0.759
 6.063 	-0.148 	0.308
 6.600 	-0.327 	-0.390
 6.216 	-0.440 	-0.031
 5.987 	-0.422 	-0.173
 5.710 	0.096 	-0.058
 5.850 	-0.242 	-0.167
 5.590 	-0.061 	-0.275
 5.468 	-0.086 	-0.220
 5.823 	0.364 	-0.240
 5.180 	0.567 	0.154
 5.594 	-0.048 	-0.256
 6.337 	0.017 	0.129
 6.389 	-0.009 	-0.309
 6.137 	0.756 	0.477
 6.206 	0.382 	0.632
 6.118 	0.024 	0.696
 6.225 	-0.454 	0.032
 6.336 	-0.179 	-0.175
 6.389 	-0.238 	-0.261
 6.115 	-0.526 	0.208
 6.003 	-0.349 	-0.312
 6.296 	-0.065 	-0.464
 6.076 	-0.113 	-0.460
 5.880 	0.241 	-0.283
 5.576 	0.457 	-0.270
 6.046 	0.201 	-0.683
 5.366 	0.413 	-0.429
 5.761 	-0.362 	-0.282
 5.589 	0.081 	-0.352
 6.060 	0.886 	0.297
 6.349 	0.438 	0.138
 6.320 	-0.188 	0.008
 5.762 	-0.113 	0.147
 5.231 	-0.364 	0.303
 5.225 	-0.464 	0.475
 4.968 	-1.012 	0.225
 5.547 	-0.628 	-0.541
 5.812 	-0.743 	-0.582
 6.286 	-0.088 	-0.410
 6.279 	0.259 	-0.191
 5.938 	0.444 	-0.053
 6.231 	0.405 	-0.646
 5.760 	0.721 	-0.492
 5.577 	-1.012 	0.413
 5.839 	-0.062 	0.240
 5.576 	0.780 	0.477
 5.228 	-0.377 	0.528
 5.179 	-0.179 	0.285
 5.220 	-0.011 	0.463
 4.975 	-0.110 	0.315
 4.683 	-0.386 	0.751
 4.917 	-0.838 	0.423
 5.177 	-0.493 	0.331
 5.298 	-0.576 	0.323
 5.165 	-0.519 	-0.065
 5.502 	0.056 	-0.044
 5.741 	0.353 	-0.224
 5.851 	0.429 	-0.033
 5.536 	0.960 	-0.501
 5.632 	-0.630 	-0.629
 5.285 	-0.148 	0.220
 5.253 	0.088 	0.460
 5.169 	0.252 	0.781
 5.146 	-0.483 	-0.009
 5.106 	-0.528 	0.190
 5.382 	-0.190 	0.004
 5.600 	-0.302 	-0.013
 5.132 	-0.022 	0.308
 4.912 	-0.261 	0.581
 5.134 	-0.379 	0.613
 4.760 	-0.280 	0.272
 5.067 	-0.210 	0.150
 5.521 	-0.134 	-0.211
 5.744 	0.290 	-0.098
 5.930 	0.371 	-0.262
 7.055 	0.288 	0.053
 7.266 	-0.787 	-0.467
 7.333 	-0.507 	-0.608
 7.373 	0.125 	0.123
 7.786 	-0.267 	1.010
 7.700 	0.393 	1.079
 7.435 	0.844 	0.794
 7.412 	1.282 	0.762
 7.308 	0.738 	0.676
 7.169 	0.956 	0.461
 7.664 	1.118 	0.543
 8.020 	0.708 	-0.201
 7.961 	0.968 	0.184
 8.296 	1.639 	-0.642
 8.407 	1.680 	-0.848
 8.214 	1.227 	-0.801
 6.786 	0.109 	0.295
 6.960 	-1.151 	-0.436
 6.499 	0.030 	-0.101
 6.289 	0.285 	1.957
 6.220 	0.018 	1.351
 6.207 	0.237 	1.083
 5.815 	0.218 	0.788
 6.340 	0.840 	0.644
 6.658 	0.858 	0.650
 6.542 	0.985 	0.686
 6.749 	0.134 	0.536
 6.626 	0.512 	0.922
 7.257 	1.402 	0.810
 7.811 	1.944 	0.773
 7.790 	1.429 	0.433
 7.695 	1.207 	-0.035
 6.415 	-0.649 	-0.465
 6.437 	-0.784 	-0.362
 6.808 	0.025 	0.093
 6.060 	-0.189 	1.460
 5.930 	0.325 	1.050
 5.437 	-0.287 	1.536
 5.580 	-0.446 	1.843
 5.969 	-0.392 	1.924
 6.401 	0.459 	0.562
 6.775 	0.560 	0.494
 7.688 	0.454 	-0.200
 7.489 	0.319 	0.182
 7.355 	0.993 	0.484
 6.988 	1.708 	0.939
 7.053 	1.854 	0.666
 7.052 	1.178 	0.474
 6.330 	-0.595 	-0.459
 6.216 	-0.073 	0.682
 6.295 	1.115 	1.032
 5.810 	0.642 	1.263
 5.655 	0.202 	1.170
 5.753 	-0.023 	1.068
 5.653 	-0.182 	1.005
 5.411 	-0.722 	0.917
 6.363 	0.003 	0.579
 6.550 	0.453 	1.000
 7.671 	1.249 	0.406
 7.675 	0.496 	0.427
 7.258 	1.300 	0.197
 6.769 	1.900 	0.334
 6.826 	1.619 	0.028
 6.859 	0.989 	0.120
 6.016 	-0.549 	0.576
 5.598 	1.158 	0.343
 5.615 	1.459 	1.115
 6.200 	0.249 	1.225
 6.329 	-0.056 	1.074
 6.701 	0.038 	0.475
 6.390 	0.246 	1.246
 6.131 	-0.442 	0.342
 6.174 	-0.239 	0.754
 6.207 	-0.049 	0.681
 6.698 	-0.528 	0.558
 7.087 	-0.133 	0.472
 7.020 	1.061 	0.322
 7.365 	1.914 	0.111
 7.572 	1.012 	-0.521