# vtk DataFile Version 3.0
HighT1
ASCII
DATASET STRUCTURED_POINTS
DIMENSIONS 16 16 19
ORIGIN 929.001000000000 929.001000000000 5.001000000000
SPACING 10.000000000000 10.000000000000 10.000000000000
POINT_DATA 4864
 FIELD attributes 1
U 3 4864 float
4.116 	1.011 	-0.094
 4.243 	1.015 	-0.036
 4.759 	1.058 	-0.568
 5.027 	1.457 	-0.204
 4.545 	1.060 	-0.188
 2.468 	0.227 	0.576
 2.826 	0.411 	0.525
 3.016 	-0.206 	0.239
 3.364 	-0.509 	0.351
 4.857 	-1.097 	-0.119
 4.861 	-1.239 	-0.325
 4.524 	-1.435 	0.255
 5.026 	-1.230 	-0.473
 4.780 	-0.190 	-0.008
 3.781 	-0.434 	0.529
 3.272 	-0.514 	0.193
 3.899 	1.211 	-0.576
 4.167 	0.994 	-0.277
 4.967 	1.151 	0.135
 4.796 	2.201 	-0.013
 3.855 	0.840 	0.028
 4.599 	1.067 	-0.702
 4.887 	0.193 	0.253
 4.765 	-0.748 	0.014
 4.662 	-1.125 	0.045
 4.543 	-0.913 	0.253
 4.843 	-1.082 	-0.260
 5.368 	-1.308 	0.011
 5.205 	-1.043 	-0.309
 5.049 	-0.334 	0.049
 4.755 	-0.171 	0.184
 3.971 	-0.005 	-0.160
 3.208 	1.368 	0.211
 3.120 	0.145 	0.141
 2.976 	0.240 	0.010
 3.650 	1.256 	0.362
 3.893 	0.716 	0.197
 4.119 	-0.574 	-0.144
 4.868 	-1.238 	-0.273
 4.976 	-0.912 	-0.152
 4.469 	-0.693 	-0.278
 5.042 	-0.977 	0.114
 4.999 	-1.384 	-0.501
 5.585 	-0.906 	-0.555
 5.567 	-0.082 	0.059
 4.204 	-0.616 	0.309
 2.808 	-0.030 	0.566
 2.388 	0.195 	0.088
 3.144 	-0.031 	0.474
 3.101 	-0.640 	0.497
 3.623 	-0.541 	0.466
 3.853 	-1.330 	0.374
 3.064 	-1.512 	0.451
 2.926 	-1.004 	0.061
 3.452 	-0.478 	0.021
 4.144 	-0.464 	0.059
 4.204 	-1.109 	-0.183
 4.473 	-0.695 	-0.649
 4.198 	0.040 	0.206
 5.017 	-0.206 	-0.442
 4.752 	0.399 	0.022
 4.618 	0.559 	-0.334
 3.779 	0.330 	0.251
 3.083 	0.159 	-0.157
 4.142 	-0.411 	0.033
 4.317 	-0.406 	-0.442
 4.863 	-0.510 	-0.752
 5.063 	0.056 	-0.514
 4.061 	-0.474 	0.079
 3.615 	-0.997 	-0.213
 3.509 	-0.912 	0.390
 4.124 	-0.566 	-0.331
 4.407 	-0.314 	-0.338
 3.873 	0.193 	-0.271
 4.082 	0.301 	-0.039
 4.387 	0.580 	0.202
 4.987 	0.873 	-0.168
 5.237 	1.559 	-0.005
 4.830 	0.799 	-0.065
 4.486 	0.294 	-0.123
 3.682 	0.392 	-0.181
 2.728 	-0.147 	0.226
 2.799 	-0.151 	0.152
 3.266 	-0.325 	0.421
 4.332 	-1.282 	0.402
 4.566 	-0.354 	-0.123
 4.144 	-0.854 	0.288
 3.367 	-0.813 	-0.096
 3.068 	0.400 	0.340
 3.406 	0.693 	-0.001
 3.392 	0.780 	-0.243
 3.320 	-0.197 	-0.021
 2.898 	0.329 	0.279
 3.476 	0.742 	0.465
 3.663 	0.468 	0.571
 3.837 	0.116 	0.003
 3.979 	0.036 	0.270
 4.140 	-0.437 	0.165
 4.155 	-0.883 	0.009
 4.361 	-0.809 	-0.437
 4.812 	-0.668 	0.022
 4.818 	-0.135 	-0.645
 3.110 	0.699 	-0.142
 2.327 	0.085 	0.080
 2.313 	-0.318 	0.369
 2.498 	-0.336 	0.505
 2.948 	0.015 	0.427
 3.475 	-0.291 	0.167
 3.652 	-0.765 	0.056
 3.967 	-0.564 	-0.114
 4.253 	-0.823 	0.039
 4.102 	-0.355 	0.212
 3.286 	0.075 	0.126
 3.071 	-0.791 	0.263
 3.379 	-1.068 	-0.249
 3.799 	-0.506 	-0.368
 4.041 	0.428 	0.119
 3.731 	0.517 	0.137
 4.589 	1.036 	-0.581
 4.378 	0.530 	-0.402
 4.314 	0.354 	-0.198
 4.162 	0.240 	-0.202
 4.316 	-0.028 	-0.192
 4.256 	-0.116 	-0.301
 4.469 	0.199 	-0.424
 4.183 	-0.156 	-0.129
 4.395 	-0.423 	0.011
 4.600 	-0.695 	-0.120
 4.790 	0.195 	-0.151
 4.941 	-0.752 	-0.251
 4.759 	-0.283 	-0.314
 4.280 	-0.052 	0.203
 3.201 	0.423 	0.271
 3.335 	0.331 	0.006
 3.676 	0.490 	0.152
 3.914 	0.316 	0.234
 3.771 	0.353 	-0.065
 4.020 	0.060 	-0.296
 4.643 	0.109 	-0.015
 4.283 	0.265 	0.283
 4.635 	0.720 	0.045
 4.369 	0.437 	-0.064
 4.505 	-0.407 	0.078
 4.761 	-0.466 	-0.134
 4.678 	0.222 	-0.449
 4.530 	-0.040 	-0.321
 4.426 	-0.133 	0.166
 4.221 	0.237 	-0.037
 3.355 	0.375 	0.297
 3.010 	0.391 	0.014
 3.189 	0.161 	0.039
 3.964 	0.427 	-0.196
 4.130 	0.088 	-0.305
 4.414 	0.178 	-0.193
 3.893 	-0.171 	-0.059
 4.179 	0.653 	0.302
 3.632 	0.231 	-0.100
 3.844 	0.140 	-0.090
 4.102 	0.164 	0.068
 4.307 	-0.749 	0.038
 4.094 	0.830 	-0.101
 4.312 	-0.473 	0.433
 3.886 	-0.549 	-0.189
 3.707 	0.316 	-0.261
 3.974 	0.995 	0.094
 4.070 	0.546 	-0.385
 4.505 	0.801 	-0.356
 3.830 	0.490 	0.017
 3.516 	0.376 	-0.137
 4.002 	0.340 	-0.229
 4.321 	0.204 	-0.524
 4.901 	-0.111 	-0.250
 5.576 	0.113 	0.073
 5.656 	-0.277 	-0.226
 4.696 	0.089 	-0.172
 4.514 	0.087 	0.101
 4.090 	-0.346 	0.088
 3.676 	-0.744 	0.485
 4.075 	-1.091 	0.219
 3.783 	0.040 	-0.080
 4.068 	0.912 	0.133
 3.994 	0.955 	0.180
 4.241 	0.652 	-0.154
 4.645 	1.054 	-0.088
 4.464 	0.632 	-0.039
 4.543 	0.840 	-0.307
 4.759 	0.454 	-0.446
 5.177 	0.371 	0.212
 4.846 	0.218 	0.107
 4.967 	0.794 	-0.082
 4.157 	0.534 	0.169
 4.555 	0.451 	0.529
 4.706 	-0.485 	-0.075
 4.479 	-0.947 	-0.145
 3.696 	-1.155 	0.140
 3.644 	0.305 	0.145
 3.525 	0.197 	0.148
 3.884 	-0.480 	0.134
 4.275 	0.302 	0.027
 4.468 	0.609 	0.005
 4.303 	0.803 	0.065
 4.372 	0.767 	-0.023
 4.254 	1.291 	0.192
 3.976 	0.511 	-0.260
 3.955 	-0.308 	-0.231
 4.039 	0.338 	0.152
 4.712 	0.581 	0.282
 4.477 	0.138 	0.531
 4.410 	-0.256 	-0.244
 4.661 	-0.626 	-0.179
 4.256 	-0.300 	0.022
 4.461 	0.207 	-0.077
 4.664 	-0.051 	-0.183
 4.499 	-0.045 	-0.074
 4.299 	-0.075 	0.050
 4.369 	0.346 	-0.216
 4.090 	0.504 	-0.260
 4.136 	0.849 	-0.016
 4.275 	0.314 	-0.087
 4.660 	-0.001 	-0.292
 5.052 	-0.318 	-0.316
 5.707 	0.120 	-0.222
 4.264 	-0.176 	0.029
 3.550 	0.557 	0.433
 3.694 	0.046 	-0.106
 4.158 	-0.143 	-0.109
 4.513 	0.184 	-0.230
 4.273 	0.072 	-0.065
 4.186 	0.081 	-0.268
 4.023 	-0.167 	0.530
 4.053 	0.234 	0.343
 3.583 	0.515 	-0.210
 3.358 	0.606 	0.128
 3.389 	-0.151 	0.331
 3.719 	-0.157 	0.250
 4.108 	-0.634 	-0.098
 4.920 	-0.136 	-0.111
 4.962 	-0.347 	-0.391
 5.529 	0.600 	-0.203
 4.678 	0.527 	0.082
 3.115 	0.329 	-0.062
 2.559 	-0.145 	0.196
 2.280 	-0.017 	0.215
 2.887 	0.521 	0.165
 2.968 	0.131 	0.205
 3.032 	0.277 	0.165
 1.900 	0.206 	0.189
 1.706 	0.270 	0.277
 2.317 	-0.633 	0.305
 2.701 	-0.720 	0.373
 3.826 	-1.128 	-0.388
 4.124 	-0.700 	0.010
 3.960 	0.076 	0.275
 4.391 	0.324 	0.101
 4.509 	0.494 	-0.030
 4.461 	0.698 	-0.241
 5.501 	-0.132 	-0.954
 4.546 	-0.271 	-0.212
 4.828 	-0.174 	-1.148
 5.687 	0.178 	-0.512
 5.475 	1.091 	-0.372
 5.178 	1.423 	-0.322
 4.455 	1.075 	0.648
 4.683 	0.058 	0.402
 4.740 	-0.213 	0.204
 4.671 	-0.343 	0.195
 4.694 	-0.631 	0.112
 5.422 	-1.005 	-0.575
 5.172 	-0.813 	0.345
 4.507 	-0.186 	0.597
 4.526 	0.461 	0.390
 4.987 	0.306 	-0.692
 4.877 	0.085 	-1.621
 4.010 	0.669 	-0.025
 3.697 	-0.011 	-0.112
 3.880 	-0.446 	0.218
 4.382 	0.439 	0.556
 5.035 	1.534 	0.259
 5.664 	1.039 	1.058
 5.599 	-0.081 	0.607
 5.112 	0.042 	0.509
 4.884 	-0.496 	0.238
 5.272 	-0.904 	-0.292
 5.402 	-0.760 	-0.343
 5.458 	-1.079 	0.215
 5.730 	-0.913 	0.036
 5.069 	0.162 	0.625
 4.537 	0.635 	0.264
 3.189 	0.244 	1.052
 4.014 	-0.460 	1.170
 4.531 	-0.715 	1.283
 5.091 	-0.742 	0.988
 4.482 	-0.033 	1.126
 4.771 	0.390 	0.878
 5.845 	-0.910 	0.435
 6.048 	-0.111 	0.813
 4.761 	0.425 	-0.167
 5.036 	-0.854 	-0.411
 5.693 	-0.937 	-0.338
 5.994 	-0.863 	-0.790
 5.069 	-1.316 	-0.022
 4.179 	-0.069 	0.877
 4.195 	0.179 	0.929
 4.151 	0.706 	0.333
 5.309 	0.328 	0.258
 5.656 	-0.079 	-0.321
 5.525 	-0.471 	-0.509
 5.391 	-0.382 	0.714
 6.133 	-0.625 	0.173
 6.170 	-0.631 	-0.311
 5.808 	-0.879 	-0.271
 4.932 	-0.336 	-0.098
 5.136 	0.590 	-1.058
 5.793 	-0.837 	-0.538
 5.997 	-1.120 	-0.473
 5.831 	-0.725 	-0.775
 6.734 	-0.554 	-0.147
 6.474 	0.380 	-1.062
 6.916 	0.856 	0.404
 5.626 	0.146 	0.599
 5.437 	0.033 	0.358
 5.500 	0.230 	-0.356
 5.576 	0.074 	-0.697
 5.489 	-0.140 	-1.563
 5.952 	-0.002 	-0.648
 5.407 	-0.356 	0.336
 5.116 	-0.670 	-0.255
 5.721 	-0.592 	-0.271
 6.278 	-0.068 	-0.899
 6.160 	-0.790 	-0.069
 5.017 	-1.679 	-0.760
 5.089 	-1.191 	-0.479
 5.724 	-0.748 	-1.495
 4.894 	-0.005 	0.860
 5.076 	0.597 	0.873
 5.462 	0.247 	0.271
 5.536 	-0.064 	-0.312
 4.604 	-0.345 	0.575
 5.153 	0.011 	0.160
 5.002 	0.539 	0.265
 5.480 	0.716 	0.052
 6.100 	0.056 	-0.373
 6.037 	0.204 	-0.215
 5.550 	-0.992 	0.394
 5.817 	-0.706 	-0.345
 6.119 	-0.193 	-0.463
 5.751 	-0.202 	-0.738
 5.822 	-0.170 	-0.537
 4.475 	0.158 	0.700
 4.317 	0.133 	1.043
 4.903 	-0.468 	0.213
 5.808 	-0.478 	-0.548
 4.826 	0.328 	0.006
 5.412 	0.109 	0.214
 5.067 	0.373 	0.748
 5.197 	-0.047 	-0.264
 5.140 	-0.411 	-0.448
 5.621 	-0.247 	-0.524
 6.012 	-0.021 	-0.192
 5.376 	-0.001 	0.294
 5.228 	-0.062 	0.268
 5.970 	-0.375 	-0.495
 5.355 	-0.033 	-0.411
 5.495 	0.635 	-1.335
 5.706 	0.888 	-0.368
 5.527 	0.053 	-0.459
 5.616 	0.285 	-0.228
 5.603 	-0.128 	0.011
 5.066 	-0.197 	-0.123
 5.483 	0.166 	-0.256
 5.654 	0.379 	-0.680
 5.140 	-0.604 	-0.509
 5.273 	-0.504 	-0.418
 5.250 	-0.667 	0.109
 5.557 	-0.461 	-0.272
 5.872 	0.247 	0.249
 5.540 	0.152 	-0.078
 5.592 	0.087 	0.043
 5.869 	0.368 	-0.321
 5.458 	0.963 	-0.369
 5.272 	0.853 	-0.478
 5.422 	0.435 	-0.196
 4.640 	-0.036 	0.110
 4.323 	0.047 	-0.180
 5.076 	-0.090 	-0.284
 5.157 	0.605 	-0.283
 5.228 	0.127 	-0.351
 5.449 	-0.197 	-0.119
 5.385 	-0.003 	-0.143
 5.632 	0.043 	-0.409
 5.324 	0.009 	0.152
 5.208 	-0.248 	0.069
 5.310 	0.432 	-0.292
 4.658 	0.153 	0.137
 4.402 	0.153 	0.351
 4.744 	0.070 	0.039
 5.409 	0.308 	-0.096
 5.509 	0.193 	-0.010
 5.409 	0.326 	-0.039
 5.114 	-0.082 	-0.247
 5.100 	0.399 	-0.429
 4.945 	0.591 	-0.077
 5.643 	0.356 	-0.241
 5.004 	0.175 	0.013
 5.070 	0.305 	-0.043
 5.046 	0.301 	-0.088
 5.340 	0.226 	0.052
 4.830 	0.245 	-0.059
 4.771 	0.614 	-0.051
 4.580 	-0.530 	-0.121
 4.799 	0.048 	-0.224
 4.568 	-0.214 	0.542
 4.460 	-0.012 	0.471
 4.661 	-0.005 	0.264
 5.172 	0.335 	0.002
 5.373 	-0.089 	-0.073
 3.858 	0.885 	0.034
 3.798 	0.338 	0.364
 4.083 	0.527 	0.430
 4.150 	0.733 	0.379
 3.972 	0.065 	0.273
 4.566 	-0.545 	0.122
 5.116 	0.115 	-0.077
 5.175 	0.721 	-0.276
 4.725 	-0.103 	-0.591
 4.879 	0.042 	-0.593
 4.736 	-0.111 	-0.376
 5.131 	-0.292 	-0.104
 5.054 	0.084 	0.233
 5.510 	-0.138 	0.048
 5.455 	0.272 	-0.130
 5.084 	-0.177 	0.160
 4.547 	0.881 	-0.166
 4.534 	0.194 	-0.411
 3.888 	-0.266 	0.497
 4.572 	-0.074 	0.456
 4.523 	-0.549 	0.935
 4.709 	-0.514 	-0.258
 4.428 	-0.633 	0.119
 4.463 	0.068 	0.330
 4.366 	-0.323 	0.099
 4.311 	-0.317 	0.050
 4.917 	-0.636 	-0.503
 4.290 	-0.279 	0.308
 4.749 	-0.940 	0.308
 5.259 	-0.220 	-0.414
 5.421 	0.065 	-0.395
 5.446 	0.022 	0.060
 4.206 	1.097 	-0.246
 4.443 	0.489 	0.116
 4.202 	0.156 	-0.320
 4.449 	-0.180 	0.085
 4.650 	-0.443 	0.141
 5.172 	-0.545 	0.116
 4.600 	0.169 	-0.186
 3.882 	0.104 	0.588
 4.260 	-0.591 	0.228
 4.942 	-0.449 	-0.361
 4.307 	0.027 	0.183
 4.706 	-0.332 	-0.176
 4.620 	-1.033 	-0.279
 4.919 	-0.561 	0.203
 5.377 	-0.627 	0.178
 5.460 	-0.459 	-0.517
 5.182 	0.460 	-0.513
 5.212 	0.663 	-0.519
 4.962 	0.433 	-0.339
 4.732 	-0.276 	0.117
 4.407 	-0.368 	0.135
 4.692 	-0.225 	0.214
 4.668 	-0.031 	0.084
 4.725 	-0.007 	0.316
 4.658 	-0.086 	0.040
 4.643 	-0.167 	0.008
 4.842 	0.141 	0.392
 4.751 	-0.567 	0.393
 4.720 	-1.309 	0.298
 4.600 	-0.800 	0.078
 5.392 	-0.465 	0.316
 5.761 	-0.402 	0.218
 4.560 	0.743 	0.147
 5.024 	0.771 	-0.125
 5.189 	0.488 	0.033
 5.428 	-0.073 	-0.190
 5.184 	-0.396 	-0.128
 4.733 	-0.117 	0.533
 4.655 	-0.042 	0.334
 4.253 	0.299 	-0.202
 4.435 	0.184 	0.410
 3.790 	-0.123 	0.442
 4.129 	-0.915 	0.535
 5.048 	-1.220 	-0.184
 5.244 	-1.547 	-0.272
 5.278 	-1.215 	-0.236
 4.843 	-0.909 	-0.252
 5.036 	0.280 	-0.040
 4.827 	0.050 	-0.101
 5.146 	0.146 	-0.116
 5.040 	-0.009 	0.060
 5.311 	-0.210 	-0.248
 4.933 	0.104 	0.183
 4.558 	0.251 	0.211
 3.564 	0.025 	0.295
 3.411 	0.395 	0.202
 3.711 	0.397 	0.518
 4.269 	-0.596 	0.232
 5.175 	-1.219 	-0.901
 4.934 	-1.695 	-0.408
 4.704 	-1.299 	-0.216
 4.385 	-1.341 	-0.298
 4.720 	-0.695 	0.047
 4.423 	-0.229 	0.096
 6.987 	-0.345 	-0.969
 7.429 	-0.003 	-0.530
 7.686 	0.346 	-0.505
 6.148 	-0.430 	0.132
 6.393 	-0.451 	-0.816
 6.296 	1.044 	-0.102
 5.071 	1.413 	0.807
 4.957 	1.662 	0.452
 5.241 	1.040 	0.576
 4.770 	0.217 	0.358
 5.230 	0.808 	0.176
 5.127 	-0.239 	-0.758
 4.462 	-0.826 	1.503
 5.296 	-1.311 	1.076
 5.924 	-0.832 	0.449
 6.348 	-0.815 	-0.815
 5.928 	-0.229 	-0.480
 5.527 	-0.114 	0.776
 6.528 	1.181 	-0.250
 6.207 	0.596 	-0.089
 4.461 	0.278 	0.783
 4.768 	1.064 	0.788
 4.711 	1.802 	0.797
 5.329 	1.411 	0.687
 4.939 	0.470 	0.977
 5.106 	0.565 	0.030
 5.086 	0.641 	-0.609
 5.286 	0.783 	-0.988
 5.590 	-0.709 	-0.371
 5.955 	-0.813 	-0.148
 6.405 	-0.931 	1.114
 6.934 	-0.497 	-0.805
 4.689 	0.728 	0.326
 4.401 	0.443 	0.976
 4.022 	1.275 	1.394
 4.927 	1.678 	0.321
 4.839 	0.865 	1.190
 5.180 	1.077 	1.260
 6.001 	0.801 	1.397
 5.912 	0.960 	1.133
 5.144 	0.898 	0.324
 4.727 	0.704 	-0.260
 5.087 	0.809 	-0.787
 5.742 	0.512 	-0.707
 6.454 	-0.127 	-0.702
 6.532 	-0.671 	-0.119
 6.493 	-0.447 	1.298
 6.767 	-0.570 	0.106
 5.454 	0.517 	0.258
 4.190 	0.527 	0.141
 4.332 	1.006 	-0.737
 4.964 	1.460 	-0.982
 5.221 	1.172 	-0.643
 5.196 	0.609 	0.157
 5.094 	0.864 	0.086
 5.033 	1.122 	-0.227
 5.368 	0.738 	-0.347
 5.522 	0.564 	-0.597
 5.821 	0.489 	-0.768
 6.563 	0.568 	-0.581
 6.534 	0.239 	-0.323
 7.093 	-0.154 	-1.253
 6.706 	-0.197 	-0.066
 6.721 	0.219 	0.823
 5.609 	0.117 	0.566
 5.217 	0.133 	0.095
 5.488 	0.144 	0.073
 5.841 	0.781 	-1.007
 5.360 	1.505 	-0.664
 5.377 	1.113 	-0.439
 5.421 	1.179 	-0.884
 5.773 	0.534 	-1.005
 6.153 	0.670 	-0.906
 6.188 	0.402 	-0.389
 6.178 	-0.142 	-0.226
 6.391 	0.367 	-0.698
 5.196 	-0.449 	-0.448
 4.900 	-0.258 	0.726
 5.433 	0.559 	1.136
 5.939 	0.699 	1.036
 5.712 	0.647 	-0.784
 6.419 	-0.480 	-0.237
 6.874 	0.263 	-0.824
 5.908 	0.503 	0.095
 5.816 	1.525 	-0.894
 5.675 	1.131 	0.006
 5.624 	0.877 	0.459
 5.837 	0.541 	0.276
 6.369 	0.171 	0.268
 6.587 	-0.555 	-0.228
 6.187 	0.522 	-0.498
 6.038 	0.176 	-0.452
 5.839 	0.106 	-0.284
 5.433 	0.110 	0.936
 5.630 	0.316 	-0.026
 5.941 	-0.395 	-0.119
 5.912 	0.932 	-0.266
 5.723 	0.321 	0.228
 5.801 	0.751 	0.292
 6.290 	1.182 	-0.366
 6.169 	1.401 	-0.506
 6.316 	0.651 	-0.145
 6.424 	0.175 	0.200
 6.287 	-0.372 	0.471
 6.214 	-0.491 	0.033
 6.312 	-0.518 	-0.570
 7.238 	-0.092 	-1.016
 6.506 	0.214 	-0.588
 6.202 	0.694 	-0.483
 6.801 	0.438 	-0.675
 5.685 	-0.102 	0.205
 5.183 	-0.445 	0.153
 4.998 	0.254 	-0.097
 5.258 	0.112 	0.060
 5.625 	0.179 	-0.017
 5.690 	0.724 	-0.082
 5.905 	0.940 	-0.087
 5.840 	0.062 	0.030
 6.019 	0.195 	-0.040
 6.053 	-0.396 	0.028
 5.936 	-0.089 	-0.293
 5.144 	-0.735 	-0.185
 5.361 	0.054 	-0.387
 6.185 	0.150 	-0.636
 6.413 	0.171 	-1.307
 5.737 	0.658 	0.211
 5.863 	0.196 	0.219
 6.060 	-0.164 	-0.218
 5.386 	-0.632 	-0.371
 5.571 	-0.288 	-0.688
 5.897 	0.043 	-0.308
 5.696 	0.026 	-0.280
 5.516 	0.188 	-0.420
 6.120 	0.106 	-0.734
 5.844 	0.224 	-0.316
 6.163 	-0.095 	-0.038
 5.423 	0.485 	0.156
 4.891 	0.361 	0.029
 4.657 	-0.277 	0.272
 4.926 	0.111 	0.561
 5.277 	0.658 	0.767
 5.857 	0.753 	0.215
 6.290 	0.212 	0.119
 6.678 	-0.031 	0.079
 5.405 	-0.312 	-0.857
 4.821 	-0.156 	0.088
 5.153 	0.059 	-0.224
 5.567 	0.218 	-0.334
 4.927 	-0.052 	-0.070
 4.851 	0.104 	0.110
 5.227 	0.051 	0.493
 5.123 	-0.733 	0.523
 5.203 	0.369 	0.420
 5.210 	0.802 	0.011
 4.890 	0.228 	-0.136
 4.969 	0.023 	0.346
 5.205 	0.180 	0.007
 5.467 	-0.251 	-0.353
 6.130 	-0.240 	-0.359
 6.046 	-0.032 	0.185
 5.069 	0.012 	0.011
 4.391 	0.472 	0.384
 3.994 	0.280 	0.689
 3.741 	-0.317 	0.542
 4.334 	-0.241 	0.330
 4.803 	0.052 	0.453
 4.577 	-0.998 	0.340
 4.605 	-0.966 	0.073
 5.097 	-0.303 	-0.141
 5.330 	-0.599 	0.110
 5.729 	0.567 	0.075
 5.020 	-0.306 	0.127
 5.573 	-0.407 	0.438
 5.842 	0.074 	-0.134
 5.356 	-0.367 	-0.131
 5.712 	-0.050 	-0.287
 4.806 	0.439 	-0.211
 4.311 	0.693 	-0.378
 4.493 	0.226 	0.315
 4.049 	-0.446 	0.388
 4.491 	-0.879 	-0.081
 4.886 	-0.664 	-0.348
 4.713 	-0.677 	-0.158
 4.983 	-0.632 	0.330
 5.595 	-0.625 	-0.245
 5.505 	-1.074 	-0.594
 5.269 	-0.508 	-0.340
 5.708 	-0.219 	-0.861
 5.604 	-0.453 	0.075
 5.662 	-0.286 	0.430
 6.005 	-0.626 	0.279
 5.917 	-0.413 	0.307
 4.968 	0.322 	-0.428
 4.618 	1.169 	-0.389
 4.414 	0.766 	-0.361
 4.674 	-0.097 	-0.336
 4.861 	-0.443 	-0.050
 4.821 	-0.637 	0.107
 5.175 	-0.363 	-0.294
 5.366 	-0.265 	0.059
 5.730 	-0.423 	-0.180
 5.292 	-0.503 	-0.531
 4.976 	-0.355 	-0.153
 5.090 	0.065 	0.169
 4.951 	-0.615 	0.349
 4.891 	-1.223 	0.322
 5.442 	-1.097 	-0.016
 5.504 	-0.744 	-0.066
 4.460 	0.675 	-0.618
 4.837 	0.913 	-0.334
 4.736 	0.739 	-0.048
 5.048 	0.013 	-0.007
 5.307 	-0.500 	0.439
 5.126 	-0.379 	0.264
 5.203 	-0.032 	0.263
 5.461 	-0.189 	0.024
 4.703 	-0.261 	0.035
 4.561 	-0.213 	0.105
 4.556 	-0.234 	0.323
 4.805 	-0.431 	0.561
 5.387 	-0.791 	0.418
 5.479 	-1.237 	0.193
 5.428 	-1.315 	0.312
 5.330 	-1.097 	-0.168
 4.840 	0.642 	-0.256
 4.993 	0.628 	-0.382
 5.274 	0.758 	0.133
 5.302 	0.245 	-0.124
 5.732 	-0.127 	0.063
 5.208 	-0.370 	0.141
 4.969 	-0.049 	0.026
 4.948 	0.289 	-0.085
 4.769 	0.216 	0.338
 4.813 	0.249 	0.318
 5.184 	-0.034 	0.056
 5.449 	-0.489 	-0.162
 5.584 	-1.795 	-0.039
 6.217 	-1.595 	-0.318
 6.024 	-1.440 	0.279
 6.003 	-0.518 	-0.242
 4.230 	1.007 	0.190
 4.890 	1.369 	-0.193
 5.143 	0.867 	-0.177
 5.330 	0.170 	-0.314
 4.985 	-0.049 	0.228
 4.764 	-0.030 	0.333
 4.603 	0.277 	0.724
 4.411 	0.367 	0.410
 4.758 	0.291 	0.310
 5.203 	0.370 	0.155
 6.013 	-0.491 	-0.441
 6.212 	-0.821 	-0.703
 6.316 	-1.003 	-1.364
 6.162 	-1.554 	-0.253
 5.283 	-1.316 	0.839
 4.762 	-0.714 	0.446
 7.152 	-0.182 	-0.817
 7.115 	0.352 	-0.582
 6.944 	0.429 	-0.477
 6.765 	0.029 	0.218
 7.136 	0.770 	-0.532
 6.412 	-0.082 	-0.003
 6.275 	0.812 	0.603
 6.622 	0.232 	-0.303
 6.313 	0.521 	-0.271
 6.274 	1.511 	0.709
 6.138 	1.677 	0.021
 6.767 	1.427 	-1.426
 5.995 	0.419 	-0.299
 5.998 	-0.074 	-0.483
 6.601 	-0.929 	-0.083
 6.831 	-1.084 	-0.391
 6.912 	-0.644 	-1.099
 6.835 	0.243 	-0.206
 6.468 	0.276 	-0.192
 5.918 	1.311 	-0.503
 6.455 	1.181 	0.569
 5.587 	0.788 	0.587
 5.991 	0.673 	0.402
 5.781 	1.120 	0.445
 5.724 	1.886 	0.741
 6.147 	1.931 	0.698
 6.448 	1.398 	-1.009
 6.718 	0.967 	-0.887
 6.165 	1.078 	-0.409
 6.266 	-0.029 	-0.453
 6.958 	-0.862 	-0.464
 7.080 	-0.679 	-0.599
 5.851 	0.508 	-0.108
 5.352 	0.999 	0.946
 4.591 	-0.246 	0.613
 4.860 	0.699 	0.471
 5.406 	1.301 	0.704
 5.060 	1.106 	0.326
 5.471 	1.392 	0.543
 6.015 	1.967 	0.789
 6.015 	2.049 	0.637
 6.096 	1.578 	-0.103
 6.259 	0.993 	-0.792
 6.249 	1.069 	-0.807
 7.091 	0.530 	-0.351
 6.780 	-0.023 	-0.468
 6.844 	-0.495 	0.100
 7.363 	-0.794 	-0.353
 5.141 	1.583 	0.433
 5.905 	0.870 	0.470
 6.199 	0.650 	-0.786
 5.867 	0.377 	-0.324
 6.359 	0.495 	0.141
 5.670 	1.881 	0.330
 5.723 	2.077 	-0.259
 6.182 	1.814 	-0.475
 6.413 	2.042 	-0.351
 6.190 	1.865 	-0.911
 6.355 	0.633 	-0.787
 6.679 	0.251 	-0.256
 6.989 	0.154 	-0.457
 6.889 	-0.221 	-0.758
 7.004 	-0.616 	-0.309
 7.337 	-0.449 	-0.209
 6.158 	1.206 	-0.003
 6.302 	0.952 	0.346
 6.761 	0.537 	-0.945
 6.654 	0.222 	-0.684
 6.693 	0.691 	-0.177
 6.071 	1.234 	-0.100
 6.014 	0.776 	0.121
 6.031 	1.549 	0.031
 6.272 	1.924 	-0.364
 6.916 	1.229 	-0.331
 7.362 	0.913 	-0.754
 7.022 	0.695 	0.062
 6.468 	-0.019 	-0.159
 7.167 	-0.554 	-0.381
 7.286 	-0.482 	-0.266
 7.412 	-0.188 	0.075
 6.854 	0.686 	-0.192
 6.406 	0.735 	-0.294
 6.964 	0.495 	-0.142
 6.610 	0.633 	-0.314
 6.599 	0.678 	-0.555
 6.371 	1.387 	0.184
 5.609 	0.664 	0.822
 5.765 	0.328 	0.730
 6.379 	0.476 	0.370
 7.061 	0.256 	0.182
 6.562 	1.034 	-0.069
 6.865 	0.473 	-0.165
 6.622 	0.226 	-0.536
 7.424 	0.473 	0.363
 6.884 	-0.136 	0.186
 6.375 	-0.143 	0.198
 5.975 	0.694 	0.267
 6.548 	0.503 	-0.120
 6.310 	0.029 	-0.216
 6.638 	0.787 	-0.064
 6.517 	1.496 	0.118
 6.076 	1.551 	0.274
 6.256 	0.878 	0.334
 6.505 	-0.134 	0.383
 6.890 	0.292 	-0.285
 6.999 	0.078 	-0.542
 7.245 	0.409 	-0.941
 6.777 	0.395 	-0.422
 6.745 	1.100 	-0.344
 7.329 	0.381 	-0.291
 6.965 	0.593 	0.561
 6.534 	0.314 	0.059
 4.897 	0.424 	0.156
 5.466 	0.200 	0.112
 5.613 	0.077 	0.447
 5.771 	0.038 	0.167
 6.302 	0.769 	0.026
 6.632 	1.551 	-0.012
 6.969 	0.852 	-0.207
 6.976 	0.325 	-0.217
 7.232 	0.207 	-0.251
 6.812 	0.278 	0.110
 6.698 	0.019 	0.018
 6.680 	0.335 	-0.797
 7.019 	0.791 	-0.737
 6.607 	0.760 	0.306
 6.952 	0.782 	0.159
 6.989 	0.372 	-0.483
 6.060 	0.105 	-0.349
 6.267 	-0.052 	-0.506
 6.173 	0.011 	-0.406
 5.882 	0.105 	-0.056
 5.757 	0.726 	0.285
 6.160 	0.580 	-0.027
 6.432 	0.354 	-0.211
 6.494 	0.461 	-0.088
 6.487 	0.257 	-0.051
 6.315 	0.653 	0.231
 6.060 	0.186 	-0.102
 5.636 	0.395 	-0.472
 5.647 	0.392 	0.129
 5.907 	0.245 	0.189
 6.477 	0.207 	-0.196
 6.939 	0.256 	-0.172
 5.999 	-0.088 	-0.578
 5.741 	-0.501 	-0.743
 5.718 	0.151 	-0.801
 5.702 	0.549 	-0.298
 5.156 	0.286 	0.234
 5.069 	0.004 	0.229
 4.893 	0.054 	0.714
 5.473 	0.204 	0.524
 5.505 	0.468 	0.703
 5.931 	0.043 	-0.024
 5.701 	0.863 	-0.050
 5.413 	1.006 	0.620
 5.625 	0.071 	0.573
 5.688 	-0.488 	-0.003
 5.690 	-0.096 	-0.097
 6.157 	-0.021 	0.051
 4.703 	-0.337 	-0.187
 4.344 	-0.063 	0.890
 5.000 	0.718 	0.348
 5.276 	0.663 	0.284
 5.639 	0.749 	-0.184
 4.922 	0.776 	0.167
 4.827 	0.358 	0.357
 4.615 	0.204 	0.427
 4.853 	0.072 	0.731
 5.322 	0.902 	0.537
 5.420 	1.107 	0.544
 5.568 	0.335 	-0.173
 5.748 	-0.375 	0.105
 5.988 	-0.836 	0.209
 6.520 	-0.794 	0.008
 5.951 	-0.460 	-0.030
 4.557 	0.190 	-0.359
 4.860 	0.030 	-0.239
 5.210 	0.950 	-0.178
 4.928 	1.161 	0.258
 4.840 	0.932 	0.292
 4.881 	0.834 	0.160
 4.899 	0.860 	-0.110
 4.778 	0.549 	-0.067
 4.426 	0.161 	-0.210
 4.515 	0.379 	-0.204
 5.179 	0.012 	-0.027
 5.625 	-0.407 	0.162
 5.690 	-0.908 	0.358
 6.093 	-0.860 	0.421
 6.255 	-0.575 	0.378
 6.211 	-0.281 	0.178
 5.146 	0.218 	-0.109
 5.313 	0.148 	-0.698
 5.385 	0.717 	-0.314
 4.438 	0.748 	0.078
 4.679 	0.052 	-0.101
 5.068 	-0.020 	-0.264
 5.291 	0.094 	-0.341
 5.601 	-0.015 	-0.307
 5.805 	-0.208 	-0.523
 5.888 	-0.009 	-0.669
 5.767 	-0.354 	-0.197
 5.608 	-0.229 	-0.002
 5.267 	-0.643 	0.624
 5.139 	-1.259 	0.341
 5.519 	-1.295 	0.281
 6.243 	-0.518 	0.363
 6.411 	0.805 	-0.794
 4.925 	0.995 	0.121
 4.449 	1.257 	-0.157
 4.854 	0.339 	-0.464
 4.724 	-0.163 	0.063
 5.033 	-0.271 	0.159
 5.414 	-0.026 	0.074
 5.714 	0.150 	-0.287
 5.763 	-0.031 	-0.107
 5.654 	0.216 	-0.046
 5.126 	0.474 	0.310
 5.307 	-0.331 	0.153
 5.732 	-0.374 	0.517
 5.876 	-1.592 	0.475
 6.285 	-1.893 	0.406
 6.456 	-1.650 	0.049
 5.524 	0.732 	-0.322
 4.977 	1.370 	-0.057
 5.219 	1.072 	-0.144
 5.286 	0.453 	-0.223
 5.432 	-0.276 	-0.061
 5.576 	-0.294 	0.173
 5.493 	0.007 	0.332
 5.357 	0.521 	-0.046
 5.857 	0.247 	0.102
 5.823 	0.218 	-0.087
 5.970 	0.266 	0.152
 6.214 	-0.007 	-0.227
 6.303 	-0.342 	0.013
 6.126 	-1.761 	-0.576
 6.826 	-1.920 	0.211
 7.241 	-1.389 	-0.498
 5.814 	0.733 	-0.212
 6.204 	1.059 	-0.664
 6.403 	1.041 	-0.063
 5.818 	0.811 	-0.426
 5.268 	-0.145 	0.498
 5.409 	-0.019 	0.477
 5.545 	0.208 	0.314
 5.562 	0.322 	0.136
 5.586 	0.289 	-0.081
 5.682 	0.243 	-0.575
 5.889 	0.362 	-1.265
 6.519 	0.210 	-1.017
 6.663 	-0.014 	-1.203
 6.368 	-2.010 	-0.718
 6.690 	-1.637 	0.386
 6.884 	-1.157 	0.679
 7.008 	0.034 	-0.417
 7.088 	-0.126 	-0.513
 7.012 	0.340 	-0.402
 7.280 	-0.236 	0.060
 7.483 	0.830 	-0.214
 6.311 	0.273 	0.449
 6.674 	0.537 	0.203
 7.725 	0.182 	-0.358
 7.083 	-0.229 	-0.057
 6.351 	1.286 	0.659
 7.704 	0.444 	-0.235
 6.603 	0.052 	-0.602
 6.335 	0.652 	-0.279
 6.435 	0.337 	-0.504
 6.246 	0.387 	-0.346
 5.735 	0.114 	-0.129
 6.882 	-0.087 	-0.792
 6.864 	-0.535 	0.122
 6.746 	0.156 	-0.212
 6.020 	0.387 	0.365
 5.928 	0.326 	0.724
 6.579 	-0.169 	0.726
 6.897 	-0.119 	0.257
 6.962 	-0.582 	0.469
 7.072 	-0.405 	-0.389
 7.163 	0.728 	-0.259
 8.170 	0.341 	-0.896
 6.878 	0.469 	-0.346
 5.999 	0.861 	-0.441
 6.145 	0.541 	-0.452
 6.790 	-0.090 	-0.273
 6.906 	-0.190 	-0.336
 6.728 	0.091 	-0.234
 6.146 	0.525 	0.811
 6.832 	0.934 	-0.241
 6.182 	1.167 	-0.415
 6.520 	-0.095 	0.330
 7.417 	-0.550 	-0.222
 7.631 	-0.652 	-0.425
 7.332 	0.031 	0.079
 7.600 	-0.001 	-0.091
 8.086 	0.133 	-0.416
 8.469 	0.217 	-1.437
 7.565 	0.639 	-0.289
 6.703 	1.143 	-0.498
 7.006 	-0.019 	-0.368
 7.391 	-0.131 	-0.116
 7.460 	-0.457 	-0.120
 6.883 	0.418 	-0.052
 7.082 	1.406 	0.156
 7.159 	0.632 	-0.474
 7.065 	1.025 	-0.017
 7.026 	0.576 	-0.359
 6.979 	-0.099 	0.456
 7.312 	0.119 	0.197
 7.338 	0.184 	0.087
 7.541 	0.120 	-0.761
 7.694 	0.530 	-0.643
 7.243 	0.501 	-0.218
 7.013 	0.595 	-0.145
 7.273 	0.439 	-0.143
 7.246 	0.274 	-0.252
 7.354 	0.051 	-0.796
 7.276 	-0.742 	-0.493
 7.489 	0.954 	-0.133
 7.531 	1.138 	-0.109
 7.301 	1.181 	-0.440
 6.887 	0.594 	-0.367
 7.794 	0.631 	-0.687
 7.804 	0.887 	-0.252
 7.426 	0.132 	0.405
 6.672 	-0.157 	0.179
 6.746 	0.098 	-0.334
 7.095 	0.551 	-0.511
 7.336 	0.712 	-0.508
 7.252 	0.536 	-0.264
 7.230 	0.451 	0.005
 7.175 	-0.023 	-0.319
 6.600 	-0.410 	-0.444
 6.647 	-0.668 	0.014
 6.775 	1.353 	0.141
 6.812 	0.806 	-0.142
 7.412 	0.449 	-0.224
 7.441 	0.789 	-0.672
 7.162 	0.688 	-0.407
 6.765 	0.898 	0.247
 7.144 	0.768 	0.389
 6.662 	0.283 	0.653
 6.810 	0.509 	0.141
 7.149 	0.633 	0.072
 7.384 	0.956 	-0.322
 7.566 	0.705 	-0.389
 7.219 	0.208 	-0.117
 6.722 	0.071 	-0.506
 6.518 	-0.184 	-0.430
 6.579 	-0.416 	0.223
 6.926 	0.990 	0.169
 7.288 	1.376 	-0.470
 6.365 	-0.291 	0.460
 6.885 	0.808 	-0.245
 6.782 	0.919 	-0.033
 6.759 	1.384 	0.017
 7.213 	1.009 	0.254
 6.914 	1.064 	0.372
 7.147 	0.733 	-0.133
 7.260 	0.526 	-0.550
 7.105 	0.670 	-0.395
 6.914 	0.579 	-0.596
 6.004 	0.183 	-0.593
 6.283 	0.417 	-0.585
 6.537 	0.314 	0.417
 6.660 	-0.199 	0.260
 5.986 	0.633 	-0.130
 6.457 	1.293 	-0.001
 6.402 	0.346 	0.333
 5.960 	0.124 	0.342
 6.471 	0.711 	-0.078
 6.510 	1.203 	-0.065
 6.410 	0.316 	0.185
 6.843 	0.452 	-0.109
 6.802 	0.310 	0.202
 6.713 	0.411 	0.059
 7.084 	1.101 	0.013
 6.670 	0.752 	-0.656
 6.630 	0.636 	-0.283
 5.989 	0.140 	0.555
 6.041 	-0.181 	0.179
 6.295 	-0.646 	-0.258
 5.562 	0.358 	-0.029
 6.008 	0.472 	-0.122
 6.088 	0.421 	-0.278
 5.953 	0.199 	0.112
 5.816 	0.177 	0.363
 6.241 	0.423 	0.577
 6.419 	0.086 	0.256
 6.193 	-0.036 	0.101
 6.147 	-0.198 	0.030
 6.708 	0.016 	-0.171
 6.897 	0.924 	-0.292
 6.843 	0.565 	-0.228
 6.593 	0.577 	0.914
 6.132 	0.393 	0.768
 6.016 	-0.178 	0.239
 5.735 	-0.654 	-0.114
 6.370 	0.329 	-0.198
 6.540 	0.296 	-0.120
 6.127 	-0.011 	-0.477
 6.411 	0.341 	-0.574
 6.126 	0.611 	-0.221
 6.006 	0.418 	0.146
 5.819 	0.114 	0.440
 5.731 	0.205 	0.445
 5.984 	-0.092 	0.277
 5.961 	0.339 	0.067
 6.100 	0.188 	-0.366
 5.804 	0.976 	0.380
 5.498 	0.293 	0.211
 5.700 	0.032 	0.260
 6.289 	-0.677 	0.176
 6.545 	-1.303 	0.367
 6.192 	0.552 	0.022
 6.098 	0.531 	0.139
 6.040 	-0.274 	-0.629
 5.260 	-0.051 	0.203
 5.305 	0.721 	0.144
 5.353 	0.607 	0.296
 5.442 	0.433 	0.140
 5.277 	0.325 	-0.074
 5.302 	0.258 	0.047
 5.357 	0.358 	0.124
 5.504 	0.439 	0.400
 6.176 	0.771 	0.567
 5.929 	0.266 	0.270
 6.131 	-0.183 	-0.089
 6.483 	-0.723 	-0.007
 6.788 	-1.058 	-0.060
 6.208 	0.598 	-0.045
 5.265 	0.077 	-0.311
 5.101 	0.644 	-0.276
 3.939 	0.621 	0.571
 4.032 	0.394 	0.304
 4.177 	0.105 	0.187
 4.577 	0.112 	-0.109
 4.532 	0.548 	-0.086
 4.589 	0.229 	0.163
 5.151 	-0.173 	0.104
 5.233 	0.235 	0.591
 5.361 	0.653 	0.598
 5.719 	-0.116 	0.451
 6.214 	-0.626 	0.239
 6.496 	-1.003 	0.089
 6.613 	-1.117 	-0.079
 6.421 	0.962 	-0.303
 6.414 	0.628 	-0.454
 5.221 	0.751 	-0.145
 4.401 	0.861 	0.616
 5.267 	0.567 	-0.241
 5.646 	0.634 	-0.280
 5.521 	0.738 	-0.404
 5.662 	0.543 	-0.376
 6.040 	0.034 	-0.591
 6.507 	0.041 	-0.804
 6.220 	0.058 	-0.687
 6.109 	0.087 	-0.291
 6.022 	-0.177 	0.154
 6.016 	-0.560 	0.414
 6.032 	-0.709 	0.514
 6.298 	-1.130 	0.487
 5.952 	0.701 	-0.418
 6.036 	0.774 	-0.077
 6.138 	0.977 	-0.467
 6.140 	1.096 	-0.281
 6.074 	0.667 	-0.143
 6.046 	0.665 	-0.133
 5.987 	0.715 	-0.116
 6.196 	0.494 	-0.382
 6.265 	0.231 	-0.264
 6.157 	0.259 	-0.234
 6.490 	0.527 	-0.216
 6.345 	0.663 	-0.424
 6.258 	0.210 	0.087
 6.144 	-0.250 	0.589
 6.239 	-0.964 	0.289
 6.481 	-1.473 	0.088
 6.000 	0.694 	-0.488
 5.854 	1.238 	0.225
 5.772 	1.157 	-0.090
 6.256 	0.807 	-0.166
 5.666 	0.978 	0.066
 5.483 	0.797 	-0.110
 5.991 	0.546 	-0.157
 6.331 	0.481 	-0.299
 6.201 	0.448 	-0.220
 6.038 	0.545 	-0.115
 5.918 	0.494 	-0.457
 6.204 	0.724 	-0.457
 6.497 	0.538 	-0.456
 6.640 	-0.043 	-0.662
 6.543 	-1.039 	-0.560
 7.259 	-1.124 	-0.334
 6.033 	0.412 	-0.259
 6.478 	0.949 	-0.032
 6.621 	1.184 	-0.341
 6.479 	1.098 	0.103
 5.869 	0.810 	0.353
 6.100 	0.808 	0.091
 6.043 	0.929 	0.189
 5.868 	0.842 	-0.127
 5.957 	0.593 	-0.592
 6.193 	0.458 	-0.615
 6.041 	0.324 	-0.588
 6.437 	0.115 	-0.561
 6.834 	-0.090 	-0.552
 6.925 	-0.226 	-0.678
 6.894 	-1.526 	0.309
 7.169 	-1.781 	0.470
 7.488 	0.653 	-0.368
 7.844 	0.463 	-0.278
 7.898 	0.248 	-0.306
 8.732 	0.293 	-0.313
 8.481 	-0.138 	-0.354
 8.321 	0.026 	-0.169
 8.251 	0.470 	-0.432
 8.401 	0.560 	-0.484
 8.681 	0.422 	0.044
 8.526 	0.069 	0.117
 8.506 	0.338 	-0.858
 8.118 	-0.156 	-0.239
 8.422 	0.535 	-0.672
 8.274 	0.487 	-0.324
 6.818 	0.378 	0.086
 6.693 	-0.076 	-0.208
 7.436 	0.651 	-0.425
 7.310 	0.154 	-0.298
 7.358 	-0.031 	-0.052
 7.245 	-0.148 	-0.382
 7.311 	0.156 	-0.087
 7.819 	0.600 	0.889
 7.714 	0.873 	0.407
 7.992 	0.476 	-0.231
 8.525 	0.844 	-0.775
 8.641 	0.591 	-0.259
 7.850 	-0.165 	-0.173
 8.164 	0.516 	0.180
 7.954 	0.268 	-0.206
 7.707 	1.130 	-0.284
 7.124 	0.742 	-0.246
 7.526 	0.508 	-0.652
 7.818 	0.501 	-0.415
 7.712 	0.452 	-0.222
 7.498 	0.400 	-0.235
 7.239 	0.527 	-0.476
 7.397 	1.218 	0.289
 7.380 	0.793 	-0.144
 7.286 	0.829 	0.079
 8.094 	0.530 	-0.184
 8.518 	0.552 	-0.475
 7.994 	0.254 	0.200
 7.609 	0.229 	-0.795
 8.042 	0.592 	-0.065
 8.400 	0.120 	-0.200
 7.932 	1.205 	-0.242
 7.748 	0.666 	-0.361
 7.940 	-0.354 	-0.306
 7.890 	0.693 	-0.436
 7.566 	0.704 	-0.232
 7.858 	0.744 	-0.602
 7.449 	0.982 	-0.364
 7.520 	1.025 	-0.438
 7.376 	0.417 	-0.158
 7.459 	0.194 	0.170
 7.254 	-0.337 	-0.143
 7.553 	-0.242 	-0.281
 7.549 	0.384 	-0.644
 7.886 	0.063 	-0.776
 7.685 	0.256 	0.047
 7.137 	0.806 	0.106
 7.326 	0.521 	-0.103
 7.807 	0.145 	-0.391
 8.049 	-0.071 	-0.300
 7.364 	0.990 	-0.412
 7.675 	0.791 	-0.784
 7.943 	1.186 	-0.263
 7.622 	1.457 	-0.192
 7.867 	1.313 	-0.507
 7.571 	0.686 	0.087
 7.211 	0.107 	0.359
 7.287 	-0.265 	-0.050
 7.595 	-0.384 	-0.424
 8.176 	0.219 	-0.617
 7.879 	0.262 	-0.950
 7.758 	0.665 	-0.005