# vtk DataFile Version 3.0
HighT1
ASCII
DATASET STRUCTURED_POINTS
DIMENSIONS 16 16 19
ORIGIN 929.001000000000 929.001000000000 5.001000000000
SPACING 10.000000000000 10.000000000000 10.000000000000
POINT_DATA 4864
FIELD attributes 1
U 3 4864 float
3.231 	0.460 	-0.048
 3.469 	0.612 	-0.177
 3.991 	0.646 	0.102
 4.182 	1.190 	-0.156
 4.742 	1.238 	-0.134
 4.495 	0.972 	-0.387
 2.400 	0.544 	0.416
 2.393 	0.824 	0.403
 2.968 	0.464 	0.240
 3.924 	-0.324 	0.239
 5.054 	-0.953 	-0.279
 4.647 	-1.146 	-0.058
 4.406 	-0.873 	0.052
 4.775 	-1.383 	-0.193
 4.914 	-0.448 	-0.157
 4.383 	-0.386 	0.658
 2.938 	0.611 	-0.081
 3.922 	1.042 	-0.470
 4.194 	1.127 	-0.347
 4.906 	0.805 	-0.430
 4.728 	2.113 	0.395
 3.755 	1.363 	-0.039
 4.488 	0.975 	-0.543
 4.802 	0.552 	-0.093
 4.804 	-0.724 	0.146
 4.683 	-0.745 	0.039
 4.432 	-0.915 	0.110
 4.528 	-1.212 	0.070
 4.922 	-1.439 	-0.216
 5.106 	-1.268 	-0.287
 4.758 	-0.658 	-0.024
 5.000 	-0.232 	0.208
 2.810 	0.674 	0.152
 3.067 	1.322 	0.028
 3.258 	0.255 	0.408
 3.061 	0.201 	0.200
 4.081 	1.313 	0.365
 4.316 	1.175 	0.145
 4.076 	-0.037 	0.013
 4.717 	-0.549 	-0.158
 4.818 	-0.766 	-0.269
 4.281 	-0.654 	0.164
 4.679 	-0.968 	-0.061
 5.052 	-1.257 	0.006
 4.665 	-1.433 	-0.771
 5.350 	-0.316 	-0.187
 4.860 	-0.365 	0.234
 3.299 	-0.272 	0.570
 3.686 	0.117 	-0.177
 3.035 	-0.162 	0.580
 2.954 	-0.555 	0.674
 3.284 	-0.553 	0.497
 3.811 	-1.124 	0.163
 2.729 	-1.024 	0.665
 2.615 	-0.786 	0.542
 3.347 	-0.478 	0.196
 4.166 	-0.425 	-0.115
 4.889 	-0.882 	0.000
 4.528 	-1.292 	-0.499
 4.049 	-0.295 	0.327
 4.456 	-0.402 	-0.472
 4.865 	0.312 	-0.173
 4.518 	0.631 	-0.083
 4.052 	0.315 	0.212
 3.372 	0.094 	-0.159
 4.133 	-0.504 	-0.019
 4.180 	-0.405 	-0.441
 4.665 	-0.196 	-0.597
 4.901 	-0.576 	-0.767
 4.694 	0.093 	0.154
 3.811 	-1.083 	-0.231
 3.581 	-1.012 	0.494
 3.629 	-0.725 	-0.030
 3.888 	-0.487 	-0.322
 3.948 	0.059 	-0.361
 3.947 	-0.053 	-0.013
 4.131 	0.347 	0.279
 4.935 	0.786 	-0.231
 5.369 	1.057 	-0.107
 5.369 	1.321 	-0.025
 3.863 	-0.286 	-0.086
 3.747 	0.403 	-0.131
 2.890 	-0.017 	0.113
 2.838 	-0.219 	0.156
 3.127 	-0.081 	0.433
 4.573 	-0.912 	0.291
 4.598 	-0.612 	-0.161
 4.617 	-1.376 	0.165
 3.747 	-0.779 	-0.075
 2.977 	0.315 	0.332
 3.277 	0.803 	0.021
 3.158 	0.483 	-0.395
 3.353 	-0.187 	-0.314
 3.056 	0.039 	0.224
 3.998 	0.986 	0.211
 4.378 	0.865 	0.403
 4.080 	0.430 	0.074
 3.909 	-0.015 	0.332
 3.893 	-0.475 	0.111
 4.197 	-0.678 	-0.039
 4.205 	-0.997 	-0.195
 4.845 	-0.629 	-0.054
 5.035 	-0.140 	-0.513
 4.106 	0.709 	-0.286
 2.553 	-0.071 	0.123
 2.517 	-0.474 	0.330
 2.693 	-0.388 	0.501
 2.945 	0.142 	0.488
 3.270 	0.014 	0.081
 3.693 	-0.631 	0.097
 3.949 	-0.624 	-0.081
 4.065 	-0.701 	0.065
 3.050 	0.154 	0.331
 3.110 	0.245 	0.054
 2.948 	-0.690 	0.251
 3.042 	-1.218 	-0.015
 3.546 	-0.712 	-0.268
 4.104 	0.064 	-0.057
 3.990 	0.661 	0.037
 4.552 	0.951 	-0.395
 4.682 	0.597 	-0.450
 4.463 	0.353 	-0.332
 4.273 	0.191 	-0.127
 4.360 	-0.046 	-0.185
 4.212 	-0.295 	-0.215
 4.515 	0.247 	-0.448
 4.186 	-0.004 	-0.146
 4.305 	-0.401 	0.021
 4.003 	0.458 	-0.297
 4.392 	0.512 	-0.204
 4.798 	-0.758 	-0.152
 4.793 	-0.424 	-0.387
 4.722 	-0.007 	0.017
 3.292 	0.291 	0.435
 3.271 	0.361 	0.046
 3.628 	0.416 	0.155
 3.859 	0.404 	0.242
 3.737 	0.369 	-0.004
 3.907 	0.115 	-0.247
 4.409 	-0.173 	-0.134
 4.353 	0.080 	0.279
 4.559 	0.763 	0.042
 4.389 	0.552 	0.014
 4.581 	0.066 	0.075
 4.344 	0.784 	-0.211
 4.648 	0.251 	-0.389
 4.597 	0.036 	-0.511
 4.438 	-0.252 	0.098
 4.363 	0.242 	-0.059
 3.271 	0.343 	0.416
 3.121 	0.255 	-0.057
 3.459 	0.348 	-0.033
 4.198 	0.419 	-0.180
 4.010 	0.254 	-0.243
 4.503 	0.195 	-0.251
 3.984 	-0.300 	0.070
 4.007 	0.281 	0.092
 3.805 	0.372 	-0.089
 3.844 	0.309 	-0.048
 4.033 	0.307 	0.124
 3.841 	0.658 	-0.028
 4.050 	0.817 	-0.367
 4.409 	0.064 	0.437
 3.781 	-0.587 	-0.090
 3.669 	0.118 	-0.225
 3.895 	0.854 	0.179
 3.948 	0.590 	-0.419
 4.350 	0.740 	-0.382
 3.623 	0.419 	0.005
 3.402 	0.464 	-0.162
 3.991 	0.243 	-0.364
 4.256 	0.182 	-0.390
 4.754 	-0.136 	-0.398
 5.194 	0.070 	-0.116
 5.458 	-0.180 	-0.142
 4.954 	-0.202 	0.033
 3.090 	0.233 	0.431
 3.903 	-0.136 	0.280
 3.840 	-0.577 	0.392
 4.417 	-1.040 	-0.055
 3.758 	-0.188 	0.079
 4.016 	0.861 	0.096
 4.030 	1.004 	0.104
 4.113 	0.623 	-0.045
 4.600 	0.839 	-0.095
 4.506 	0.822 	-0.017
 4.469 	0.764 	-0.405
 4.412 	0.265 	-0.263
 5.003 	0.760 	-0.081
 4.877 	0.009 	0.376
 4.944 	0.801 	-0.145
 3.988 	0.331 	0.233
 4.104 	-0.436 	-0.083
 4.582 	-0.351 	-0.153
 4.451 	-0.905 	-0.017
 3.641 	-1.156 	0.335
 3.577 	0.216 	0.059
 3.407 	0.283 	0.172
 3.931 	-0.288 	0.176
 4.332 	0.155 	0.037
 4.380 	0.561 	0.035
 4.303 	0.864 	0.046
 4.155 	0.547 	0.082
 4.203 	1.295 	0.319
 3.725 	0.538 	-0.276
 4.262 	-0.409 	-0.442
 3.908 	0.243 	-0.106
 4.478 	-0.171 	0.151
 4.124 	0.015 	-0.162
 4.214 	-0.241 	-0.223
 4.645 	-0.360 	-0.241
 4.274 	-0.376 	0.079
 4.263 	0.071 	-0.004
 4.578 	-0.203 	-0.144
 4.520 	-0.047 	-0.015
 4.481 	0.014 	-0.010
 4.392 	0.250 	-0.191
 4.196 	0.450 	-0.226
 4.047 	0.893 	-0.106
 4.147 	0.445 	-0.070
 4.424 	0.144 	-0.276
 4.844 	-0.420 	0.113
 4.982 	0.136 	-0.507
 4.428 	-0.456 	0.445
 3.528 	-0.081 	-0.091
 3.731 	0.152 	-0.141
 4.110 	-0.179 	-0.163
 4.452 	0.310 	-0.237
 4.200 	0.118 	-0.117
 4.038 	-0.091 	-0.265
 4.023 	-0.143 	0.430
 4.079 	0.320 	0.305
 3.831 	0.467 	-0.261
 3.321 	0.525 	0.078
 3.297 	0.131 	0.307
 3.609 	-0.063 	0.387
 4.151 	-0.683 	0.110
 4.642 	-0.471 	-0.216
 4.819 	-0.579 	-0.489
 5.313 	0.193 	-0.330
 3.815 	-0.081 	-0.353
 2.812 	0.264 	0.146
 2.369 	-0.167 	0.362
 2.427 	0.067 	0.296
 2.982 	0.478 	0.029
 3.278 	0.432 	0.107
 2.748 	0.156 	0.310
 1.744 	0.111 	0.096
 1.861 	0.268 	0.394
 2.423 	-0.516 	0.436
 3.052 	-1.012 	0.244
 3.768 	-1.011 	-0.652
 3.967 	-0.382 	0.150
 3.429 	-0.066 	0.440
 4.269 	0.035 	0.161
 4.554 	0.289 	-0.078
 4.350 	0.174 	0.046
 4.894 	0.554 	-0.680
 5.220 	-0.176 	-0.423
 4.926 	-0.098 	-0.297
 5.496 	-0.435 	-1.451
 6.023 	0.779 	-0.024
 5.924 	1.035 	-0.357
 5.774 	1.256 	0.122
 5.079 	0.996 	0.677
 5.022 	-0.295 	0.528
 5.068 	0.135 	-0.118
 4.813 	-0.725 	0.545
 5.353 	-0.442 	-0.241
 5.494 	-1.075 	-0.084
 4.839 	-0.339 	0.471
 4.949 	-0.057 	0.759
 5.761 	0.396 	-0.815
 5.820 	-0.763 	-1.785
 5.321 	0.385 	-0.892
 4.037 	0.431 	-0.020
 3.790 	-0.260 	-0.243
 4.447 	0.491 	0.594
 5.222 	1.330 	0.584
 5.596 	1.584 	0.539
 5.634 	0.921 	0.532
 5.747 	-0.257 	0.482
 4.995 	0.070 	0.409
 5.081 	-0.950 	0.103
 5.285 	-0.404 	-0.271
 5.185 	-1.289 	-0.122
 5.747 	-0.930 	-0.136
 5.363 	-0.436 	0.392
 3.922 	0.543 	-0.723
 3.299 	0.329 	0.212
 3.220 	0.145 	1.350
 4.374 	-0.890 	1.118
 4.695 	-0.838 	0.975
 4.161 	0.142 	0.918
 4.435 	0.700 	0.989
 5.596 	0.036 	0.506
 5.845 	-0.672 	0.594
 5.456 	0.585 	0.336
 4.617 	-0.108 	-0.237
 5.085 	-1.341 	-0.332
 5.900 	-0.450 	-0.805
 5.563 	-1.019 	-0.339
 3.861 	-0.675 	0.745
 4.042 	-0.255 	0.755
 3.806 	0.891 	-0.057
 4.806 	0.465 	0.569
 5.642 	0.157 	0.182
 4.952 	-0.345 	-0.786
 5.420 	-0.143 	0.422
 5.272 	-0.265 	0.808
 6.100 	-0.523 	-0.087
 5.871 	-1.171 	0.215
 5.422 	-1.061 	-0.111
 4.993 	0.423 	-0.477
 5.157 	-0.314 	-0.823
 5.356 	-1.063 	-0.261
 6.116 	-0.654 	-0.881
 5.975 	-0.807 	-0.776
 6.679 	-0.201 	0.153
 6.399 	0.654 	-0.364
 4.932 	0.415 	-0.007
 5.113 	0.212 	0.138
 5.686 	0.068 	0.267
 5.728 	-0.092 	-0.429
 5.202 	0.350 	-1.245
 5.422 	0.266 	-1.059
 5.652 	-0.329 	-0.250
 5.091 	-0.652 	0.250
 5.376 	-0.976 	-0.226
 5.778 	-0.219 	-0.713
 6.169 	-0.221 	-0.462
 6.080 	-0.827 	-0.490
 4.543 	-1.321 	0.561
 5.627 	-0.820 	-1.462
 5.377 	-0.388 	-0.600
 4.475 	-0.206 	0.856
 5.400 	-0.467 	-0.060
 5.541 	-0.422 	-0.313
 5.138 	-0.197 	0.220
 4.698 	-0.371 	0.354
 4.927 	0.444 	0.325
 5.348 	0.678 	-0.419
 5.786 	0.562 	0.028
 6.152 	0.248 	-0.513
 6.310 	-0.512 	0.137
 5.588 	-1.070 	0.175
 5.652 	-0.319 	-0.258
 6.124 	-0.234 	-0.808
 5.751 	-0.454 	-1.091
 5.206 	-0.433 	0.042
 4.080 	0.054 	0.993
 4.305 	-0.593 	0.843
 4.716 	-0.024 	-0.372
 4.691 	0.171 	-0.200
 5.144 	0.414 	0.103
 5.294 	-0.014 	0.450
 4.868 	0.257 	0.060
 5.067 	0.416 	-0.251
 5.311 	-0.534 	-0.165
 5.381 	-0.671 	-0.394
 6.148 	0.369 	0.010
 5.300 	0.286 	0.453
 5.623 	-0.529 	-0.360
 5.673 	-0.527 	-0.160
 5.342 	0.240 	-1.143
 5.630 	1.075 	-0.521
 5.600 	0.399 	-0.264
 5.520 	-0.170 	-0.432
 4.367 	0.157 	0.290
 4.913 	-0.122 	0.219
 5.091 	-0.014 	-0.405
 5.988 	0.337 	-0.123
 5.278 	-0.314 	-0.453
 5.105 	-0.776 	-0.626
 5.387 	-0.321 	-0.073
 5.498 	-0.707 	-0.425
 5.601 	-0.180 	0.274
 5.727 	0.309 	-0.096
 5.399 	-0.029 	0.139
 5.688 	0.077 	-0.180
 5.657 	0.251 	-0.358
 5.543 	0.603 	-0.543
 5.821 	0.816 	-0.596
 5.295 	0.077 	-0.252
 4.783 	-0.447 	-0.177
 5.210 	-0.265 	-0.115
 4.983 	-0.095 	-0.441
 5.119 	0.363 	-0.297
 5.264 	-0.082 	-0.168
 5.477 	-0.255 	-0.459
 5.378 	0.020 	-0.011
 5.613 	0.174 	-0.366
 5.248 	-0.157 	0.385
 5.472 	-0.039 	-0.346
 5.086 	0.322 	-0.095
 4.512 	-0.055 	0.289
 4.540 	0.005 	0.236
 5.075 	0.682 	-0.166
 5.434 	0.308 	-0.159
 5.555 	0.230 	-0.070
 4.813 	-0.412 	-0.761
 5.160 	0.204 	-0.864
 4.924 	0.339 	-0.023
 5.248 	0.462 	0.051
 5.319 	0.274 	-0.216
 5.256 	0.375 	0.022
 4.836 	0.218 	-0.133
 5.410 	0.218 	-0.129
 5.242 	0.130 	-0.017
 4.748 	0.658 	-0.014
 4.577 	-0.266 	-0.108
 4.600 	-0.186 	-0.173
 4.888 	-0.161 	0.215
 4.482 	0.065 	0.467
 4.479 	0.037 	0.367
 4.865 	0.271 	0.220
 3.893 	0.004 	-0.755
 4.146 	0.491 	-0.316
 4.090 	0.565 	0.247
 4.127 	0.310 	0.406
 4.533 	0.785 	0.236
 4.139 	0.220 	0.368
 4.319 	-0.136 	0.024
 5.108 	-0.484 	0.059
 5.167 	0.878 	-0.038
 4.958 	0.398 	-0.507
 4.686 	-0.197 	-0.621
 4.811 	-0.204 	-0.378
 4.940 	-0.499 	-0.310
 5.181 	0.155 	0.105
 5.165 	-0.122 	0.081
 5.616 	-0.049 	0.116
 3.324 	0.466 	-0.076
 4.139 	0.919 	0.114
 4.377 	0.421 	-0.384
 4.029 	-0.079 	0.344
 4.393 	-0.098 	0.325
 4.492 	-0.302 	0.917
 4.628 	-0.478 	0.070
 4.429 	-0.643 	-0.200
 4.581 	-0.009 	0.222
 4.278 	0.014 	0.185
 4.193 	-0.194 	0.273
 4.932 	-0.788 	-0.501
 3.924 	-0.354 	0.293
 4.253 	-0.806 	0.380
 4.956 	-1.126 	-0.208
 5.015 	0.180 	-0.333
 3.896 	0.527 	-0.735
 4.375 	0.836 	-0.589
 4.488 	0.904 	0.090
 4.222 	0.330 	-0.265
 4.387 	-0.265 	-0.075
 4.546 	-0.190 	0.421
 5.031 	-0.652 	-0.123
 4.780 	-0.019 	-0.060
 4.128 	0.225 	0.297
 3.978 	-0.498 	0.577
 4.770 	-0.373 	-0.342
 4.476 	-0.025 	0.102
 4.479 	0.047 	-0.066
 4.467 	-0.994 	0.024
 4.875 	-0.623 	-0.496
 5.119 	-0.479 	0.570
 4.683 	0.350 	-0.350
 4.839 	0.385 	-0.394
 5.316 	0.608 	-0.500
 4.862 	0.652 	-0.379
 4.804 	-0.144 	-0.019
 4.508 	-0.153 	0.022
 4.477 	-0.582 	0.395
 4.773 	-0.082 	-0.098
 4.706 	0.132 	0.473
 4.644 	-0.123 	0.037
 4.492 	-0.324 	-0.002
 4.531 	0.172 	0.468
 4.865 	-0.244 	0.330
 4.749 	-1.200 	0.343
 4.399 	-1.397 	-0.019
 4.693 	-0.547 	0.572
 4.217 	0.094 	-0.037
 4.531 	0.530 	0.112
 4.956 	0.634 	-0.171
 5.278 	0.923 	-0.328
 5.145 	0.022 	-0.134
 5.302 	-0.417 	0.087
 4.754 	-0.258 	0.325
 4.446 	-0.264 	0.327
 4.212 	0.398 	-0.068
 4.150 	0.304 	0.347
 3.563 	-0.162 	0.465
 3.927 	-0.410 	0.820
 4.358 	-1.348 	0.435
 5.470 	-1.658 	-0.402
 5.324 	-1.425 	-0.234
 5.025 	-0.887 	-0.326
 4.005 	-0.553 	-0.019
 4.460 	0.032 	-0.123
 4.992 	0.204 	0.079
 5.103 	0.088 	0.018
 5.126 	-0.323 	-0.337
 4.971 	-0.090 	0.248
 4.703 	0.217 	0.268
 3.967 	0.131 	0.142
 3.238 	0.392 	0.234
 3.621 	0.553 	0.561
 4.145 	-0.404 	0.212
 4.982 	-1.168 	-0.496
 4.582 	-1.582 	-0.337
 4.337 	-1.421 	-0.445
 4.148 	-1.661 	0.042
 4.531 	-0.947 	-0.127
 6.463 	-0.426 	-0.482
 6.698 	0.031 	-1.098
 6.643 	-0.467 	-1.021
 7.177 	-0.063 	-0.822
 7.291 	0.253 	-0.576
 6.534 	-0.597 	0.389
 6.201 	-0.012 	-0.859
 5.726 	1.048 	0.098
 4.898 	1.519 	1.162
 4.994 	1.430 	0.534
 5.274 	1.336 	-0.108
 4.834 	0.063 	1.164
 5.354 	1.199 	-0.773
 4.606 	-0.839 	0.315
 4.992 	-1.267 	0.947
 5.660 	-1.254 	1.054
 6.659 	0.220 	-0.924
 6.287 	-0.286 	-0.842
 5.606 	-0.601 	0.110
 6.251 	0.378 	-0.529
 6.452 	1.814 	0.013
 5.217 	-0.417 	0.623
 4.868 	0.255 	0.351
 4.566 	1.905 	0.887
 5.290 	1.523 	0.609
 5.022 	0.520 	0.837
 5.239 	0.847 	0.463
 5.196 	0.452 	0.148
 5.101 	1.141 	-0.666
 5.677 	0.666 	-0.921
 5.665 	-0.842 	-0.602
 6.110 	-0.889 	0.334
 5.193 	0.552 	-0.822
 4.472 	0.735 	0.116
 4.963 	0.656 	0.291
 3.900 	0.589 	1.487
 5.187 	1.922 	0.962
 5.474 	1.246 	0.630
 5.197 	0.431 	1.245
 5.254 	1.283 	1.109
 6.270 	0.725 	1.156
 6.037 	1.133 	0.798
 5.024 	0.805 	0.439
 4.837 	0.643 	-0.369
 5.065 	0.726 	-0.797
 5.901 	0.654 	-0.510
 6.482 	0.095 	-0.336
 6.292 	-0.696 	-0.106
 5.270 	1.259 	0.519
 4.815 	1.485 	0.216
 4.565 	0.542 	-0.070
 4.349 	0.764 	-0.264
 4.208 	1.601 	-0.597
 4.953 	1.295 	-0.821
 5.416 	0.507 	-0.066
 5.420 	0.447 	0.496
 5.320 	0.690 	0.054
 5.174 	1.038 	0.051
 5.391 	0.488 	-0.289
 5.490 	0.410 	-0.680
 5.940 	0.265 	-0.722
 6.420 	0.668 	-0.742
 6.740 	0.552 	-0.321
 7.168 	-0.055 	-1.148
 4.138 	2.222 	-0.247
 4.968 	0.741 	0.193
 5.668 	-0.021 	0.184
 5.213 	0.348 	0.493
 5.808 	0.011 	-0.389
 6.141 	0.661 	-0.910
 5.733 	1.439 	-0.710
 5.448 	0.812 	-0.673
 5.379 	1.153 	-0.881
 5.604 	0.567 	-0.787
 5.893 	0.408 	-0.786
 5.927 	0.471 	-0.687
 6.111 	-0.419 	-0.015
 6.307 	0.193 	-0.703
 5.072 	-0.384 	0.149
 5.304 	-0.205 	0.860
 5.684 	1.318 	0.478
 6.036 	1.175 	0.193
 5.713 	0.387 	-0.427
 6.381 	-0.360 	-0.525
 6.522 	0.036 	-0.314
 6.009 	0.800 	-0.329
 5.084 	1.515 	-0.632
 5.482 	1.238 	-0.032
 5.561 	0.881 	0.221
 5.828 	0.255 	0.213
 6.444 	0.224 	0.095
 6.611 	-0.151 	-0.281
 6.203 	0.771 	-0.289
 6.123 	0.003 	-0.662
 5.915 	0.261 	0.440
 5.491 	0.042 	0.453
 5.629 	0.608 	-0.347
 6.295 	1.097 	-0.380
 6.033 	0.735 	-0.195
 5.621 	0.345 	0.369
 5.826 	0.701 	0.322
 6.235 	1.116 	-0.220
 5.825 	1.357 	-0.566
 6.362 	0.933 	0.022
 6.234 	-0.024 	0.351
 6.227 	-0.267 	0.557
 6.306 	-0.443 	-0.171
 6.411 	-0.582 	-0.570
 7.086 	0.259 	-1.251
 6.547 	0.338 	-0.459
 6.442 	0.742 	-0.063
 6.748 	0.072 	-0.625
 4.497 	0.312 	0.278
 4.770 	0.353 	0.063
 5.140 	0.266 	-0.042
 5.619 	0.245 	0.029
 5.562 	0.230 	-0.146
 5.817 	1.088 	-0.158
 5.813 	0.710 	0.173
 6.044 	0.358 	-0.020
 5.871 	-0.124 	0.061
 6.295 	-0.261 	0.163
 5.645 	-0.356 	-0.335
 5.149 	-0.571 	-0.252
 5.542 	0.086 	-0.375
 6.307 	0.123 	-0.814
 6.581 	0.282 	-1.293
 5.715 	0.494 	0.317
 5.036 	0.479 	-0.390
 5.160 	-0.174 	-0.440
 5.434 	-0.645 	-0.549
 5.774 	-0.159 	-0.576
 5.788 	-0.015 	-0.206
 5.592 	-0.050 	-0.120
 5.737 	0.439 	-0.477
 6.056 	0.260 	-0.618
 6.143 	0.003 	-0.492
 5.793 	0.026 	0.239
 5.725 	0.619 	-0.072
 4.855 	-0.022 	0.287
 4.743 	-0.388 	0.317
 4.998 	0.052 	0.621
 5.355 	0.946 	0.689
 6.014 	0.698 	-0.025
 5.598 	0.056 	-0.677
 5.507 	-0.225 	-0.950
 5.159 	-0.265 	-0.289
 4.798 	-0.173 	-0.001
 5.406 	0.201 	-0.410
 5.556 	0.189 	-0.179
 4.822 	0.030 	-0.124
 5.281 	0.458 	0.171
 5.329 	-0.747 	0.462
 5.252 	-0.075 	0.398
 5.074 	0.631 	0.224
 4.998 	0.426 	-0.120
 4.893 	0.152 	0.024
 4.945 	-0.059 	0.210
 5.322 	0.230 	-0.160
 5.468 	-0.314 	-0.396
 5.250 	0.135 	-1.163
 5.172 	-0.140 	-0.878
 4.554 	0.309 	0.336
 4.616 	0.382 	0.474
 3.814 	-0.043 	0.351
 3.978 	-0.450 	0.398
 4.742 	0.354 	0.080
 4.566 	-0.782 	0.358
 4.597 	-0.800 	0.361
 4.733 	-0.447 	-0.052
 5.215 	-0.851 	0.017
 5.623 	0.119 	0.191
 5.308 	0.197 	-0.038
 5.147 	-0.313 	0.542
 5.564 	-0.279 	0.246
 5.651 	-0.033 	-0.080
 5.065 	0.283 	-1.070
 4.760 	0.308 	-0.228
 4.413 	0.666 	-0.205
 4.372 	0.371 	0.132
 3.968 	-0.315 	0.598
 4.381 	-0.643 	0.418
 4.820 	-0.854 	-0.081
 4.899 	-0.502 	-0.570
 4.931 	-0.696 	0.144
 5.318 	-0.588 	0.072
 5.781 	-0.660 	-0.358
 5.293 	-0.843 	-0.615
 5.545 	-0.079 	-0.285
 5.742 	-0.413 	-0.551
 5.528 	-0.320 	0.167
 5.843 	-0.494 	0.460
 5.599 	0.468 	-1.170
 5.203 	0.273 	-0.543
 4.869 	0.755 	-0.265
 4.596 	0.869 	-0.341
 4.559 	0.236 	-0.505
 4.985 	-0.261 	-0.076
 4.790 	-0.575 	0.022
 4.959 	-0.601 	-0.097
 5.176 	-0.178 	-0.089
 5.486 	-0.397 	0.210
 5.410 	-0.438 	-0.601
 5.067 	-0.446 	-0.302
 5.011 	0.150 	-0.000
 4.981 	-0.181 	0.318
 5.062 	-0.955 	0.316
 4.967 	-1.488 	0.516
 4.860 	0.583 	-0.319
 4.546 	0.753 	-0.426
 4.981 	0.572 	-0.779
 4.735 	0.848 	-0.047
 4.857 	0.401 	-0.155
 5.177 	-0.305 	0.368
 5.293 	-0.479 	0.337
 5.005 	-0.210 	0.277
 5.402 	-0.025 	0.121
 5.117 	-0.201 	0.157
 4.452 	-0.191 	-0.035
 4.606 	-0.187 	0.221
 4.622 	0.070 	0.492
 4.906 	-0.635 	0.605
 5.411 	-1.086 	0.381
 5.727 	-1.390 	0.267
 4.710 	0.538 	-0.213
 4.751 	0.472 	-0.179
 5.039 	0.685 	-0.476
 5.104 	0.482 	-0.018
 5.336 	0.702 	0.133
 5.298 	-0.103 	-0.022
 5.635 	-0.354 	0.026
 5.124 	-0.015 	0.171
 4.933 	0.242 	-0.027
 5.071 	0.321 	0.075
 4.572 	0.424 	0.354
 5.053 	0.281 	0.139
 5.184 	0.134 	-0.101
 5.911 	-0.566 	-0.051
 5.565 	-1.761 	-0.415
 5.947 	-1.797 	-0.233
 4.556 	0.963 	-0.102
 4.281 	0.890 	0.357
 4.788 	1.144 	-0.328
 5.268 	0.961 	-0.079
 5.332 	0.831 	-0.276
 5.117 	-0.066 	-0.008
 5.012 	-0.026 	0.311
 4.833 	0.208 	0.659
 4.473 	0.419 	0.579
 4.481 	0.487 	0.325
 4.922 	0.608 	0.306
 5.438 	0.327 	-0.409
 6.065 	-0.225 	-0.792
 5.773 	-0.872 	-0.623
 6.260 	-1.453 	-0.860
 5.144 	-1.586 	-0.048
 6.916 	0.555 	-0.640
 6.761 	0.165 	-1.086
 7.066 	-0.064 	-0.783
 7.036 	0.173 	-0.596
 6.949 	0.479 	-0.520
 6.976 	-0.013 	0.425
 6.966 	0.822 	-0.531
 6.679 	0.396 	-0.092
 6.503 	1.057 	0.703
 6.934 	0.347 	-0.434
 6.618 	0.556 	-0.200
 6.614 	1.636 	1.204
 6.386 	1.310 	-0.490
 6.325 	1.022 	-0.961
 6.076 	0.591 	-0.263
 6.051 	-0.256 	-0.656
 6.618 	0.707 	-0.852
 6.782 	-0.082 	-0.624
 6.858 	-0.921 	-0.279
 6.091 	-0.101 	-0.199
 7.210 	0.998 	-0.625
 6.462 	1.031 	0.314
 6.522 	0.854 	0.090
 5.394 	0.794 	0.817
 6.260 	0.931 	0.437
 5.845 	1.101 	0.315
 6.174 	2.024 	0.442
 6.211 	2.009 	0.471
 6.533 	0.996 	-1.135
 6.399 	0.572 	-0.909
 6.006 	0.932 	-0.650
 6.282 	-0.091 	-0.257
 6.795 	-0.087 	-0.712
 6.959 	-0.105 	-0.697
 5.982 	0.002 	0.328
 5.588 	0.578 	0.787
 4.250 	-0.327 	0.048
 5.339 	1.086 	1.314
 5.297 	0.880 	0.317
 5.283 	1.366 	0.586
 5.587 	1.305 	0.665
 5.999 	1.788 	0.938
 6.185 	1.974 	0.466
 6.153 	1.863 	0.040
 6.243 	0.690 	-0.783
 6.201 	0.672 	-0.933
 7.002 	0.605 	-0.359
 6.874 	0.105 	-0.368
 5.712 	0.169 	-0.338
 5.463 	0.457 	-0.198
 5.880 	1.384 	0.313
 5.830 	0.360 	0.341
 5.655 	0.751 	-0.592
 5.583 	0.844 	0.408
 5.786 	0.660 	0.014
 5.607 	1.791 	0.159
 5.466 	2.248 	0.138
 6.270 	1.842 	-0.371
 6.820 	1.763 	-0.428
 6.473 	1.698 	-0.688
 6.583 	0.854 	-0.844
 6.453 	0.403 	-0.321
 7.084 	0.063 	-0.429
 6.943 	-0.375 	-0.640
 5.629 	0.361 	-0.429
 5.476 	1.471 	0.029
 6.008 	1.200 	-0.035
 6.503 	0.712 	0.328
 6.723 	0.617 	-0.726
 6.820 	0.381 	-0.715
 6.625 	0.552 	-0.312
 6.275 	1.521 	-0.281
 6.315 	0.909 	-0.300
 6.500 	1.443 	-0.266
 6.484 	1.918 	-0.672
 6.885 	1.232 	-0.611
 7.192 	0.977 	-0.864
 7.113 	0.686 	-0.185
 6.373 	-0.155 	0.230
 7.062 	-0.517 	-0.426
 6.116 	0.460 	0.275
 6.818 	-0.002 	-0.474
 6.635 	0.515 	-0.038
 6.540 	0.571 	-0.118
 6.814 	0.446 	-0.336
 6.724 	0.566 	-0.343
 6.745 	0.679 	-0.411
 6.573 	1.143 	-0.115
 5.543 	0.737 	0.585
 5.834 	0.638 	0.644
 6.274 	0.789 	0.369
 6.980 	0.467 	0.219
 6.595 	0.990 	-0.094
 6.807 	0.785 	0.136
 6.344 	0.230 	-0.143
 7.219 	0.534 	0.191
 6.377 	0.262 	-0.370
 6.113 	0.074 	0.004
 6.370 	0.733 	0.046
 6.595 	0.280 	-0.117
 6.504 	0.184 	-0.077
 7.033 	0.827 	-0.012
 6.357 	1.315 	-0.052
 5.956 	1.666 	0.380
 6.026 	0.724 	0.580
 6.461 	-0.233 	0.414
 6.754 	0.315 	-0.143
 6.880 	0.280 	-0.447
 7.023 	0.426 	-0.784
 6.745 	0.361 	-0.564
 6.685 	1.032 	-0.443
 7.286 	0.403 	-0.438
 5.072 	0.827 	-0.024
 4.794 	0.531 	0.365
 4.897 	0.404 	0.182
 5.501 	0.255 	0.154
 5.734 	-0.032 	0.228
 5.861 	-0.010 	0.121
 6.239 	1.242 	-0.243
 6.723 	1.550 	0.017
 6.871 	0.781 	-0.148
 6.927 	0.328 	-0.348
 7.115 	0.112 	-0.236
 6.843 	0.149 	0.091
 6.791 	0.120 	0.053
 6.710 	0.252 	-0.976
 7.055 	0.957 	-0.559
 6.695 	0.692 	0.281
 5.842 	0.494 	-0.211
 6.022 	0.165 	-0.373
 5.931 	0.150 	-0.348
 6.235 	0.008 	-0.538
 6.154 	-0.116 	-0.313
 5.788 	0.166 	0.066
 5.864 	1.007 	0.394
 6.181 	0.503 	-0.117
 6.558 	0.328 	-0.082
 6.731 	0.448 	-0.024
 6.478 	0.465 	-0.064
 6.324 	0.482 	0.261
 5.937 	0.050 	-0.234
 5.831 	0.456 	-0.548
 5.679 	0.397 	0.043
 6.111 	0.305 	0.169
 6.230 	0.627 	-0.688
 6.406 	0.330 	-0.540
 6.155 	-0.182 	-0.506
 5.667 	-0.376 	-0.887
 5.841 	0.347 	-0.727
 5.331 	0.396 	-0.016
 5.060 	0.247 	0.197
 5.046 	0.187 	0.362
 4.944 	-0.045 	0.855
 5.635 	0.207 	0.451
 5.515 	0.459 	0.528
 6.093 	0.309 	-0.178
 5.503 	0.794 	-0.012
 5.331 	0.839 	0.699
 5.533 	-0.025 	0.389
 5.797 	-0.363 	-0.080
 5.793 	0.350 	-0.622
 5.372 	0.096 	-0.328
 4.357 	-0.325 	0.505
 4.744 	0.295 	0.588
 5.141 	0.540 	0.350
 5.674 	0.783 	0.090
 5.688 	0.821 	-0.202
 5.200 	0.628 	0.209
 4.833 	0.207 	0.399
 4.778 	-0.055 	0.521
 5.110 	0.542 	0.731
 5.176 	0.909 	0.375
 5.225 	1.123 	0.366
 5.455 	-0.036 	-0.058
 5.890 	-0.369 	0.250
 6.242 	-0.808 	0.051
 5.835 	0.637 	-0.612
 4.992 	0.329 	-0.458
 4.607 	0.079 	-0.077
 5.117 	0.410 	-0.276
 4.938 	1.141 	0.430
 4.788 	1.075 	0.253
 4.837 	1.033 	0.313
 5.034 	0.781 	-0.102
 4.966 	0.766 	-0.193
 4.721 	0.285 	-0.060
 4.303 	0.256 	-0.303
 4.734 	0.429 	-0.041
 5.528 	0.111 	0.044
 5.525 	-0.618 	0.166
 5.314 	-1.065 	0.498
 5.856 	-0.816 	0.535
 5.547 	0.379 	-0.562
 5.148 	0.886 	-0.412
 5.412 	0.049 	0.008
 5.435 	0.023 	-1.063
 5.005 	0.934 	-0.134
 4.495 	0.239 	0.055
 4.840 	0.049 	-0.158
 5.090 	0.097 	-0.221
 5.332 	0.134 	-0.169
 5.591 	0.036 	-0.400
 5.758 	-0.082 	-0.635
 5.857 	-0.116 	-0.611
 5.849 	-0.194 	-0.174
 5.422 	-0.207 	0.344
 5.242 	-0.695 	0.505
 5.542 	-1.299 	0.237
 5.846 	0.121 	-0.464
 5.776 	0.835 	-0.743
 5.930 	0.562 	-0.302
 4.678 	1.194 	-0.060
 4.714 	0.816 	-0.324
 4.679 	0.013 	-0.171
 4.951 	-0.181 	0.033
 5.164 	-0.240 	0.300
 5.715 	0.237 	-0.225
 5.762 	0.075 	-0.140
 5.784 	0.100 	-0.245
 5.407 	0.461 	0.177
 5.006 	0.376 	0.091
 5.483 	-0.298 	0.276
 5.807 	-0.385 	0.712
 5.815 	-2.022 	0.339
 5.488 	0.503 	-0.492
 5.854 	0.459 	-0.312
 5.082 	1.181 	-0.415
 4.890 	1.401 	-0.048
 5.159 	0.800 	-0.187
 5.230 	0.129 	-0.320
 5.411 	-0.350 	0.153
 5.587 	-0.163 	0.235
 5.381 	0.237 	0.174
 5.454 	0.557 	-0.169
 5.936 	0.289 	0.087
 5.911 	0.475 	-0.139
 5.975 	0.169 	0.144
 6.389 	0.113 	-0.316
 6.492 	-0.350 	-0.397
 6.050 	-1.923 	-0.648
 5.307 	0.249 	-0.333
 5.611 	0.667 	-0.158
 6.013 	0.899 	-0.753
 6.039 	0.973 	-0.232
 6.200 	0.968 	-0.082
 5.525 	0.310 	-0.013
 5.293 	-0.077 	0.429
 5.424 	0.039 	0.424
 5.442 	0.208 	0.332
 5.661 	0.412 	0.098
 5.557 	0.421 	-0.183
 5.791 	0.539 	-0.767
 5.842 	0.265 	-1.299
 6.401 	-0.163 	-1.124
 6.429 	0.001 	-1.161
 6.165 	-1.622 	-0.207
 7.531 	1.179 	-0.421
 7.244 	0.743 	-0.549
 7.076 	0.155 	-0.413
 7.145 	-0.082 	-0.562
 6.947 	0.250 	-0.437
 7.329 	-0.287 	0.090
 7.400 	0.429 	-0.302
 6.400 	0.269 	0.282
 6.469 	0.331 	0.488
 7.375 	0.701 	-0.433
 7.083 	-0.281 	-0.098
 6.420 	1.493 	0.746
 7.454 	0.977 	-0.131
 7.179 	-0.436 	-0.497
 6.540 	0.669 	-0.391
 6.599 	0.338 	-0.532
 6.651 	0.581 	-0.248
 7.112 	0.445 	-0.429
 6.778 	-0.095 	-0.308
 6.714 	-0.630 	-0.117
 6.789 	0.528 	-0.598
 5.790 	0.005 	0.290
 6.254 	0.354 	0.497
 6.579 	-0.448 	0.700
 6.951 	-0.303 	0.237
 6.984 	-0.453 	0.205
 7.530 	0.045 	-0.715
 7.604 	1.107 	-0.544
 8.668 	0.190 	-1.066
 7.497 	0.221 	-0.384
 6.375 	0.817 	-0.617
 6.243 	0.636 	-0.344
 6.732 	0.513 	-0.596
 6.619 	0.408 	-0.387
 6.770 	0.062 	-0.603
 5.867 	0.663 	0.862
 5.996 	1.130 	-0.320
 5.606 	0.482 	0.041
 6.466 	-0.235 	0.586
 7.364 	-0.589 	0.071
 7.468 	-0.771 	-0.327
 7.220 	-0.145 	0.510
 7.225 	0.137 	-0.033
 7.882 	0.297 	-0.080
 8.253 	0.064 	-1.278
 7.308 	0.475 	-0.221
 7.251 	1.181 	-0.630
 6.883 	0.092 	-0.419
 7.226 	0.460 	-0.927
 6.950 	0.560 	-0.549
 6.511 	0.656 	0.132
 6.684 	1.769 	0.311
 7.060 	0.537 	-0.689
 7.129 	1.170 	0.130
 6.913 	0.713 	-0.142
 6.925 	-0.109 	0.476
 7.238 	0.060 	0.129
 7.350 	0.353 	0.234
 7.614 	0.192 	-0.403
 7.602 	0.179 	-1.021
 7.276 	0.152 	-0.476
 7.137 	0.675 	-0.313
 7.139 	0.429 	0.019
 7.247 	0.118 	-0.104
 7.093 	0.267 	-0.343
 7.714 	0.725 	-0.784
 7.449 	0.767 	-0.294
 7.787 	1.050 	-0.225
 7.161 	1.178 	-0.374
 6.864 	0.840 	-0.477
 7.470 	0.951 	-0.520
 7.835 	0.687 	-0.380
 7.725 	0.178 	0.251
 6.914 	-0.154 	0.011
 6.956 	0.044 	-0.471
 7.123 	0.568 	-0.611
 7.360 	0.673 	-0.586
 7.345 	0.656 	-0.410
 7.272 	0.472 	-0.069
 7.261 	0.095 	-0.179
 6.267 	0.434 	-0.030
 6.524 	1.041 	0.272
 7.082 	1.397 	0.066
 7.084 	0.982 	-0.139
 7.498 	0.744 	-0.304
 7.428 	0.860 	-0.390
 7.103 	0.618 	-0.706
 6.772 	0.859 	0.445
 7.097 	0.627 	0.278
 6.687 	0.111 	0.818
 6.595 	0.328 	0.248
 6.959 	0.520 	0.096
 7.261 	0.928 	-0.278
 7.487 	0.922 	-0.266
 7.185 	0.232 	0.074
 7.039 	0.205 	-0.373
 6.713 	0.966 	-0.221
 6.932 	0.367 	-0.049
 7.412 	1.160 	-0.127
 7.092 	1.100 	-0.427
 6.559 	-0.182 	0.417
 7.139 	0.800 	-0.341
 7.055 	0.843 	-0.250
 7.011 	1.372 	0.149
 7.155 	0.981 	0.210
 6.968 	0.952 	0.306
 7.109 	0.692 	-0.122
 7.301 	0.465 	-0.367
 7.287 	0.689 	-0.391
 6.848 	0.500 	-0.403
 6.291 	0.258 	-0.551
 6.404 	0.415 	-0.603
 6.394 	0.971 	-0.455
 5.890 	0.210 	0.530
 6.289 	0.675 	-0.520
 7.061 	1.464 	-0.319
 6.689 	0.272 	0.367
 6.051 	0.284 	0.185
 6.710 	0.812 	-0.178
 6.699 	1.176 	-0.159
 6.627 	0.494 	0.203
 6.904 	0.451 	-0.116
 6.889 	0.426 	0.113
 6.691 	0.399 	0.172
 6.997 	1.081 	-0.189
 6.172 	0.593 	-0.732
 6.230 	0.471 	-0.285
 5.922 	0.197 	0.429
 6.001 	0.741 	-0.043
 5.710 	0.284 	-0.044
 5.507 	0.427 	0.161
 6.073 	0.699 	0.040
 6.081 	0.395 	-0.192
 5.811 	0.027 	0.296
 5.711 	0.390 	0.441
 6.297 	0.738 	0.600
 6.498 	0.149 	0.266
 6.299 	0.072 	0.111
 6.158 	-0.182 	-0.021
 6.806 	0.108 	-0.000
 6.767 	0.896 	-0.245
 6.850 	0.513 	-0.069
 6.772 	0.515 	0.804
 6.132 	0.295 	0.729
 6.551 	0.456 	-0.712
 6.715 	0.314 	-0.505
 6.310 	0.130 	-0.143
 6.535 	0.392 	-0.180
 6.134 	0.021 	-0.487
 6.410 	0.363 	-0.446
 6.157 	0.556 	-0.160
 5.788 	0.383 	0.395
 5.789 	0.133 	0.519
 5.705 	0.089 	0.490
 6.037 	-0.033 	0.073
 6.090 	0.150 	-0.032
 5.995 	0.610 	-0.190
 5.428 	0.513 	0.459
 5.493 	0.211 	0.276
 5.701 	-0.084 	0.202
 6.017 	0.300 	-0.434
 6.246 	0.362 	-0.053
 6.203 	0.437 	0.321
 6.271 	0.425 	-0.124
 5.948 	-0.215 	-0.476
 5.555 	0.372 	0.156
 5.531 	0.670 	0.055
 5.582 	0.591 	0.215
 5.659 	0.601 	0.326
 5.257 	0.160 	-0.127
 5.515 	0.485 	0.095
 5.308 	0.110 	0.046
 5.740 	0.926 	0.561
 6.121 	0.784 	0.413
 6.002 	0.093 	0.276
 6.235 	-0.260 	-0.065
 5.719 	0.282 	-0.459
 5.952 	0.516 	-0.213
 5.913 	0.492 	0.043
 5.670 	0.296 	-0.553
 4.599 	0.664 	0.209
 4.045 	0.580 	0.386
 4.167 	0.310 	0.214
 4.564 	0.000 	-0.005
 4.697 	0.484 	-0.375
 4.537 	0.450 	-0.039
 4.738 	0.104 	0.046
 5.226 	-0.101 	0.391
 5.264 	0.538 	0.643
 5.442 	0.481 	0.609
 5.878 	-0.190 	0.442
 6.251 	-0.675 	0.318
 6.102 	0.313 	-0.454
 5.960 	0.319 	-0.672
 6.224 	0.727 	-0.151
 5.878 	0.805 	-0.550
 4.163 	0.767 	0.645
 4.439 	0.780 	0.391
 5.394 	0.574 	-0.318
 5.367 	0.621 	-0.280
 5.303 	0.738 	-0.182
 5.731 	0.397 	-0.370
 6.128 	-0.152 	-0.588
 6.424 	0.073 	-0.922
 6.009 	0.142 	-0.465
 5.983 	0.052 	-0.176
 6.114 	-0.155 	0.255
 5.855 	-0.408 	0.398
 5.905 	0.507 	-0.500
 5.878 	0.392 	-0.507
 5.906 	0.661 	-0.296
 6.241 	0.926 	-0.479
 6.465 	1.287 	-0.572
 6.265 	0.857 	-0.189
 6.123 	0.630 	-0.164
 6.317 	0.607 	-0.246
 6.211 	0.731 	-0.164
 6.270 	0.443 	-0.434
 6.272 	0.155 	-0.148
 6.140 	0.373 	-0.262
 6.683 	0.492 	-0.347
 6.489 	0.563 	-0.452
 6.387 	0.220 	0.078
 6.360 	-0.204 	0.364
 5.991 	0.482 	-0.555
 6.019 	0.095 	-0.623
 5.996 	0.861 	-0.079
 5.812 	1.038 	0.267
 5.705 	1.158 	-0.146
 6.330 	0.825 	-0.243
 5.633 	0.871 	0.104
 5.577 	0.780 	-0.039
 6.126 	0.632 	-0.229
 6.217 	0.384 	-0.369
 6.210 	0.470 	-0.162
 5.881 	0.495 	-0.197
 5.896 	0.405 	-0.523
 6.205 	0.679 	-0.545
 6.572 	0.437 	-0.519
 6.617 	-0.098 	-0.789
 5.612 	0.037 	-0.140
 6.049 	0.057 	-0.396
 5.957 	0.645 	-0.179
 6.528 	1.128 	-0.179
 6.611 	1.150 	-0.403
 6.067 	0.892 	0.157
 5.898 	0.796 	0.270
 6.053 	0.868 	0.070
 5.996 	0.942 	0.250
 5.828 	0.726 	-0.243
 5.839 	0.496 	-0.566
 6.357 	0.122 	-0.627
 6.066 	0.142 	-0.462
 6.435 	-0.064 	-0.501
 6.882 	-0.209 	-0.268
 6.808 	-0.107 	-0.731
 7.539 	0.724 	-0.286
 7.697 	0.673 	-0.552
 7.568 	0.423 	-0.444
 7.790 	0.635 	-0.368
 7.756 	0.304 	-0.257
 8.452 	0.465 	-0.139
 8.513 	0.111 	-0.513
 8.548 	0.215 	0.086
 8.340 	-0.083 	-0.324
 8.351 	0.747 	-0.621
 8.330 	0.655 	0.083
 8.682 	-0.094 	0.349
 8.690 	0.465 	-0.650
 8.036 	-0.277 	-0.427
 8.113 	0.385 	-0.900
 8.608 	0.312 	-0.341
 7.153 	0.992 	-0.124
 7.278 	0.627 	-0.361
 7.399 	0.591 	-0.375
 7.438 	0.342 	-0.298
 7.464 	0.129 	-0.142
 7.351 	-0.124 	-0.360
 7.403 	-0.010 	-0.422
 7.960 	0.571 	0.532
 8.080 	0.918 	0.344
 7.872 	0.612 	-0.021
 8.527 	0.730 	-0.658
 8.866 	0.827 	-0.620
 8.077 	0.127 	-0.312
 8.075 	0.196 	-0.050
 8.258 	0.241 	-0.210
 8.079 	0.766 	-0.297
 7.103 	1.039 	-0.305
 7.278 	0.735 	-0.559
 7.586 	0.538 	-0.392
 7.836 	0.449 	-0.144
 7.619 	0.438 	-0.088
 7.339 	0.317 	-0.587
 7.374 	1.081 	0.154
 7.313 	0.953 	-0.022
 7.081 	1.003 	0.210
 7.757 	0.531 	0.079
 8.460 	0.511 	-0.662
 8.192 	0.553 	0.052
 7.701 	0.152 	-0.579
 7.632 	0.678 	-0.187
 8.283 	0.050 	-0.170
 8.250 	1.012 	-0.009
 7.524 	0.953 	-0.822
 7.805 	0.713 	-0.831
 7.895 	0.587 	-0.472
 7.568 	0.749 	-0.113
 7.840 	0.706 	-0.490
 7.264 	0.701 	-0.317
 7.360 	1.148 	-0.033
 7.392 	0.516 	-0.281
 7.600 	0.345 	0.006
 7.378 	-0.147 	0.024
 7.295 	-0.514 	-0.292
 7.561 	0.178 	-0.197
 7.392 	0.372 	-0.965
 7.781 	0.135 	-0.160
 7.260 	0.625 	0.071
 7.235 	0.579 	0.063
 7.929 	0.658 	-0.468
 7.801 	0.899 	-0.708
 7.416 	0.893 	-0.306
 7.431 	0.670 	-0.987
 8.053 	0.930 	-0.318
 7.651 	1.284 	-0.396
 8.060 	1.378 	-0.603
 7.598 	0.868 	-0.150
 7.255 	0.218 	0.411
 7.331 	-0.109 	0.125
 7.472 	-0.422 	-0.460
 7.999 	0.038 	-0.636
 8.086 	0.258 	-1.026