# vtk DataFile Version 3.0
HighT1
ASCII
DATASET STRUCTURED_POINTS
DIMENSIONS 16 16 19
ORIGIN 929.001000000000 929.001000000000 5.001000000000
SPACING 10.000000000000 10.000000000000 10.000000000000
POINT_DATA 4864
 FIELD attributes 1
U 3 4864 float
3.546 	0.727 	0.187
 3.381 	0.775 	0.861
 2.264 	0.235 	0.621
 2.809 	0.372 	0.045
 2.943 	-0.127 	0.152
 3.696 	0.049 	0.119
 5.121 	1.108 	-0.544
 4.808 	1.759 	0.160
 3.974 	1.097 	-0.075
 5.054 	0.803 	0.115
 5.166 	0.129 	-0.332
 4.382 	-0.232 	0.421
 3.744 	-0.565 	0.109
 3.624 	-0.493 	0.191
 4.129 	-0.733 	0.078
 4.672 	-0.355 	-0.589
 2.619 	0.594 	0.379
 2.946 	0.793 	-0.159
 3.397 	-0.216 	0.126
 4.239 	0.055 	-0.017
 4.163 	-1.077 	-0.155
 4.292 	-0.197 	-0.353
 3.887 	1.089 	-0.113
 4.066 	1.626 	0.146
 4.441 	1.344 	0.076
 4.694 	1.293 	-0.272
 5.156 	0.210 	-0.524
 4.821 	-0.222 	-0.314
 5.486 	0.663 	-0.284
 4.115 	-0.281 	-0.149
 4.096 	0.191 	-0.375
 4.417 	-0.217 	-0.074
 3.989 	0.155 	-0.487
 3.891 	0.576 	-0.024
 3.146 	0.403 	0.183
 2.987 	-0.247 	0.129
 2.610 	0.333 	0.204
 2.586 	0.241 	0.379
 3.230 	0.502 	0.306
 3.902 	1.145 	0.058
 4.059 	0.651 	-0.174
 4.374 	0.483 	-0.453
 4.388 	0.346 	-0.128
 3.414 	-0.204 	0.704
 3.366 	-0.009 	0.143
 3.532 	0.437 	0.152
 3.843 	0.461 	0.340
 3.588 	0.872 	-0.063
 3.901 	-0.096 	-0.051
 3.856 	0.778 	-0.245
 4.441 	-0.119 	-0.269
 3.772 	-0.176 	0.192
 3.453 	0.357 	-0.277
 3.135 	-0.227 	-0.138
 3.208 	0.055 	0.401
 3.000 	0.470 	-0.053
 2.596 	0.341 	0.249
 2.616 	0.875 	0.228
 2.898 	0.129 	0.552
 3.127 	-0.577 	0.408
 2.974 	-0.688 	-0.030
 3.674 	0.679 	0.157
 3.718 	-0.112 	0.253
 3.652 	1.193 	-0.107
 3.602 	-0.670 	0.019
 3.611 	0.440 	0.136
 2.600 	0.356 	0.485
 3.071 	0.249 	0.040
 3.242 	0.211 	-0.066
 3.187 	0.267 	0.137
 2.538 	-0.238 	0.198
 3.056 	-0.207 	0.197
 3.001 	0.003 	0.177
 3.024 	0.263 	0.182
 2.952 	-0.206 	0.057
 2.997 	-0.595 	-0.327
 3.552 	-0.018 	-0.343
 3.123 	0.605 	-0.112
 2.964 	-0.384 	0.224
 3.342 	0.584 	-0.069
 4.236 	0.199 	0.022
 3.765 	0.103 	0.073
 3.839 	-0.485 	-0.091
 3.977 	-0.254 	0.308
 4.220 	0.308 	-0.116
 4.221 	0.311 	-0.161
 4.339 	-0.527 	0.008
 3.970 	-0.632 	0.166
 3.197 	-0.498 	0.233
 3.963 	0.478 	-0.135
 3.762 	0.027 	0.205
 3.818 	0.104 	-0.114
 3.409 	-0.662 	0.056
 2.845 	-0.301 	0.419
 3.478 	-0.808 	0.243
 3.765 	-0.184 	0.111
 4.630 	0.342 	-0.094
 4.865 	0.616 	-0.106
 4.533 	-0.011 	-0.178
 4.613 	-0.300 	-0.134
 4.310 	-0.037 	0.184
 4.539 	-0.028 	0.048
 4.489 	-0.397 	-0.094
 4.465 	0.138 	0.122
 3.616 	-0.355 	0.364
 3.805 	0.135 	-0.070
 3.454 	-0.053 	0.099
 3.482 	0.155 	0.022
 4.015 	0.289 	-0.284
 4.234 	-0.197 	-0.303
 4.119 	-0.587 	-0.365
 4.225 	-0.264 	-0.507
 4.493 	0.360 	-0.105
 4.538 	0.726 	-0.017
 4.622 	-0.002 	-0.307
 3.679 	0.303 	0.466
 3.444 	-0.643 	-0.078
 4.290 	-0.072 	-0.529
 4.449 	0.563 	-0.544
 3.866 	0.411 	-0.007
 3.087 	0.506 	0.164
 3.033 	0.120 	-0.115
 3.738 	-0.112 	-0.429
 3.738 	-0.257 	-0.182
 4.147 	-0.189 	-0.541
 4.384 	-0.034 	-0.249
 4.459 	-0.209 	0.075
 4.244 	-0.515 	0.032
 3.824 	0.595 	-0.076
 3.597 	0.433 	0.479
 3.985 	1.014 	0.173
 4.318 	0.068 	-0.238
 4.876 	0.063 	0.055
 2.468 	-0.200 	0.465
 2.452 	1.008 	0.388
 3.508 	1.008 	-0.220
 3.978 	0.862 	-0.131
 4.269 	0.364 	-0.246
 4.457 	0.024 	-0.427
 3.939 	-0.245 	0.200
 3.952 	-0.118 	0.053
 4.244 	-0.326 	0.145
 4.001 	-0.061 	0.067
 3.909 	-0.028 	0.159
 3.514 	0.395 	0.199
 3.873 	0.191 	0.129
 4.021 	0.434 	-0.386
 4.046 	-0.177 	-0.301
 4.291 	0.407 	0.300
 4.589 	0.860 	-0.097
 3.748 	0.616 	0.028
 3.641 	0.608 	0.039
 4.152 	1.107 	-0.129
 4.263 	0.848 	-0.041
 4.566 	0.437 	-0.100
 4.317 	-0.230 	0.084
 3.668 	-0.133 	0.002
 3.276 	-0.645 	0.409
 3.354 	0.355 	0.078
 3.527 	-0.000 	-0.173
 3.709 	0.129 	-0.155
 3.775 	-0.473 	-0.040
 3.080 	-0.166 	0.270
 3.433 	-0.307 	0.064
 3.612 	0.166 	0.012
 4.057 	0.850 	0.078
 4.489 	0.645 	-0.134
 4.316 	0.428 	-0.075
 4.188 	0.536 	0.115
 4.591 	0.941 	-0.053
 4.162 	0.575 	-0.290
 3.898 	0.325 	-0.290
 3.963 	0.410 	0.098
 4.040 	0.232 	-0.252
 3.341 	-0.145 	-0.076
 3.291 	-0.152 	-0.051
 3.100 	0.228 	0.266
 3.112 	-0.263 	-0.005
 3.193 	0.045 	0.153
 2.629 	-0.671 	0.103
 3.276 	0.281 	-0.081
 3.178 	0.547 	0.226
 2.991 	0.050 	0.201
 2.648 	-0.276 	0.292
 3.109 	-0.202 	0.097
 3.142 	0.257 	0.087
 3.079 	0.483 	0.165
 3.015 	0.271 	0.101
 2.809 	0.328 	0.400
 3.257 	0.027 	0.271
 3.653 	0.073 	-0.016
 4.084 	-0.101 	-0.098
 3.542 	-0.186 	0.371
 3.893 	-0.490 	-0.520
 4.024 	-0.369 	0.250
 3.529 	-0.503 	0.327
 2.592 	0.158 	0.377
 2.957 	0.258 	0.130
 3.628 	-0.765 	0.019
 3.761 	-0.354 	0.135
 2.471 	-0.284 	0.086
 2.426 	-0.024 	0.394
 2.225 	0.191 	0.300
 2.753 	0.780 	0.359
 3.396 	-0.260 	0.040
 3.502 	-0.500 	-0.096
 3.594 	-0.327 	-0.052
 3.197 	0.023 	0.399
 4.007 	-0.057 	0.021
 4.009 	-0.368 	-0.308
 3.753 	-0.570 	-0.155
 3.942 	-0.094 	-0.015
 3.851 	0.343 	-0.203
 3.887 	0.015 	-0.275
 4.153 	0.150 	0.160
 2.865 	-0.733 	0.116
 3.258 	-0.609 	-0.080
 3.589 	-0.243 	-0.285
 3.722 	0.033 	0.022
 3.826 	0.335 	-0.196
 4.134 	-0.204 	-0.331
 4.011 	0.063 	-0.236
 4.198 	0.067 	0.061
 3.959 	-0.342 	0.128
 4.251 	0.482 	-0.352
 4.379 	0.577 	0.021
 3.325 	-0.219 	0.302
 2.925 	-0.225 	0.001
 3.443 	-0.108 	-0.055
 3.368 	0.312 	-0.011
 3.774 	0.204 	-0.062
 3.981 	-0.363 	-0.181
 3.765 	-0.170 	0.184
 3.496 	-0.286 	-0.050
 3.324 	0.022 	-0.004
 3.427 	0.243 	-0.029
 3.471 	0.114 	-0.108
 3.875 	0.496 	-0.069
 3.924 	0.310 	-0.229
 2.952 	-0.369 	0.083
 2.884 	0.032 	-0.027
 3.489 	0.145 	-0.085
 3.328 	0.157 	0.163
 3.753 	-0.710 	-0.004
 2.904 	-0.518 	0.125
 3.121 	-0.004 	0.203
 3.538 	0.336 	-0.328
 3.120 	-0.118 	0.109
 3.262 	-0.146 	-0.352
 2.798 	0.137 	0.181
 2.529 	0.209 	0.444
 2.670 	-0.155 	-0.193
 3.107 	0.324 	0.121
 3.089 	0.258 	0.007
 2.926 	0.162 	0.244
 3.259 	0.126 	-0.125
 5.069 	0.455 	0.149
 5.650 	1.402 	0.560
 5.182 	0.625 	0.525
 4.703 	0.246 	0.143
 4.636 	0.476 	0.567
 4.719 	-0.177 	0.504
 5.068 	-0.251 	0.429
 5.741 	0.690 	-0.064
 5.478 	0.935 	0.212
 5.490 	2.076 	0.173
 5.919 	1.078 	0.339
 5.940 	0.740 	-0.199
 5.269 	0.074 	0.192
 5.965 	0.510 	-0.008
 5.928 	-0.742 	-0.548
 6.311 	-0.460 	0.026
 4.169 	0.650 	0.250
 5.113 	1.046 	0.411
 6.084 	0.087 	-0.160
 6.555 	0.323 	-0.389
 5.995 	0.432 	-0.083
 5.681 	0.172 	-0.966
 5.247 	-0.118 	-0.267
 4.690 	0.540 	0.357
 5.126 	0.334 	-0.120
 5.327 	0.784 	0.362
 5.968 	1.425 	0.348
 5.663 	0.861 	-0.026
 5.865 	0.481 	-0.173
 5.905 	0.350 	-0.405
 5.963 	0.120 	-0.427
 4.864 	-0.563 	-0.497
 5.911 	0.505 	-0.152
 5.334 	0.194 	0.469
 4.565 	0.082 	0.720
 4.923 	0.612 	-0.026
 5.463 	1.000 	-0.014
 5.083 	0.406 	-0.156
 4.926 	-0.260 	0.427
 5.646 	0.052 	-0.013
 5.539 	1.135 	-0.312
 5.399 	0.571 	-0.236
 5.192 	0.507 	0.216
 5.476 	0.462 	-0.244
 4.974 	0.544 	0.305
 4.367 	-0.000 	0.006
 4.623 	0.301 	0.036
 4.315 	-0.032 	0.170
 4.992 	0.132 	0.481
 5.034 	0.303 	0.432
 4.244 	0.015 	0.629
 3.787 	0.149 	0.410
 4.211 	0.042 	-0.037
 4.710 	0.571 	-0.047
 5.245 	0.228 	-0.139
 4.443 	0.100 	-0.019
 4.616 	0.635 	0.005
 3.308 	0.278 	0.938
 3.557 	0.672 	0.543
 4.322 	0.669 	0.306
 4.705 	0.396 	-0.125
 4.446 	0.546 	-0.064
 3.910 	-0.377 	0.296
 4.591 	-0.051 	-0.060
 4.676 	-0.432 	0.051
 5.034 	-0.415 	0.285
 5.217 	-0.105 	-0.019
 3.893 	0.068 	0.227
 3.571 	0.159 	0.312
 4.101 	0.433 	0.063
 3.613 	0.328 	0.399
 3.872 	-0.139 	0.459
 4.320 	0.138 	0.291
 4.264 	0.344 	-0.082
 4.247 	0.508 	-0.011
 4.176 	0.210 	-0.118
 3.973 	0.464 	0.200
 4.542 	0.291 	0.074
 4.434 	-0.590 	0.009
 4.251 	0.045 	-0.059
 5.440 	-0.046 	-0.204
 5.207 	0.141 	0.158
 5.401 	-0.674 	0.532
 5.381 	-0.241 	0.090
 5.387 	-0.028 	0.096
 5.687 	0.281 	0.038
 5.462 	-0.020 	-0.214
 4.509 	-0.494 	0.065
 4.646 	-0.567 	0.599
 4.574 	0.400 	0.380
 4.711 	0.499 	0.044
 4.742 	0.582 	-0.364
 4.410 	0.116 	0.032
 4.210 	0.364 	0.298
 4.554 	-0.616 	0.319
 4.332 	-0.066 	0.393
 4.938 	-0.348 	0.071
 5.387 	-0.000 	-0.272
 5.626 	-0.310 	-0.112
 5.496 	-0.243 	-0.339
 5.521 	-0.398 	-0.507
 6.012 	0.028 	-0.054
 6.206 	0.169 	-0.655
 5.626 	0.012 	-0.252
 5.290 	0.085 	0.428
 4.867 	0.097 	0.275
 4.308 	0.023 	0.513
 4.906 	0.076 	0.139
 5.167 	0.754 	-0.584
 5.308 	0.552 	-0.548
 5.085 	-0.291 	-0.250
 5.021 	-0.242 	-0.222
 4.259 	-0.318 	0.181
 4.676 	-0.427 	-0.018
 5.036 	-0.079 	-0.415
 5.134 	0.096 	-0.517
 5.169 	-0.603 	-0.063
 5.576 	-0.051 	-0.521
 5.416 	0.361 	-0.349
 5.422 	0.709 	0.064
 5.370 	0.315 	-0.050
 5.139 	0.269 	-0.183
 5.311 	0.518 	-0.172
 4.782 	-0.226 	0.059
 4.634 	0.406 	0.125
 4.336 	0.400 	-0.065
 4.973 	-0.084 	-0.222
 4.667 	-0.268 	-0.028
 3.723 	-0.259 	0.310
 3.861 	-1.157 	0.045
 3.329 	-0.376 	0.286
 4.160 	-0.405 	0.228
 4.607 	-0.503 	-0.127
 5.118 	0.060 	0.235
 5.225 	-0.138 	0.008
 4.909 	0.545 	-0.473
 4.864 	0.032 	-0.381
 5.044 	-0.274 	-0.608
 4.861 	0.302 	-0.391
 4.530 	0.431 	0.347
 4.284 	0.070 	0.419
 4.600 	-0.121 	0.274
 4.454 	-0.771 	0.110
 4.817 	-0.685 	-0.258
 4.674 	-0.815 	0.447
 4.037 	-0.690 	0.312
 3.493 	-0.753 	0.409
 4.293 	-0.807 	0.093
 3.884 	-0.897 	0.022
 4.284 	0.021 	-0.244
 4.381 	0.303 	-0.159
 4.706 	-0.065 	0.078
 4.411 	0.265 	0.472
 4.382 	0.264 	-0.437
 4.606 	0.514 	-0.522
 4.897 	0.607 	-0.466
 4.987 	0.196 	-0.288
 4.474 	-0.168 	0.029
 4.639 	-0.283 	-0.005
 4.594 	-0.452 	-0.427
 4.825 	-0.457 	0.424
 4.671 	-0.228 	0.281
 4.446 	-0.097 	-0.220
 3.800 	-0.987 	0.030
 4.332 	-0.561 	-0.419
 4.097 	0.084 	-0.136
 3.950 	-0.201 	0.723
 4.194 	-0.266 	0.388
 4.405 	-0.166 	0.663
 3.912 	0.368 	0.065
 4.079 	0.397 	-0.153
 4.157 	0.476 	0.382
 4.884 	0.763 	-0.413
 4.756 	0.042 	-0.336
 5.068 	0.340 	-0.467
 4.684 	-0.042 	-0.418
 4.576 	0.232 	-0.103
 3.773 	-0.312 	0.281
 4.369 	-0.272 	0.284
 4.371 	-0.758 	0.139
 3.929 	-0.840 	0.310
 4.081 	0.347 	-0.171
 3.109 	0.091 	0.596
 3.043 	-0.457 	0.001
 3.553 	-0.325 	0.348
 3.176 	-0.156 	0.506
 3.352 	0.387 	0.748
 3.989 	0.854 	-0.246
 4.112 	0.486 	-0.439
 4.507 	0.189 	-0.412
 4.388 	0.363 	0.025
 4.476 	0.272 	0.123
 5.475 	0.940 	0.262
 5.433 	0.820 	-0.796
 5.294 	-0.203 	0.142
 5.423 	-0.702 	0.236
 4.079 	-0.278 	-0.052
 3.741 	0.562 	0.384
 3.648 	0.050 	0.336
 3.684 	0.007 	0.241
 3.704 	-0.004 	0.288
 3.159 	0.003 	0.427
 3.346 	0.088 	0.248
 3.872 	0.320 	-0.298
 4.030 	0.815 	0.022
 4.317 	1.009 	-0.249
 4.454 	0.758 	-0.597
 4.791 	0.515 	-0.604
 5.443 	0.820 	-0.239
 5.187 	0.624 	-0.095
 4.481 	-0.106 	0.345
 4.251 	-0.019 	0.203
 4.016 	-0.364 	-0.098
 4.305 	-0.038 	-0.202
 4.425 	-0.093 	-0.093
 4.307 	-0.222 	-0.154
 4.530 	-0.082 	0.164
 3.850 	-0.255 	0.144
 3.782 	-0.545 	0.483
 4.048 	0.155 	-0.260
 4.072 	0.841 	-0.147
 4.251 	0.784 	-0.171
 4.350 	0.736 	-0.359
 4.829 	0.525 	-0.255
 5.200 	0.509 	0.192
 4.789 	0.508 	0.344
 4.606 	0.349 	0.020
 4.120 	-0.064 	0.357
 4.375 	-0.025 	-0.033
 4.488 	-0.376 	-0.036
 4.163 	-0.317 	-0.015
 4.210 	0.019 	-0.138
 4.209 	-0.051 	-0.024
 3.938 	-0.301 	0.038
 3.661 	-0.665 	0.194
 3.266 	-0.565 	0.047
 3.750 	0.307 	0.248
 3.967 	0.040 	0.317
 4.489 	0.401 	0.177
 4.658 	0.621 	0.062
 4.284 	0.426 	0.652
 4.040 	0.098 	0.806
 4.302 	0.062 	0.266
 4.094 	-0.274 	0.113
 4.089 	-0.299 	-0.011
 4.173 	-0.625 	0.106
 4.217 	-0.039 	-0.197
 3.988 	-0.092 	-0.219
 3.569 	-0.196 	0.157
 3.491 	-0.522 	0.134
 3.205 	-0.726 	0.414
 3.528 	-1.007 	0.327
 3.383 	-0.940 	0.175
 3.782 	-1.238 	0.136
 3.899 	-0.150 	-0.218
 4.343 	0.548 	-0.527
 5.829 	0.188 	0.313
 5.965 	0.139 	0.458
 5.652 	0.146 	0.296
 5.083 	1.384 	0.686
 5.765 	0.635 	0.548
 6.946 	0.251 	-0.170
 6.876 	-0.395 	0.143
 6.216 	-0.054 	-0.049
 5.986 	0.221 	0.400
 6.811 	1.139 	0.162
 6.456 	2.184 	0.728
 7.174 	0.785 	-0.257
 5.519 	1.662 	0.278
 5.321 	1.823 	-0.581
 5.773 	1.802 	-0.746
 6.171 	0.864 	-0.623
 5.799 	0.804 	0.457
 6.844 	0.132 	0.308
 6.610 	0.828 	0.182
 6.938 	0.686 	-0.334
 6.901 	1.155 	-0.264
 6.918 	0.127 	-0.666
 6.926 	0.486 	-0.222
 6.784 	0.746 	0.727
 6.935 	-0.089 	0.307
 6.141 	0.451 	1.165
 6.635 	1.671 	0.374
 6.074 	0.971 	0.486
 6.776 	1.151 	0.302
 6.372 	0.711 	0.089
 6.281 	1.273 	-0.207
 6.418 	0.924 	-0.075
 6.384 	0.872 	-0.068
 5.691 	0.374 	0.597
 7.087 	0.689 	-0.048
 7.525 	0.908 	-0.597
 6.743 	0.888 	0.129
 6.613 	0.253 	-0.312
 6.556 	0.379 	0.501
 6.852 	0.539 	0.535
 5.870 	-0.249 	0.790
 5.330 	-0.157 	0.366
 5.577 	0.785 	0.304
 6.492 	1.571 	0.200
 5.658 	1.007 	0.574
 5.278 	0.989 	0.224
 5.340 	0.608 	0.361
 4.884 	0.164 	-0.431
 5.160 	0.819 	1.233
 5.265 	0.734 	0.387
 5.624 	0.515 	0.751
 6.019 	0.675 	0.735
 6.402 	1.281 	-0.206
 5.897 	0.929 	0.461
 5.133 	0.351 	1.121
 4.679 	-0.384 	0.295
 4.700 	-0.198 	0.677
 4.304 	-0.305 	0.299
 3.511 	0.117 	1.176
 4.532 	0.122 	0.350
 5.345 	0.900 	-0.028
 5.087 	0.527 	0.568
 5.350 	0.619 	0.109
 5.114 	0.910 	-0.642
 5.344 	0.852 	-0.030
 5.820 	-0.025 	0.773
 6.122 	0.602 	0.314
 5.308 	-0.157 	0.378
 5.710 	1.282 	-0.318
 5.832 	1.465 	0.594
 5.006 	0.276 	0.802
 4.658 	-0.338 	0.404
 4.964 	-0.146 	0.475
 4.554 	0.036 	0.576
 5.226 	-0.064 	0.427
 4.433 	-0.147 	0.458
 4.235 	0.096 	0.634
 4.684 	0.305 	0.818
 4.310 	0.515 	0.566
 4.556 	0.375 	0.329
 6.020 	0.702 	-0.342
 5.929 	-0.084 	0.207
 5.683 	0.007 	1.142
 5.889 	0.743 	0.330
 5.328 	0.598 	0.440
 5.586 	0.584 	0.736
 5.626 	0.314 	0.402
 5.728 	-0.122 	0.327
 5.256 	-0.319 	0.540
 5.393 	-0.003 	0.060
 5.778 	-0.771 	-0.044
 5.823 	-0.333 	-0.292
 5.553 	0.118 	-0.192
 4.721 	0.466 	0.365
 4.500 	0.755 	-0.201
 4.067 	0.108 	0.412
 6.075 	0.291 	0.019
 6.454 	0.112 	0.136
 5.604 	0.517 	0.160
 5.170 	0.316 	0.053
 5.652 	-0.298 	-0.277
 6.048 	0.120 	-0.026
 6.050 	-0.108 	-0.478
 5.413 	0.064 	0.284
 5.446 	0.077 	0.773
 5.335 	-0.068 	-0.055
 5.559 	-0.476 	0.317
 5.564 	-0.111 	-0.173
 5.271 	0.014 	-0.205
 5.877 	0.179 	-0.092
 5.543 	0.462 	-0.165
 5.287 	0.626 	-0.471
 5.021 	-0.138 	0.105
 5.230 	0.185 	0.221
 5.649 	0.598 	0.048
 4.682 	-0.571 	0.479
 5.168 	-0.982 	0.284
 5.296 	-0.221 	-0.382
 5.427 	-0.126 	-0.250
 5.582 	0.294 	-0.053
 5.659 	0.178 	0.286
 5.593 	0.016 	-0.455
 5.449 	0.171 	0.167
 5.275 	0.069 	-0.197
 5.161 	-0.235 	-0.007
 5.208 	0.274 	-0.195
 5.394 	0.898 	-0.012
 5.312 	1.174 	-0.133
 4.438 	-0.116 	1.103
 4.663 	-1.204 	0.734
 3.893 	-0.588 	0.862
 4.686 	-0.960 	-0.575
 4.882 	-1.008 	-0.012
 4.362 	-0.472 	0.469
 4.718 	-0.020 	0.155
 4.623 	0.006 	0.466
 5.431 	0.334 	-0.053
 5.325 	0.360 	-0.331
 5.066 	0.144 	-0.170
 4.846 	0.007 	-0.099
 4.597 	0.381 	0.288
 4.501 	0.244 	0.532
 4.799 	0.957 	-0.083
 5.104 	0.845 	-0.477
 5.428 	-0.532 	-0.427
 5.302 	-1.121 	0.549
 5.663 	-0.726 	0.277
 5.755 	-0.841 	-0.013
 5.223 	-0.730 	-0.355
 4.414 	-0.784 	0.244
 3.857 	-0.819 	0.577
 3.847 	-0.461 	0.157
 4.276 	-0.893 	-0.015
 5.256 	-0.368 	-0.878
 5.157 	0.005 	-0.848
 5.053 	0.490 	-0.289
 4.977 	0.608 	-0.261
 4.618 	0.717 	-0.309
 4.571 	0.860 	-0.562
 5.174 	0.820 	-0.907
 5.945 	-0.348 	0.301
 6.286 	-0.580 	0.014
 6.241 	-1.030 	0.122
 5.771 	-0.729 	-0.107
 5.520 	-0.338 	-0.064
 4.491 	-0.587 	-0.150
 3.537 	-0.159 	0.843
 2.973 	-0.621 	0.553
 3.673 	-0.752 	0.063
 4.687 	-1.227 	0.586
 4.402 	0.179 	-0.419
 4.778 	0.450 	-0.776
 5.048 	0.701 	-0.363
 5.141 	0.681 	-0.487
 5.331 	0.422 	-0.885
 5.333 	0.276 	-0.500
 6.089 	-0.524 	-0.550
 5.862 	0.074 	0.044
 5.298 	-0.279 	0.539
 5.163 	-0.191 	0.094
 4.763 	-0.687 	0.509
 4.953 	-0.452 	0.181
 4.185 	0.158 	0.298
 3.850 	-0.840 	0.218
 3.756 	-0.173 	0.709
 3.730 	-0.369 	0.684
 4.071 	-0.179 	0.608
 4.452 	0.346 	-0.363
 4.584 	0.856 	-0.508
 4.765 	0.340 	-0.610
 4.953 	0.389 	-0.472
 4.779 	0.222 	0.068
 5.551 	-0.685 	-0.483
 5.790 	-0.551 	-0.897
 6.518 	0.566 	-0.257
 6.567 	0.107 	-0.262
 6.243 	0.188 	-0.052
 5.379 	-0.237 	0.452
 4.860 	-0.272 	0.431
 4.863 	-1.144 	0.175
 4.268 	0.117 	0.514
 4.495 	-0.062 	0.235
 5.206 	-0.117 	0.093
 4.791 	0.405 	-0.005
 5.014 	0.434 	-0.252
 5.461 	0.538 	-0.922
 5.162 	0.137 	-0.879
 4.827 	0.598 	-0.489
 5.176 	-0.484 	-0.058
 5.171 	-0.478 	-0.197
 5.255 	0.245 	0.417
 5.987 	0.543 	0.498
 5.909 	0.597 	-0.055
 5.950 	0.185 	0.180
 5.684 	-0.148 	0.586
 4.583 	-0.511 	-0.132
 3.836 	0.173 	0.672
 4.165 	0.372 	0.523
 4.721 	0.337 	0.653
 4.810 	0.082 	0.332
 4.809 	0.151 	0.206
 5.088 	0.418 	-0.008
 5.098 	0.366 	-0.350
 5.288 	0.538 	-0.372
 4.765 	-0.309 	0.366
 4.728 	-0.070 	0.312
 4.462 	-0.039 	0.733
 5.066 	0.172 	0.420
 5.022 	-0.084 	0.418
 5.153 	-0.291 	-0.204
 5.145 	0.143 	0.248
 4.687 	0.353 	-0.255
 4.090 	-0.013 	0.072
 4.441 	0.011 	-0.072
 4.399 	-0.367 	0.231
 4.103 	-0.203 	0.219
 4.151 	-0.352 	0.419
 4.369 	0.161 	0.521
 4.570 	0.603 	0.038
 4.647 	0.756 	0.169
 4.229 	-0.224 	0.294
 4.314 	-0.048 	0.445
 4.545 	0.100 	0.839
 4.276 	-0.281 	0.463
 4.237 	-0.269 	0.242
 4.524 	-0.455 	0.298
 4.769 	0.169 	-0.120
 4.738 	0.629 	0.057
 4.717 	0.243 	0.219
 4.912 	-0.141 	0.128
 4.413 	-0.415 	0.352
 4.334 	0.518 	0.166
 4.035 	-0.170 	0.168
 3.793 	0.149 	0.538
 4.120 	-0.022 	0.849
 4.593 	0.350 	0.286
 5.334 	0.317 	0.989
 5.618 	0.622 	0.330
 5.876 	0.250 	0.262
 5.911 	1.449 	0.437
 6.683 	0.832 	0.145
 7.011 	-0.511 	-0.859
 7.947 	0.231 	-0.134
 6.971 	-0.218 	-0.452
 7.016 	-0.144 	0.345
 7.682 	0.781 	0.488
 7.255 	1.179 	0.385
 7.550 	1.102 	0.080
 6.965 	0.865 	0.634
 6.415 	1.313 	0.736
 6.611 	1.908 	0.303
 6.938 	1.911 	-0.767
 7.014 	0.871 	0.321
 6.859 	0.498 	0.069
 6.984 	0.411 	0.204
 7.529 	0.502 	-0.198
 7.416 	0.756 	-0.369
 6.481 	0.026 	-0.499
 5.613 	-0.009 	0.380
 5.643 	0.130 	-0.249
 5.967 	-0.252 	0.971
 6.029 	0.717 	1.283
 6.776 	0.528 	0.685
 6.729 	0.991 	0.417
 6.007 	0.887 	0.736
 6.719 	0.828 	0.580
 6.249 	0.286 	-0.283
 6.250 	0.851 	-0.292
 6.463 	0.766 	0.136
 6.760 	0.764 	-0.429
 7.001 	0.327 	-0.666
 7.058 	0.595 	-1.035
 6.970 	0.737 	-0.573
 7.273 	0.449 	0.054
 6.153 	-0.417 	0.968
 5.412 	0.233 	0.902
 5.497 	-0.382 	1.013
 5.135 	0.090 	0.527
 5.525 	1.050 	0.777
 5.883 	0.396 	0.520
 5.690 	0.527 	0.778
 5.353 	-0.569 	0.529
 5.652 	0.702 	0.648
 5.845 	0.156 	0.537
 5.942 	0.902 	0.616
 6.875 	0.694 	0.677
 7.272 	0.982 	0.516
 7.292 	0.827 	0.441
 7.038 	0.843 	0.280
 7.305 	1.145 	0.749
 6.036 	0.470 	1.108
 4.656 	0.027 	0.904
 4.424 	0.234 	0.444
 4.327 	-0.156 	0.718
 4.363 	0.162 	0.886
 4.742 	-0.006 	0.819
 5.342 	0.491 	0.118
 4.822 	-0.173 	0.614
 5.578 	0.051 	0.240
 5.804 	-0.017 	-0.204
 5.680 	0.651 	-0.114
 6.020 	0.130 	0.600
 6.338 	1.242 	1.259
 6.640 	0.926 	1.115
 7.463 	0.883 	0.118
 6.477 	1.369 	1.407
 5.629 	0.785 	1.147
 5.219 	0.067 	0.801
 4.940 	-0.118 	0.612
 5.099 	0.382 	0.162
 5.259 	0.127 	0.951
 4.722 	-0.578 	0.809
 4.810 	-0.186 	1.006
 4.969 	-0.150 	0.661
 5.579 	-0.991 	0.279
 5.457 	-0.059 	0.278
 6.266 	-0.208 	-0.183
 6.270 	0.276 	-0.222
 6.299 	0.669 	-0.050
 6.662 	-0.047 	-0.108
 6.513 	1.565 	0.689
 6.365 	1.413 	0.900
 6.422 	0.218 	0.541
 6.178 	-0.021 	0.418
 5.927 	-0.053 	0.729
 5.629 	0.002 	0.546
 5.815 	-0.459 	-0.034
 5.767 	-0.420 	0.064
 5.550 	-0.364 	0.073
 6.150 	-0.056 	0.204
 5.876 	-0.303 	-0.285
 5.516 	0.117 	0.826
 6.546 	0.132 	0.447
 5.691 	0.017 	0.433
 6.371 	0.765 	0.305
 5.882 	0.333 	0.788
 5.600 	0.772 	0.430
 6.049 	0.655 	0.178
 6.501 	0.463 	-0.309
 6.371 	-0.159 	0.268
 6.189 	-0.129 	0.156
 6.493 	0.052 	-0.360
 6.246 	-0.219 	0.313
 6.094 	-0.056 	-0.257
 5.577 	-0.476 	-0.370
 5.919 	-0.241 	-0.422
 6.133 	0.111 	0.022
 6.077 	-0.279 	-0.887
 4.899 	-0.190 	1.033
 4.257 	-0.656 	1.313
 5.055 	0.079 	0.907
 5.592 	0.872 	0.989
 5.438 	-0.231 	0.502
 6.178 	-0.571 	-0.330
 6.063 	-0.476 	0.144
 6.122 	0.022 	0.291
 6.100 	0.122 	0.134
 6.047 	0.010 	-0.414
 5.995 	0.194 	0.325
 5.551 	0.059 	-0.063
 5.519 	-0.407 	-0.259
 5.139 	-0.326 	-0.300
 5.022 	-0.616 	-0.243
 5.814 	-0.506 	-0.252
 4.000 	0.231 	0.984
 4.670 	-0.600 	0.014
 4.721 	-0.644 	0.348
 5.316 	0.357 	-0.211
 4.951 	-0.799 	0.188
 5.318 	-1.304 	0.404
 6.273 	-0.386 	-0.052
 5.843 	-0.261 	0.029
 5.392 	0.102 	-0.308
 5.187 	0.005 	-0.321
 5.306 	0.154 	-0.006
 5.472 	-0.095 	0.063
 4.943 	0.319 	0.289
 5.245 	-0.015 	-0.114
 6.093 	0.025 	-0.624
 6.361 	-0.116 	-0.928
 4.819 	0.446 	-0.239
 4.942 	-0.246 	-0.220
 5.394 	-0.012 	-0.257
 5.166 	-0.725 	0.115
 5.721 	-0.451 	-0.052
 5.743 	-1.015 	0.156
 4.605 	-1.010 	0.873
 4.667 	-0.053 	0.178
 4.809 	0.129 	0.057
 5.123 	0.074 	-0.021
 5.128 	-0.508 	-0.121
 5.253 	0.042 	-0.196
 5.690 	0.650 	-0.085
 5.810 	0.362 	-0.399
 5.622 	-0.370 	-0.383
 5.857 	-0.257 	-0.565
 6.008 	0.097 	-0.105
 5.989 	-0.143 	0.054
 6.227 	-0.038 	-0.675
 6.384 	-0.240 	0.097
 5.529 	-0.450 	0.341
 4.876 	-0.193 	1.017
 4.867 	-0.667 	0.540
 4.860 	-0.385 	0.405
 5.423 	-0.383 	-0.434
 5.221 	-0.116 	-0.526
 5.529 	-0.795 	-0.323
 5.077 	-0.135 	-0.380
 5.637 	0.310 	-0.232
 5.497 	-0.016 	-0.359
 5.400 	-0.165 	-0.330
 4.777 	-0.579 	-0.168
 6.167 	0.042 	-0.188
 6.613 	0.068 	0.041
 6.578 	-0.433 	-0.224
 5.849 	-0.059 	0.317
 5.706 	0.305 	0.043
 5.585 	-0.409 	0.743
 5.529 	-0.232 	0.799
 4.672 	-0.337 	0.631
 4.953 	-0.396 	0.312
 5.319 	-0.090 	-0.019
 5.471 	-0.470 	0.041
 5.315 	-0.599 	0.331
 5.645 	-0.139 	-0.702
 5.545 	-0.278 	-0.253
 5.188 	-0.257 	-0.011
 5.215 	-0.004 	-0.394
 6.185 	-0.846 	-0.557
 6.236 	-0.889 	-0.073
 6.058 	-0.553 	-0.591
 5.709 	0.327 	-0.132
 6.541 	0.284 	-0.353
 5.793 	0.072 	0.526
 5.805 	-0.194 	0.789
 5.373 	0.126 	0.576
 5.983 	-0.681 	-0.029
 6.134 	-0.483 	0.064
 5.936 	-0.272 	-0.494
 5.434 	-0.335 	0.369
 5.725 	-0.217 	-0.316
 6.047 	0.047 	-0.959
 5.906 	0.103 	-0.334
 5.309 	0.516 	-0.320
 5.437 	-1.090 	0.124
 4.953 	-0.456 	-0.123
 4.712 	-0.487 	-0.127
 5.223 	-0.227 	-0.092
 5.821 	-0.127 	-0.507
 6.431 	0.647 	0.353
 6.712 	0.148 	0.757
 6.075 	-0.351 	-0.100
 6.114 	0.003 	0.091
 5.528 	-0.771 	0.398
 4.790 	0.090 	0.342
 5.207 	0.129 	0.169
 5.477 	-0.438 	-0.127
 5.490 	-0.080 	-0.168
 5.976 	0.150 	-0.477
 5.808 	0.311 	-0.260
 4.703 	-0.612 	0.219
 4.530 	-0.607 	0.400
 4.303 	-0.444 	0.623
 4.703 	-0.852 	0.787
 5.161 	-0.162 	0.952
 5.919 	0.520 	0.640
 5.968 	0.433 	0.154
 6.351 	0.131 	-0.345
 5.840 	0.411 	0.208
 4.747 	-0.315 	0.458
 4.417 	-0.173 	0.844
 4.696 	-0.734 	0.493
 4.834 	-0.556 	0.535
 4.824 	-0.101 	0.470
 4.839 	0.012 	0.379
 4.940 	0.290 	-0.269
 5.053 	-0.638 	0.409
 4.451 	0.006 	0.363
 4.607 	-0.012 	0.249
 4.433 	0.117 	0.012
 4.264 	-0.605 	0.123
 4.519 	-0.454 	-0.010
 4.964 	-0.249 	-0.073
 4.640 	0.088 	-0.057
 4.929 	0.312 	0.195
 5.329 	0.079 	0.011
 5.123 	0.062 	0.051
 4.900 	-0.625 	0.212
 4.620 	-0.643 	0.423
 4.377 	-0.023 	0.902
 4.511 	0.092 	0.548
 5.155 	-0.142 	0.503
 6.920 	-0.254 	0.122
 6.771 	0.302 	0.260
 6.718 	-0.075 	0.043
 7.438 	0.118 	0.213
 7.362 	0.533 	-0.003
 7.158 	0.030 	-0.397
 8.011 	-0.143 	-0.520
 8.434 	0.963 	-0.283
 8.156 	0.360 	0.613
 8.240 	0.615 	0.513
 7.056 	0.869 	0.980
 7.129 	0.806 	0.363
 7.338 	0.962 	0.510
 7.375 	0.802 	0.545
 7.298 	0.683 	0.970
 7.563 	1.512 	-0.026
 6.690 	-0.301 	0.253
 6.722 	0.686 	0.246
 6.836 	-0.244 	-0.115
 6.573 	-0.127 	0.017
 7.104 	0.666 	-0.391
 7.293 	-0.133 	0.259
 7.396 	-0.187 	0.116
 6.729 	0.732 	0.373
 6.197 	-0.146 	1.084
 6.520 	0.922 	1.171
 6.198 	0.828 	0.694
 5.791 	0.124 	0.552
 6.539 	1.169 	1.186
 6.716 	0.358 	1.001
 6.472 	0.398 	0.709
 6.670 	0.934 	0.697
 6.743 	0.487 	0.069
 6.944 	0.512 	-0.210
 6.582 	-0.220 	-0.763
 6.377 	-0.344 	-0.430
 6.452 	-0.448 	-0.461
 6.573 	0.566 	0.545
 5.294 	0.018 	1.203
 5.271 	0.248 	1.097
 5.551 	-0.230 	1.007
 5.679 	1.044 	0.965
 5.578 	0.534 	1.174
 5.677 	0.463 	1.300
 5.681 	0.299 	0.626
 6.539 	0.320 	0.800
 6.463 	0.186 	0.479
 6.739 	0.354 	0.262
 6.054 	-0.165 	0.699
 6.712 	0.571 	1.249
 6.773 	-0.409 	0.627
 5.742 	-0.311 	-0.065
 6.761 	-0.223 	0.167
 5.295 	0.707 	0.740
 5.756 	0.608 	1.231
 5.826 	0.458 	1.225
 4.684 	-0.419 	1.116
 4.872 	0.387 	0.767
 5.585 	-0.449 	0.553
 5.843 	0.721 	0.429
 5.482 	-0.061 	0.959
 5.999 	-0.512 	0.221
 6.254 	-0.677 	0.552
 6.861 	0.291 	-0.128
 6.774 	-0.041 	-0.219
 5.962 	-0.101 	-0.163
 6.548 	0.217 	0.639
 6.994 	-0.288 	0.261
 6.108 	0.610 	0.380
 5.379 	1.181 	1.314
 5.442 	0.717 	1.159
 5.712 	-0.080 	1.091
 5.769 	-0.023 	0.865
 4.882 	0.131 	0.447
 5.093 	-0.064 	0.904
 4.924 	0.651 	0.667
 5.461 	-0.405 	0.652
 5.936 	-0.948 	0.450
 5.763 	-0.724 	0.187
 6.003 	-0.104 	0.446
 6.059 	-0.605 	-0.043
 6.129 	-0.276 	0.119
 6.255 	0.518 	0.378
 5.463 	-0.612 	0.007
 5.822 	0.698 	1.018
 6.594 	1.707 	0.570
 6.494 	0.482 	1.106
 5.903 	-0.009 	1.230
 6.092 	0.392 	0.584
 6.174 	-0.293 	0.484
 6.137 	-0.339 	0.262
 6.218 	0.287 	0.061
 5.942 	-0.550 	0.023
 6.012 	-0.854 	-0.049
 6.188 	-0.684 	-0.000
 6.406 	-0.168 	0.505
 6.245 	-0.107 	0.142
 6.548 	-0.364 	0.157
 5.624 	0.183 	0.388
 4.996 	0.054 	1.219
 4.904 	0.172 	1.059
 5.722 	0.028 	0.797
 6.834 	0.040 	0.477
 6.856 	0.061 	0.364
 6.945 	0.134 	0.199
 6.653 	0.099 	0.013
 6.298 	-0.550 	0.101
 6.249 	-0.112 	0.110
 6.372 	-0.393 	-0.250
 6.463 	-0.668 	-0.397
 5.900 	-0.807 	-0.367
 6.086 	-0.242 	-0.442
 5.767 	0.044 	1.416
 5.741 	0.906 	1.405
 5.837 	0.700 	1.037
 6.097 	0.159 	1.135
 5.823 	0.205 	0.126
 5.621 	-1.039 	0.215
 5.942 	-0.555 	0.807
 6.359 	-0.219 	0.540
 6.283 	0.238 	0.114
 6.323 	-0.159 	-0.102
 5.877 	-0.507 	0.111
 5.726 	-0.824 	0.340
 6.106 	-1.019 	-0.399
 6.576 	-1.077 	-0.297
 7.029 	-0.419 	-0.759
 6.307 	-0.298 	-0.675
 5.397 	0.373 	0.702
 4.996 	0.566 	0.308
 5.265 	0.138 	0.327
 5.210 	0.337 	-0.131
 5.736 	-0.277 	0.227
 6.628 	-1.429 	0.262
 5.753 	-0.699 	0.134
 5.943 	-0.235 	0.348
 5.876 	0.193 	-0.136
 5.969 	0.192 	-0.047
 5.946 	-0.293 	0.233
 6.415 	-0.560 	-0.372
 6.511 	-0.772 	-0.342
 6.763 	-1.004 	-0.596
 6.696 	-0.447 	-0.822
 6.853 	-0.306 	-0.949
 5.433 	0.385 	0.393
 5.693 	0.172 	-0.275
 5.158 	0.195 	-0.150
 5.418 	-0.025 	-0.190
 6.573 	-0.848 	-0.036
 5.795 	-0.530 	0.381
 5.712 	-0.845 	0.651
 5.359 	-0.151 	0.414
 5.255 	0.250 	-0.017
 5.524 	-0.214 	-0.257
 5.815 	-0.558 	-0.135
 6.297 	-0.707 	-0.413
 6.476 	-0.391 	-0.547
 6.557 	-0.336 	-0.467
 5.822 	-0.518 	-0.072
 6.127 	-0.185 	-0.532
 6.816 	-0.034 	-0.679
 6.837 	-0.100 	0.081
 6.250 	0.381 	0.305
 6.589 	-0.400 	0.041
 5.871 	-0.568 	0.282
 5.606 	0.012 	0.873
 6.187 	-0.637 	0.807
 6.169 	-0.130 	0.446
 5.646 	-0.027 	-0.282
 5.895 	-0.043 	-0.460
 5.780 	-0.544 	-0.264
 5.583 	-0.668 	0.007
 6.018 	-0.033 	-0.265
 5.997 	0.089 	-0.289
 5.807 	-0.103 	-0.394
 5.534 	-0.364 	-0.271
 6.374 	-0.400 	-0.156
 6.158 	-0.416 	-0.043
 6.552 	-0.149 	-0.135
 6.574 	-0.418 	-0.042
 6.186 	-0.033 	0.131
 5.735 	0.231 	0.718
 6.041 	-0.103 	0.755
 6.065 	-0.147 	0.334
 5.601 	-0.238 	0.630
 6.251 	-0.418 	0.048
 6.374 	-0.235 	-0.211
 6.317 	-0.403 	-0.044
 5.701 	0.046 	-0.109
 5.892 	-0.080 	-0.067
 5.618 	-0.128 	-0.206
 5.539 	-0.180 	-0.205
 5.998 	-0.321 	0.330
 5.776 	-0.426 	0.281
 6.081 	-0.653 	-0.232
 6.193 	-0.204 	0.087
 6.451 	-0.056 	-0.257
 6.386 	0.588 	0.202
 6.316 	0.266 	0.506
 6.508 	-0.175 	0.653
 6.215 	-0.660 	0.215
 6.056 	-0.736 	-0.067
 6.240 	-0.160 	-0.443
 6.317 	-0.329 	0.060
 5.777 	-0.385 	-0.066
 5.882 	-0.330 	-0.433
 6.234 	-0.075 	-0.450
 5.915 	0.046 	-0.264
 6.036 	-1.007 	0.042
 5.897 	-0.335 	0.046
 5.179 	-1.012 	-0.005
 6.049 	-0.977 	-0.059
 5.848 	-0.578 	-0.511
 5.805 	0.698 	0.133
 5.946 	0.452 	0.671
 6.320 	-0.302 	-0.005
 5.792 	-0.177 	0.094
 5.202 	-0.426 	0.282
 5.120 	-0.250 	0.354
 4.851 	-0.877 	0.298
 5.221 	-0.931 	-0.449
 5.476 	-1.067 	-0.240
 5.480 	-0.630 	-0.364
 6.136 	0.089 	-0.393
 5.215 	-0.678 	0.621
 5.230 	-0.007 	0.030
 5.283 	-0.599 	-0.231
 5.443 	-0.630 	-0.337
 5.551 	-0.569 	0.513
 5.629 	0.640 	0.165
 5.439 	0.176 	0.339
 5.227 	-0.189 	0.191
 5.128 	0.058 	0.444
 4.859 	-0.069 	0.434
 4.662 	-0.541 	0.785
 4.777 	-0.715 	0.456
 5.119 	-0.575 	0.137
 5.210 	-0.585 	0.034
 5.000 	-0.387 	-0.193
 5.247 	-0.134 	-0.001
 5.555 	-1.108 	1.041
 5.906 	-1.113 	0.796
 5.570 	0.334 	0.165
 4.877 	-0.450 	-0.389
 5.308 	-0.483 	-0.100
 5.817 	-0.367 	0.023
 5.867 	0.349 	0.684
 5.378 	-0.369 	0.098
 5.309 	-0.340 	0.158
 5.324 	-0.147 	0.031
 5.416 	-0.570 	-0.032
 5.156 	-0.110 	0.335
 4.659 	-0.487 	0.611
 5.096 	-0.353 	0.709
 4.670 	-0.094 	0.449
 4.959 	-0.348 	0.572
 6.858 	-0.355 	0.555
 6.586 	-0.067 	0.618
 6.956 	-0.396 	0.101
 7.213 	0.338 	0.698
 7.095 	0.094 	-0.010
 7.348 	-0.730 	-0.200
 7.541 	-0.518 	-0.557
 7.512 	0.919 	-0.355
 8.029 	0.168 	0.841
 8.535 	0.314 	1.162
 7.763 	0.721 	0.752
 7.268 	0.591 	0.940
 7.360 	1.180 	0.804
 7.275 	0.819 	0.362
 7.603 	0.726 	1.040
 7.445 	0.414 	0.574
 6.557 	-0.314 	0.279
 6.314 	-0.025 	-0.232
 6.246 	-0.573 	-0.441
 6.152 	0.612 	-0.038
 6.726 	-0.266 	0.326
 6.513 	-0.435 	-0.185
 6.908 	-0.629 	-0.173
 6.790 	0.006 	0.938
 6.560 	-0.483 	1.688
 6.525 	0.153 	0.700
 7.328 	1.256 	0.897
 6.643 	0.902 	0.759
 6.279 	0.531 	0.769
 6.780 	0.853 	0.689
 6.541 	-0.080 	0.835
 7.139 	0.752 	0.011
 6.773 	-0.965 	0.178
 6.609 	-0.332 	-0.102
 6.784 	0.079 	-0.514
 6.504 	-0.258 	0.248
 6.504 	-0.722 	-0.462
 6.297 	-0.001 	-0.655
 6.884 	-0.042 	0.403
 5.534 	-0.014 	1.659
 5.584 	-0.491 	1.354
 6.120 	0.419 	1.263
 5.665 	1.157 	1.400
 5.718 	0.682 	0.819
 6.079 	0.442 	0.779
 6.438 	0.643 	1.063
 7.519 	0.255 	0.562
 6.940 	0.371 	0.602
 5.938 	-0.515 	0.472
 6.417 	-0.844 	1.309
 6.850 	0.140 	0.067
 6.660 	-0.227 	-0.062
 6.213 	-0.241 	-0.025
 6.253 	0.809 	1.562
 5.805 	0.842 	1.259
 5.816 	0.577 	1.291
 6.029 	-0.369 	1.189
 5.853 	-0.406 	1.155
 5.566 	-0.066 	1.070
 6.454 	0.064 	0.681
 6.291 	0.749 	0.549
 6.204 	0.335 	1.164
 7.062 	0.936 	0.173
 7.282 	0.592 	0.189
 6.036 	-0.365 	0.068
 5.716 	-1.032 	-0.083
 6.014 	-0.355 	-0.164
 6.471 	-0.271 	0.505
 6.296 	0.522 	0.431
 5.375 	1.265 	1.468
 5.558 	0.886 	1.423
 6.297 	-0.328 	0.669
 6.554 	-0.604 	0.370
 6.765 	0.234 	0.980
 5.940 	-0.682 	0.523
 5.703 	-0.016 	0.613
 6.023 	0.698 	0.938
 6.133 	-0.567 	0.293
 6.730 	-0.353 	0.332
 7.271 	-0.290 	0.429