# vtk DataFile Version 3.0
HighT1
ASCII
DATASET STRUCTURED_POINTS
DIMENSIONS 16 16 19
ORIGIN 929.001000000000 929.001000000000 5.001000000000
SPACING 10.000000000000 10.000000000000 10.000000000000
POINT_DATA 4864
FIELD attributes 1
U 3 4864 float
2.407 	0.560 	0.248
 2.828 	-0.338 	-0.007
 3.180 	1.056 	0.483
 3.421 	1.588 	0.136
 4.592 	1.455 	-0.524
 5.573 	0.302 	-0.633
 5.709 	-0.408 	-0.516
 4.600 	0.029 	0.166
 3.094 	0.263 	0.143
 3.182 	-0.761 	0.478
 3.947 	0.004 	0.133
 4.534 	0.017 	-0.354
 4.919 	0.669 	-0.490
 4.970 	1.143 	-0.641
 4.330 	0.409 	-0.352
 4.300 	0.104 	-0.023
 4.191 	0.107 	-0.261
 3.407 	-1.090 	0.417
 3.334 	0.543 	0.188
 3.329 	0.845 	-0.112
 3.343 	0.206 	0.270
 3.607 	0.707 	-0.090
 4.661 	0.026 	-0.404
 4.242 	0.778 	-0.268
 4.607 	0.245 	-0.314
 4.243 	0.122 	-0.549
 4.344 	0.333 	0.021
 4.221 	0.644 	-0.312
 3.058 	0.471 	0.472
 2.969 	0.325 	0.202
 4.355 	1.021 	0.047
 4.833 	1.738 	0.130
 3.242 	0.250 	-0.033
 4.365 	0.003 	-0.359
 1.984 	-0.238 	0.939
 2.771 	0.232 	0.466
 3.476 	0.688 	-0.002
 3.921 	0.654 	-0.143
 3.733 	0.653 	-0.218
 3.238 	0.204 	0.254
 2.625 	-0.668 	0.216
 2.962 	-0.224 	0.773
 4.125 	1.289 	-0.321
 4.281 	0.511 	0.506
 4.304 	1.585 	-0.105
 3.577 	0.531 	0.165
 3.249 	0.993 	0.040
 3.461 	0.645 	-0.130
 3.542 	-0.556 	-0.453
 3.559 	0.506 	0.229
 3.099 	0.153 	0.242
 3.208 	0.008 	-0.405
 2.610 	0.557 	0.155
 3.107 	0.613 	-0.050
 3.444 	0.603 	0.326
 2.712 	-0.237 	0.181
 2.756 	-0.206 	0.442
 3.214 	-0.966 	0.148
 3.412 	1.246 	0.415
 3.699 	0.128 	0.193
 3.556 	1.016 	0.066
 4.177 	-0.045 	0.114
 4.632 	0.544 	0.103
 3.849 	-0.168 	0.009
 3.026 	-0.002 	0.147
 3.032 	0.009 	0.256
 2.819 	-0.102 	0.243
 2.751 	-0.476 	0.013
 2.312 	-0.168 	0.684
 2.987 	-0.270 	-0.324
 2.960 	0.391 	0.470
 3.359 	-0.453 	0.092
 3.419 	-0.793 	-0.270
 3.532 	-0.573 	-0.224
 3.819 	0.252 	-0.218
 3.959 	0.665 	-0.162
 3.193 	-0.114 	0.287
 3.904 	-0.597 	0.294
 2.885 	-0.894 	0.646
 3.932 	-0.025 	-0.124
 4.285 	0.280 	0.095
 4.033 	-0.054 	-0.293
 4.100 	-0.089 	-0.145
 4.517 	-0.438 	-0.457
 4.109 	-0.316 	-0.160
 3.783 	-0.352 	0.434
 3.806 	0.276 	-0.336
 3.895 	0.218 	-0.105
 3.671 	-0.415 	0.055
 3.075 	-0.407 	0.293
 2.834 	-0.373 	0.234
 3.631 	-0.519 	0.073
 4.337 	0.256 	0.177
 4.502 	-0.566 	0.187
 4.014 	-0.261 	0.197
 2.307 	-0.366 	0.400
 3.830 	0.080 	0.130
 4.205 	-0.398 	-0.051
 5.000 	-0.030 	-0.113
 4.687 	0.033 	-0.103
 4.184 	-0.386 	0.049
 4.410 	0.318 	0.270
 4.314 	-0.330 	0.132
 3.566 	0.102 	0.128
 3.636 	-0.092 	0.012
 3.831 	-0.425 	-0.287
 3.660 	-0.947 	0.208
 4.118 	-1.206 	-0.152
 4.527 	-0.496 	-0.058
 4.045 	-0.318 	0.293
 3.616 	-0.176 	0.169
 3.404 	0.129 	0.182
 3.420 	-0.120 	0.158
 3.163 	-0.566 	-0.015
 3.515 	-0.330 	0.142
 3.982 	0.576 	-0.094
 3.111 	0.617 	0.183
 2.465 	0.272 	0.084
 2.527 	-0.075 	0.062
 3.180 	0.082 	-0.051
 3.500 	0.135 	-0.352
 4.157 	0.019 	-0.329
 4.672 	-0.369 	-0.722
 3.727 	-0.790 	-0.068
 4.337 	-0.247 	-0.625
 5.347 	0.108 	-0.505
 4.928 	0.117 	-0.295
 4.863 	-0.045 	-0.228
 4.766 	-0.186 	-0.266
 4.839 	0.211 	-0.099
 3.227 	0.426 	0.033
 2.443 	0.656 	0.132
 3.355 	0.797 	-0.203
 3.969 	0.610 	-0.322
 4.345 	-0.057 	-0.104
 4.306 	-0.431 	-0.001
 3.655 	0.003 	0.037
 4.150 	-0.108 	0.153
 4.326 	-0.618 	-0.020
 4.280 	-0.151 	0.113
 4.827 	-0.111 	-0.229
 3.844 	0.363 	-0.010
 3.985 	0.679 	-0.043
 4.292 	0.420 	-0.094
 4.309 	0.319 	-0.195
 4.404 	0.911 	0.129
 4.261 	1.113 	0.103
 3.908 	0.675 	-0.263
 3.930 	0.693 	-0.205
 4.260 	0.611 	0.045
 4.701 	0.166 	-0.405
 4.469 	-0.229 	-0.217
 4.292 	0.203 	-0.183
 4.148 	-0.353 	-0.586
 3.848 	-0.640 	0.637
 3.888 	0.506 	0.154
 3.868 	0.136 	-0.042
 3.436 	0.387 	0.264
 4.048 	0.383 	-0.072
 4.247 	0.606 	-0.022
 3.178 	0.005 	0.101
 3.558 	0.702 	0.085
 3.719 	0.866 	-0.085
 3.979 	0.446 	0.158
 4.147 	0.625 	0.121
 3.755 	0.530 	-0.158
 3.798 	0.458 	-0.237
 3.828 	0.646 	-0.221
 3.885 	0.026 	-0.446
 4.200 	0.435 	-0.050
 4.052 	-0.174 	-0.174
 2.810 	0.221 	0.293
 3.308 	-0.090 	-0.042
 3.377 	0.084 	-0.150
 3.397 	-0.165 	-0.014
 3.777 	0.324 	-0.065
 2.857 	-0.597 	0.090
 3.075 	0.249 	-0.166
 2.813 	0.655 	0.368
 2.553 	-0.254 	0.148
 2.792 	-0.127 	0.126
 2.553 	-0.485 	0.212
 3.249 	0.534 	0.028
 3.173 	0.345 	-0.012
 3.652 	0.588 	0.106
 3.248 	0.455 	0.219
 3.254 	-0.223 	0.306
 3.755 	0.104 	-0.112
 3.981 	0.006 	-0.078
 4.238 	0.472 	-0.263
 3.794 	0.680 	0.195
 3.717 	0.382 	-0.258
 3.188 	0.022 	-0.017
 3.555 	0.005 	-0.050
 3.447 	-0.016 	0.374
 3.920 	-0.614 	0.054
 4.019 	-0.513 	0.156
 3.457 	-0.696 	0.022
 2.959 	0.059 	0.311
 2.427 	-0.226 	0.529
 2.582 	0.335 	0.310
 3.489 	-0.394 	0.107
 4.120 	-0.520 	-0.408
 3.805 	-0.328 	0.037
 3.455 	0.220 	0.214
 3.687 	0.480 	0.190
 3.978 	0.232 	0.138
 4.078 	0.215 	-0.020
 4.027 	-0.071 	-0.025
 3.899 	0.139 	-0.210
 4.059 	0.151 	-0.103
 3.846 	-0.217 	0.328
 2.723 	-0.515 	0.080
 3.337 	-0.499 	-0.064
 3.535 	-0.092 	-0.268
 3.636 	0.093 	0.025
 3.936 	0.292 	-0.467
 4.245 	0.279 	-0.285
 4.231 	0.114 	-0.040
 4.034 	-0.389 	0.143
 4.352 	-0.450 	-0.078
 4.651 	-0.297 	0.071
 4.857 	-0.220 	-0.225
 4.599 	0.154 	-0.053
 2.540 	-0.150 	0.321
 2.932 	0.006 	0.046
 3.238 	0.154 	0.035
 4.023 	0.008 	-0.225
 4.043 	-0.275 	-0.120
 3.517 	-0.343 	0.235
 3.103 	-0.394 	0.106
 3.206 	-0.102 	0.032
 3.592 	0.293 	-0.054
 3.815 	0.345 	-0.171
 4.234 	0.303 	-0.010
 3.916 	-0.138 	-0.165
 3.485 	-0.403 	0.028
 3.600 	-0.438 	0.235
 3.909 	0.632 	0.106
 3.720 	0.728 	0.020
 3.437 	-0.262 	0.111
 3.243 	-0.351 	0.193
 2.977 	-0.118 	0.055
 3.327 	0.080 	-0.166
 3.433 	0.167 	-0.068
 3.276 	-0.208 	-0.090
 3.309 	0.054 	-0.035
 2.140 	0.009 	0.179
 2.183 	0.118 	0.233
 3.003 	-0.012 	-0.382
 3.139 	0.058 	-0.052
 3.285 	0.038 	0.186
 2.614 	0.166 	-0.029
 2.536 	-0.278 	0.025
 3.060 	0.392 	-0.232
 2.925 	0.260 	0.194
 4.538 	-0.426 	0.468
 5.268 	-0.016 	0.196
 6.105 	0.842 	0.848
 4.877 	0.618 	0.295
 5.266 	0.867 	0.437
 5.943 	1.862 	0.240
 5.632 	0.926 	0.050
 5.088 	0.132 	-0.129
 5.771 	-0.252 	-0.118
 6.362 	-0.111 	-0.235
 5.487 	-0.234 	0.073
 5.750 	-0.610 	-0.534
 6.268 	-0.121 	-0.807
 5.945 	0.230 	-0.934
 6.347 	0.307 	-0.509
 6.407 	0.465 	-0.764
 5.401 	0.699 	-0.394
 5.712 	-0.294 	0.483
 5.521 	0.501 	0.354
 5.428 	1.261 	0.211
 5.590 	0.038 	-0.125
 5.185 	0.651 	-0.112
 5.590 	0.391 	-0.459
 5.437 	0.180 	0.141
 5.134 	0.904 	0.293
 5.271 	0.449 	0.019
 4.599 	-0.510 	-0.732
 4.834 	-0.364 	-0.796
 5.644 	0.067 	-0.700
 6.091 	0.695 	-0.688
 6.480 	0.722 	-0.461
 6.826 	0.240 	-0.665
 5.482 	0.309 	-0.396
 5.245 	1.060 	0.316
 4.987 	0.010 	0.644
 5.925 	1.224 	-0.612
 5.865 	-0.277 	-0.109
 5.345 	0.264 	-0.785
 5.540 	0.700 	-0.681
 5.508 	0.426 	0.339
 5.516 	0.826 	0.655
 4.695 	0.778 	-0.004
 4.579 	-0.033 	-0.235
 4.226 	-0.157 	-0.213
 4.655 	-0.185 	0.440
 4.460 	1.379 	0.886
 4.341 	1.304 	0.445
 4.548 	-0.105 	0.830
 4.643 	0.031 	0.318
 4.488 	-0.317 	0.282
 4.324 	0.123 	0.477
 4.463 	0.341 	-0.239
 3.972 	-0.112 	0.210
 3.385 	0.347 	0.661
 3.625 	1.117 	0.881
 3.407 	-0.086 	0.915
 3.979 	0.387 	-0.419
 3.808 	0.495 	0.135
 3.342 	-0.082 	0.504
 3.656 	-0.347 	0.299
 4.523 	0.326 	-0.424
 4.680 	0.154 	1.297
 5.094 	-0.309 	0.471
 5.132 	-0.395 	0.188
 4.469 	0.162 	0.326
 4.230 	-0.157 	0.441
 3.706 	0.082 	0.689
 3.596 	-0.008 	0.462
 4.068 	0.157 	0.325
 4.354 	-0.077 	-0.303
 4.849 	0.497 	-0.009
 4.599 	0.213 	0.378
 4.512 	-0.014 	0.105
 4.970 	0.054 	-0.032
 4.539 	-0.297 	0.145
 4.791 	0.172 	-0.001
 4.715 	0.950 	-0.168
 5.645 	0.152 	-0.223
 5.968 	-0.130 	0.250
 5.706 	-0.839 	-0.475
 5.780 	-0.052 	0.048
 5.343 	-0.062 	-0.056
 4.828 	-0.213 	0.006
 4.661 	-0.493 	0.193
 4.759 	-0.262 	0.107
 4.736 	0.210 	0.410
 4.862 	0.613 	-0.363
 5.118 	0.197 	-0.290
 5.075 	-0.108 	0.372
 4.173 	-0.362 	0.327
 4.394 	-0.082 	-0.055
 3.989 	-0.580 	0.530
 4.077 	0.001 	0.605
 4.871 	0.402 	0.380
 5.856 	0.381 	-0.498
 5.329 	-0.296 	-0.482
 5.826 	0.005 	0.255
 6.200 	-0.004 	-0.438
 5.843 	0.047 	-0.299
 5.162 	-0.045 	0.125
 4.736 	-0.421 	0.196
 4.823 	0.103 	0.439
 4.656 	0.613 	0.382
 4.889 	0.147 	0.169
 5.094 	0.813 	-0.516
 5.345 	-0.116 	-0.432
 5.014 	-0.343 	-0.349
 5.040 	-0.120 	-0.231
 5.043 	-0.009 	0.061
 4.430 	0.371 	-0.012
 4.543 	-0.245 	0.512
 5.190 	0.549 	0.177
 5.185 	-0.180 	-0.829
 5.363 	0.431 	-0.243
 5.739 	0.373 	0.165
 5.386 	0.085 	-0.308
 5.100 	0.135 	-0.590
 5.267 	0.194 	-0.145
 5.228 	0.547 	-0.077
 4.504 	-0.096 	0.199
 4.502 	0.657 	-0.338
 4.435 	-0.094 	-0.115
 4.802 	-0.284 	0.067
 4.737 	-0.304 	-0.294
 5.133 	-0.340 	-0.624
 5.566 	0.100 	-0.548
 5.696 	-0.196 	-0.558
 5.473 	0.162 	0.015
 4.836 	-0.640 	-0.157
 5.477 	0.304 	0.197
 4.494 	0.193 	-0.040
 4.900 	0.464 	-0.433
 4.444 	-0.330 	-0.424
 4.769 	0.017 	-0.510
 4.592 	0.645 	-0.040
 4.541 	0.424 	0.289
 4.504 	-0.029 	0.376
 4.478 	-0.402 	0.454
 4.487 	-0.913 	-0.165
 5.053 	-0.765 	-0.412
 5.277 	-0.257 	-0.364
 5.397 	-0.282 	-0.281
 5.361 	0.053 	-0.409
 5.379 	-0.200 	-0.293
 3.362 	-1.215 	-0.015
 4.056 	0.369 	0.093
 3.836 	0.204 	-0.069
 4.171 	0.035 	-0.131
 4.380 	0.195 	0.047
 4.300 	-0.085 	-0.576
 4.770 	0.597 	-0.642
 5.159 	0.748 	-0.380
 4.994 	0.082 	-0.430
 5.023 	-0.208 	-0.280
 4.927 	-0.440 	-0.324
 4.698 	-0.872 	0.065
 4.767 	0.250 	0.264
 5.115 	0.375 	0.057
 4.898 	0.108 	-0.569
 4.791 	-0.390 	-0.380
 4.392 	-1.154 	0.130
 3.771 	-0.420 	0.212
 3.939 	0.272 	0.447
 3.818 	-0.411 	0.458
 3.569 	-0.389 	0.533
 4.072 	0.169 	0.275
 4.020 	0.543 	-0.137
 4.320 	0.514 	0.346
 4.438 	0.269 	-0.290
 4.681 	-0.318 	-0.790
 5.197 	0.304 	-0.941
 4.753 	-0.335 	0.165
 4.584 	0.296 	0.123
 4.933 	0.177 	-0.156
 5.041 	0.569 	-0.076
 4.518 	-0.071 	-0.106
 3.328 	-1.047 	0.248
 3.717 	-0.409 	0.037
 3.610 	0.548 	0.092
 2.831 	-0.076 	0.381
 3.055 	-0.537 	0.134
 3.339 	-0.436 	0.795
 3.041 	-0.200 	0.721
 3.579 	0.576 	-0.239
 4.169 	0.363 	-0.759
 3.996 	0.147 	-0.125
 4.287 	0.580 	0.114
 4.536 	0.358 	0.052
 4.659 	-0.138 	0.110
 4.421 	0.083 	0.247
 4.372 	-0.115 	0.094
 4.971 	-0.598 	-0.049
 4.943 	-0.746 	0.197
 3.859 	0.311 	-0.067
 3.325 	0.635 	0.673
 3.576 	0.347 	-0.125
 3.630 	0.111 	-0.106
 3.353 	-0.415 	0.383
 3.145 	0.107 	0.449
 3.255 	0.363 	-0.115
 4.048 	0.736 	-0.194
 4.214 	1.090 	-0.182
 4.655 	0.732 	-0.854
 4.737 	0.250 	-0.465
 4.540 	-0.253 	0.009
 4.298 	-0.495 	0.261
 4.789 	-0.476 	0.256
 4.781 	-0.410 	0.243
 4.333 	-0.176 	-0.175
 4.102 	-0.482 	-0.009
 4.173 	0.097 	-0.217
 4.140 	0.024 	-0.051
 4.500 	-0.141 	0.036
 4.053 	-0.285 	0.477
 3.727 	-0.507 	0.317
 4.051 	-0.167 	0.229
 4.211 	0.534 	-0.676
 4.373 	1.022 	-0.539
 4.797 	0.392 	-0.337
 4.745 	0.532 	-0.005
 4.385 	0.322 	-0.324
 4.792 	0.090 	-0.294
 5.261 	-0.056 	-0.075
 4.560 	-0.150 	-0.053
 4.345 	0.183 	0.092
 4.061 	-0.661 	0.001
 4.039 	-0.327 	-0.061
 4.154 	-0.103 	-0.063
 4.115 	0.137 	-0.153
 3.917 	-0.109 	0.014
 3.708 	-0.611 	0.181
 3.740 	-0.436 	0.073
 3.806 	-0.086 	0.030
 4.187 	0.245 	0.125
 4.336 	0.334 	0.069
 4.691 	0.475 	-0.186
 4.945 	0.342 	-0.106
 3.955 	-0.580 	0.184
 4.178 	0.135 	-0.006
 3.950 	0.125 	-0.209
 4.291 	-0.236 	-0.324
 4.353 	-0.608 	0.297
 4.551 	-0.387 	-0.201
 4.355 	-0.190 	-0.472
 3.974 	-0.040 	-0.096
 3.354 	-0.006 	0.060
 3.619 	-0.533 	0.082
 3.387 	-0.729 	0.030
 3.582 	-0.675 	0.113
 3.750 	-0.774 	0.150
 4.276 	-0.672 	-0.242
 4.403 	0.632 	-0.367
 4.884 	0.708 	0.069
 4.563 	-0.180 	0.305
 3.710 	-0.314 	0.285
 3.662 	0.129 	0.016
 7.433 	0.696 	-0.691
 6.528 	-0.089 	0.404
 6.025 	-0.165 	0.651
 6.574 	0.658 	0.243
 6.892 	1.219 	0.610
 7.174 	0.749 	-0.270
 6.706 	1.683 	0.873
 5.994 	0.608 	-0.161
 6.109 	1.909 	-0.236
 6.532 	0.787 	-0.126
 6.452 	0.589 	-0.250
 6.455 	0.004 	-0.349
 6.663 	-0.228 	-0.631
 6.835 	0.544 	-0.827
 6.333 	0.111 	-0.874
 6.614 	0.355 	-1.105
 7.547 	0.787 	-0.685
 7.781 	1.076 	-0.233
 7.381 	-0.167 	0.590
 5.549 	0.712 	0.611
 6.200 	0.842 	0.744
 6.007 	1.683 	0.451
 6.585 	1.915 	-0.050
 5.567 	0.163 	0.212
 6.201 	1.063 	-0.266
 6.214 	0.447 	-0.570
 5.998 	0.090 	0.009
 5.700 	0.091 	-0.484
 5.431 	-0.439 	-0.206
 5.608 	-0.458 	-1.097
 5.701 	0.110 	-0.872
 5.929 	0.047 	-0.447
 5.553 	0.083 	0.200
 5.060 	0.358 	0.901
 5.064 	0.132 	1.099
 5.041 	0.071 	0.436
 4.662 	-0.457 	0.451
 5.153 	0.294 	-0.083
 5.383 	0.282 	-0.088
 5.199 	0.545 	0.911
 5.230 	0.460 	0.652
 4.884 	0.795 	0.137
 5.441 	0.419 	-0.048
 4.587 	0.266 	-0.457
 3.963 	-0.202 	0.364
 4.141 	-0.546 	0.512
 4.216 	-0.143 	0.793
 4.720 	0.775 	0.439
 5.323 	0.656 	1.036
 4.992 	0.148 	1.138
 5.036 	-0.227 	0.737
 4.724 	-0.108 	0.230
 4.652 	0.108 	0.254
 4.452 	-0.509 	0.569
 4.042 	0.741 	0.790
 4.316 	0.124 	0.453
 4.584 	0.450 	-0.176
 4.503 	0.887 	0.357
 5.106 	0.802 	-0.320
 5.506 	0.389 	-0.589
 5.671 	0.550 	-1.208
 6.004 	0.022 	0.911
 5.440 	0.241 	0.736
 4.615 	0.984 	0.233
 5.411 	0.443 	0.210
 5.917 	0.093 	0.566
 5.615 	0.029 	0.611
 4.862 	-0.577 	0.279
 4.494 	0.185 	0.283
 4.167 	-0.278 	0.296
 4.504 	-0.004 	0.784
 4.391 	-0.114 	0.659
 4.322 	0.680 	0.580
 4.388 	0.653 	0.507
 4.360 	0.880 	0.419
 4.584 	0.472 	0.053
 5.117 	0.268 	0.049
 5.552 	0.259 	-0.311
 5.055 	1.010 	-0.446
 4.988 	1.309 	-0.055
 5.613 	0.441 	0.262
 5.659 	-0.118 	0.541
 5.666 	-0.046 	0.253
 5.395 	-0.193 	0.464
 5.362 	-0.288 	0.210
 5.624 	-0.388 	-0.185
 6.020 	-0.130 	-0.419
 5.713 	-0.074 	-0.251
 4.790 	0.477 	0.352
 4.722 	0.410 	0.103
 4.842 	1.052 	-0.108
 4.432 	0.310 	0.413
 4.800 	0.019 	0.246
 5.444 	0.485 	-0.058
 5.395 	0.823 	-0.269
 5.922 	0.683 	-0.836
 6.142 	0.152 	-0.203
 6.037 	-0.071 	-0.378
 5.381 	0.215 	0.288
 5.566 	0.047 	0.203
 5.321 	-0.344 	0.240
 5.609 	-0.247 	-0.255
 5.320 	-0.310 	0.069
 5.424 	-0.461 	0.005
 6.023 	0.019 	-0.351
 5.672 	0.961 	-0.399
 4.999 	1.006 	-0.080
 5.170 	0.889 	-0.424
 5.338 	0.851 	-0.674
 5.586 	0.750 	-0.535
 5.777 	-0.274 	-0.099
 6.131 	-0.136 	-0.431
 5.376 	-0.719 	-0.403
 5.261 	-0.512 	0.108
 5.422 	0.159 	0.116
 5.562 	0.131 	-0.008
 5.527 	-0.072 	-0.180
 5.343 	-0.108 	-0.348
 5.002 	0.051 	0.418
 5.482 	0.057 	-0.356
 4.586 	0.178 	-0.020
 4.721 	0.804 	0.171
 5.307 	0.959 	-0.100
 5.621 	0.460 	-0.458
 6.174 	0.396 	-0.460
 6.201 	0.998 	0.007
 5.590 	0.031 	0.114
 5.799 	-0.163 	-0.060
 4.794 	-0.911 	-0.005
 4.784 	-0.251 	-0.040
 4.754 	0.106 	0.068
 4.722 	0.059 	0.108
 5.221 	-0.048 	-0.341
 5.017 	-0.508 	-0.377
 4.942 	0.180 	0.033
 4.745 	0.546 	-0.004
 4.501 	0.561 	0.281
 4.379 	0.693 	0.170
 4.694 	0.858 	-0.200
 4.896 	0.112 	-0.443
 5.543 	-0.144 	0.007
 6.023 	-0.157 	-0.403
 6.023 	-0.132 	-0.439
 5.900 	-0.306 	-0.266
 3.976 	-0.757 	0.517
 3.759 	-0.437 	0.467
 4.205 	-0.170 	0.458
 4.401 	-0.315 	-0.148
 4.721 	-1.153 	-0.400
 5.229 	-0.498 	-0.986
 5.034 	0.205 	-0.429
 5.257 	0.691 	-0.343
 4.710 	0.964 	-0.270
 4.622 	0.916 	-0.604
 5.271 	0.306 	-0.614
 5.882 	-0.068 	-0.812
 5.926 	-0.315 	-0.397
 5.376 	-0.303 	-0.053
 5.538 	0.156 	-0.787
 5.412 	0.106 	-0.261
 4.547 	-0.173 	0.056
 3.991 	-0.852 	0.450
 3.553 	-0.459 	0.972
 3.284 	-0.709 	0.054
 4.013 	-0.697 	0.146
 3.926 	-0.880 	0.277
 4.824 	0.044 	-0.807
 4.781 	0.677 	-0.536
 4.919 	0.856 	-0.217
 5.271 	0.848 	-0.550
 5.749 	0.403 	-0.980
 5.539 	0.548 	-0.309
 5.624 	0.278 	-0.310
 4.924 	0.202 	0.113
 4.928 	0.602 	0.292
 4.935 	0.365 	-0.183
 4.941 	-0.577 	0.492
 4.680 	-0.530 	0.306
 4.139 	-0.356 	0.459
 3.692 	-0.335 	0.482
 4.677 	-0.167 	-0.287
 3.833 	-0.346 	0.343
 4.012 	0.034 	1.573
 4.794 	0.695 	-1.142
 4.608 	0.707 	-0.572
 5.267 	0.537 	-0.852
 5.312 	0.472 	-0.464
 4.357 	0.189 	0.321
 4.299 	0.407 	0.474
 4.440 	0.307 	0.637
 4.444 	-0.109 	0.378
 4.649 	-0.304 	0.259
 6.084 	-0.762 	0.213
 4.949 	-0.322 	0.661
 5.086 	-0.367 	0.551
 5.232 	-1.267 	-0.206
 5.222 	0.206 	0.125
 5.375 	-0.012 	-0.507
 5.402 	0.070 	0.443
 4.368 	0.777 	0.013
 4.640 	0.512 	-0.531
 5.051 	0.746 	-0.634
 5.207 	0.763 	-0.713
 5.005 	0.634 	-0.559
 4.533 	0.350 	0.020
 4.860 	0.235 	-0.387
 4.912 	-0.044 	-0.018
 5.120 	-0.721 	0.080
 6.031 	0.091 	0.186
 5.380 	-0.616 	0.353
 5.248 	-0.586 	0.142
 4.638 	-0.311 	-0.155
 3.935 	0.271 	0.847
 4.544 	0.669 	0.213
 4.760 	0.834 	0.643
 4.799 	0.073 	0.276
 5.014 	0.314 	-0.195
 5.141 	0.503 	-0.369
 4.684 	0.750 	-0.348
 4.579 	0.786 	-0.091
 5.096 	0.368 	-0.187
 5.288 	0.093 	-0.983
 5.363 	0.273 	-0.010
 5.464 	-0.365 	0.120
 5.120 	-0.456 	0.136
 5.475 	-0.279 	-0.209
 4.950 	0.207 	0.083
 4.762 	0.545 	-0.193
 4.327 	-0.054 	0.138
 4.154 	-0.091 	0.276
 4.559 	0.093 	0.267
 4.746 	0.244 	0.199
 4.240 	0.135 	0.218
 4.359 	0.159 	0.393
 4.766 	0.669 	-0.192
 5.138 	0.752 	-0.535
 5.204 	0.206 	-0.289
 4.775 	0.340 	0.070
 5.595 	0.126 	0.058
 5.267 	-0.137 	0.031
 4.219 	-0.498 	0.150
 4.619 	-0.057 	0.216
 4.715 	0.462 	0.263
 4.832 	0.743 	-0.374
 5.109 	0.088 	0.046
 4.925 	-0.219 	0.188
 4.703 	-0.501 	0.052
 4.467 	0.155 	0.161
 4.468 	0.182 	0.106
 4.096 	0.040 	1.048
 4.596 	0.356 	0.198
 4.672 	0.274 	0.232
 4.931 	0.494 	0.475
 5.311 	0.584 	0.293
 5.196 	0.237 	0.471
 5.472 	0.019 	-0.211
 7.539 	-0.039 	-1.014
 6.842 	0.055 	-0.450
 6.380 	-0.199 	0.691
 7.006 	0.798 	0.579
 6.923 	0.800 	0.454
 6.804 	0.720 	0.099
 6.915 	1.721 	0.625
 7.052 	1.135 	0.661
 7.088 	0.695 	-0.115
 6.922 	1.024 	-0.058
 7.627 	1.172 	0.311
 6.681 	1.428 	-0.279
 6.977 	0.327 	-0.417
 7.412 	0.307 	-0.880
 6.987 	0.369 	-0.886
 7.215 	0.576 	-0.648
 5.646 	-0.066 	0.421
 5.465 	0.154 	0.790
 5.343 	-0.922 	1.000
 5.334 	0.568 	1.110
 5.677 	1.179 	0.353
 5.369 	0.942 	0.568
 5.703 	0.753 	0.982
 6.210 	0.718 	0.589
 5.897 	-0.110 	0.542
 6.050 	-0.088 	-0.107
 6.404 	0.282 	0.424
 6.550 	0.858 	0.191
 6.353 	-0.067 	-0.158
 6.708 	0.575 	-0.782
 6.959 	0.272 	-0.403
 6.137 	0.063 	-0.129
 5.596 	0.476 	1.201
 5.155 	0.186 	0.820
 5.107 	-0.277 	1.344
 4.915 	0.033 	0.725
 5.223 	0.738 	0.619
 5.609 	0.547 	1.103
 6.176 	0.479 	0.541
 6.029 	0.181 	0.603
 6.325 	-0.117 	0.712
 5.471 	0.294 	0.194
 5.827 	0.240 	-0.135
 5.839 	0.861 	-0.522
 5.539 	-0.170 	0.536
 4.918 	-0.282 	0.633
 6.178 	-0.629 	-0.159
 6.246 	0.278 	-1.004
 4.962 	0.895 	1.696
 5.327 	0.208 	1.148
 5.720 	0.222 	0.960
 5.067 	0.103 	0.996
 4.577 	-0.496 	0.482
 4.661 	-0.094 	0.484
 4.694 	-0.243 	0.524
 4.900 	-0.027 	0.736
 4.977 	-0.438 	0.773
 5.202 	-0.507 	-0.276
 6.169 	-0.278 	-0.704
 6.132 	0.584 	-0.295
 5.846 	0.145 	-0.658
 5.357 	0.176 	0.789
 5.494 	0.270 	-0.323
 5.553 	0.497 	-0.199
 7.707 	2.015 	0.545
 6.073 	-0.158 	0.984
 5.703 	-0.009 	0.850
 5.850 	-0.276 	0.791
 5.256 	-0.157 	0.467
 4.964 	0.102 	0.389
 4.193 	-0.026 	0.953
 4.375 	-0.107 	0.587
 5.004 	-0.260 	0.768
 5.712 	-0.552 	-0.178
 5.672 	-0.225 	0.285
 5.721 	0.178 	-0.480
 6.549 	0.622 	-0.721
 6.390 	0.312 	-0.091
 5.819 	0.275 	-0.421
 5.930 	0.834 	0.077
 6.231 	1.317 	0.687
 5.717 	-0.223 	0.863
 5.857 	-0.100 	0.767
 6.024 	-0.268 	0.460
 5.829 	-0.239 	0.488
 5.805 	-0.357 	-0.179
 5.617 	-0.241 	-0.184
 6.040 	-0.513 	-0.087
 6.141 	-0.014 	0.006
 6.210 	-0.043 	-0.079
 5.945 	0.101 	-0.086
 6.129 	-0.451 	-0.046
 6.248 	0.127 	-0.310
 6.542 	1.389 	-0.577
 6.921 	0.814 	-0.342
 6.243 	0.651 	-0.157
 6.256 	0.111 	0.092
 6.409 	0.063 	-0.013
 6.278 	-0.180 	0.095
 6.251 	-0.084 	-0.143
 6.630 	0.032 	-0.072
 5.934 	-0.286 	-0.067
 6.053 	-0.248 	-0.558
 5.844 	-0.585 	-0.148
 6.237 	0.150 	-0.087
 6.477 	-0.139 	-0.264
 6.535 	0.559 	-1.040
 6.780 	0.701 	-0.733
 5.991 	0.460 	-0.130
 6.179 	1.055 	0.444
 6.525 	1.332 	-0.171
 6.662 	0.803 	-0.417
 5.478 	-0.880 	0.578
 5.627 	-0.217 	0.477
 6.111 	-0.069 	0.112
 6.102 	0.063 	-0.176
 6.085 	0.148 	-0.303
 5.774 	0.052 	0.095
 5.457 	0.076 	0.038
 5.817 	-0.178 	-0.327
 5.193 	-0.420 	0.085
 5.311 	0.008 	-0.108
 5.936 	0.436 	-0.233
 6.110 	0.937 	-0.448
 5.920 	0.255 	-0.144
 5.723 	0.272 	0.109
 6.054 	1.040 	0.075
 6.461 	0.375 	0.214
 6.891 	-1.018 	-0.315
 5.648 	-1.120 	0.182
 5.203 	-0.589 	0.266
 5.527 	0.001 	-0.403
 5.345 	0.081 	-0.323
 5.204 	0.020 	0.040
 5.358 	0.271 	0.168
 5.463 	0.505 	-0.204
 4.988 	0.265 	0.081
 5.156 	0.031 	-0.381
 5.363 	0.367 	-0.374
 5.206 	0.693 	-0.253
 5.328 	0.268 	-0.138
 5.429 	0.372 	0.033
 5.778 	0.763 	-0.195
 5.777 	0.131 	-0.285
 4.851 	-0.959 	0.958
 4.819 	-0.487 	0.532
 4.644 	-0.669 	0.449
 4.814 	0.126 	0.025
 5.155 	0.271 	-0.167
 5.091 	-0.158 	-0.312
 5.301 	-0.247 	-0.373
 5.559 	0.749 	0.056
 5.872 	0.569 	-0.445
 5.491 	0.564 	-0.468
 5.729 	0.330 	-0.608
 6.203 	0.601 	-0.940
 6.505 	0.023 	-0.798
 6.167 	-0.193 	-0.288
 5.863 	0.185 	-0.522
 6.152 	-0.058 	-0.850
 5.585 	-0.394 	-0.092
 4.710 	-0.321 	0.942
 4.607 	-0.501 	0.483
 5.031 	-0.248 	0.045
 4.982 	0.287 	-0.321
 5.113 	-0.639 	0.229
 5.351 	-0.695 	-0.456
 5.204 	0.246 	-0.610
 5.601 	0.465 	-0.371
 5.535 	0.084 	-0.266
 5.043 	-0.023 	-0.613
 4.679 	-0.304 	0.096
 5.091 	0.383 	-0.005
 4.576 	-0.272 	0.352
 4.944 	-0.024 	0.389
 5.103 	0.361 	-0.468
 5.230 	-0.450 	0.832
 5.196 	-0.129 	0.945
 5.180 	-0.255 	0.504
 5.070 	-0.529 	0.007
 5.532 	0.053 	-0.362
 5.614 	-0.254 	-0.135
 5.700 	-0.980 	0.762
 5.854 	-0.338 	-0.475
 5.656 	0.211 	-0.424
 5.317 	-0.305 	-0.418
 4.918 	0.319 	-0.180
 4.638 	0.409 	-0.087
 4.268 	0.027 	0.583
 4.739 	-0.284 	0.405
 4.656 	0.156 	0.257
 4.888 	0.800 	0.278
 5.758 	0.302 	0.287
 6.276 	-0.359 	0.794
 5.998 	0.035 	0.620
 5.899 	-0.471 	-0.041
 5.940 	-0.621 	-0.040
 6.250 	-0.484 	-0.344
 5.568 	0.419 	0.721
 5.796 	-0.090 	-0.189
 6.035 	-0.416 	-0.564
 5.921 	-0.289 	-0.549
 5.770 	0.371 	-0.500
 5.556 	0.824 	-0.441
 6.217 	0.159 	-0.357
 5.748 	0.570 	-0.479
 5.243 	0.677 	-0.252
 4.742 	0.428 	-0.038
 6.458 	0.707 	0.064
 6.255 	-0.011 	0.851
 6.427 	-0.204 	-0.271
 6.328 	-0.175 	-0.203
 5.274 	-0.405 	0.476
 5.410 	-0.435 	0.381
 5.262 	0.167 	0.163
 5.488 	-0.285 	-0.144
 5.754 	-0.150 	-0.385
 5.882 	0.158 	-0.261
 5.632 	0.253 	-0.228
 5.544 	0.449 	-0.388
 5.596 	0.815 	-0.286
 5.784 	1.001 	-0.597
 5.136 	0.433 	-0.062
 4.899 	0.035 	0.268
 6.003 	0.777 	0.774
 6.049 	0.466 	0.138
 6.488 	0.167 	-0.148
 5.247 	0.256 	0.002
 4.907 	0.096 	0.511
 4.624 	-0.493 	0.493
 4.659 	-0.281 	0.874
 4.837 	-0.183 	0.671
 4.817 	-0.357 	0.490
 4.935 	-0.106 	0.190
 5.240 	0.316 	-0.165
 5.562 	0.433 	-0.775
 5.695 	0.430 	0.265
 5.988 	0.902 	-0.913
 5.946 	0.708 	0.046
 5.030 	0.181 	-0.077
 4.733 	-0.243 	-0.005
 4.939 	-0.230 	0.237
 4.858 	-0.180 	0.064
 4.691 	0.429 	-0.040
 5.125 	0.149 	-0.015
 5.272 	-0.172 	-0.041
 4.798 	-0.086 	0.156
 4.811 	-0.811 	0.011
 4.779 	-0.193 	0.655
 4.684 	0.248 	0.589
 4.880 	0.333 	0.023
 5.345 	0.017 	-0.266
 5.682 	0.349 	-0.343
 5.264 	0.967 	0.391
 5.477 	1.295 	0.043
 5.008 	0.265 	-0.007
 8.208 	0.725 	-0.743
 8.161 	0.824 	0.142
 7.820 	0.188 	1.240
 7.338 	0.617 	0.588
 7.189 	1.060 	0.484
 6.526 	0.751 	0.243
 6.131 	0.324 	0.172
 6.661 	0.432 	0.155
 7.053 	0.971 	0.470
 6.675 	1.671 	0.681
 7.271 	1.888 	1.040
 7.338 	1.401 	0.284
 7.442 	1.787 	-0.168
 7.875 	1.436 	-0.495
 7.341 	0.620 	-0.584
 7.217 	0.586 	-0.510
 6.871 	0.299 	0.103
 7.313 	1.078 	0.828
 5.949 	-0.007 	0.985
 5.876 	0.002 	1.450
 6.072 	0.770 	0.062
 6.006 	0.893 	0.191
 5.681 	0.524 	0.783
 6.082 	0.826 	1.242
 6.318 	1.159 	0.755
 6.513 	0.479 	0.638
 7.163 	1.452 	0.513
 7.155 	1.595 	0.502
 7.319 	1.106 	0.292
 7.287 	0.978 	-0.359
 6.925 	0.644 	-0.069
 6.754 	0.490 	-0.220
 6.825 	1.068 	1.060
 5.827 	0.563 	1.200
 5.390 	0.286 	1.127
 5.120 	-0.007 	1.070
 5.753 	1.134 	1.395
 6.010 	1.058 	1.753
 6.090 	1.146 	0.603
 5.809 	-0.167 	0.491
 6.617 	0.164 	0.518
 7.012 	-0.064 	-0.079
 7.210 	0.935 	0.331
 6.212 	1.430 	0.189
 5.541 	0.451 	0.598
 6.109 	0.848 	0.296
 6.544 	0.812 	-0.025
 6.603 	0.352 	-0.138
 5.298 	1.292 	1.502
 5.401 	0.611 	1.273
 5.497 	0.066 	1.391
 5.590 	-0.341 	1.110
 5.643 	-0.234 	0.797
 6.026 	0.050 	0.311
 6.240 	0.886 	0.356
 5.905 	0.500 	0.791
 6.325 	-0.094 	0.932
 7.067 	0.315 	-0.099
 6.635 	0.669 	-0.182
 6.417 	1.424 	-0.048
 6.509 	0.643 	0.209
 6.470 	1.029 	-0.396
 6.265 	0.418 	0.184
 6.740 	0.761 	-0.204
 6.866 	1.890 	0.909
 6.671 	0.410 	1.270
 6.915 	-0.239 	0.541
 6.248 	-0.001 	0.829
 5.574 	-0.207 	1.009
 5.044 	-0.488 	0.428
 5.234 	0.960 	1.112
 5.905 	-0.433 	0.651
 6.294 	-1.121 	0.011
 6.115 	-0.045 	0.047
 6.357 	0.706 	-0.054
 7.207 	0.998 	-0.722
 7.443 	1.109 	-0.761
 6.909 	1.383 	-0.326
 7.055 	0.551 	-0.320
 6.161 	0.610 	0.456
 6.242 	1.272 	1.519
 6.999 	0.785 	1.152
 7.094 	0.501 	0.669
 6.373 	0.325 	0.344
 6.241 	-0.188 	0.628
 6.278 	-0.267 	0.311
 5.967 	0.024 	0.062
 6.374 	-0.660 	0.057
 6.188 	-0.641 	0.119
 6.237 	-0.269 	0.172
 6.505 	0.612 	-0.310
 6.511 	1.300 	-0.454
 7.179 	1.295 	-0.392
 7.013 	1.254 	-0.656
 7.395 	0.725 	-0.930
 7.068 	1.309 	0.174
 6.138 	-0.357 	0.712
 6.616 	-0.025 	0.373
 6.813 	-0.093 	0.183
 6.541 	0.158 	0.122
 6.480 	-0.115 	0.055
 6.092 	-0.466 	0.207
 6.138 	-0.148 	-0.187
 6.229 	-0.898 	-0.234
 5.998 	-0.755 	-0.248
 6.213 	-0.453 	-0.574
 6.187 	-0.061 	-0.879
 6.876 	1.043 	-0.750
 6.466 	0.964 	-0.347
 6.641 	0.134 	0.178
 7.161 	0.811 	-0.463
 6.907 	1.312 	-0.151
 6.118 	-1.184 	0.365
 6.278 	-0.695 	0.849
 6.300 	-0.190 	0.298
 6.415 	-0.003 	-0.013
 6.179 	-0.445 	0.116
 5.877 	-0.668 	0.213
 6.046 	-0.638 	-0.131
 6.458 	-0.592 	-0.773
 6.187 	-0.374 	-0.198
 5.943 	-0.611 	-0.116
 6.148 	-0.849 	0.129
 6.240 	0.211 	-0.375
 6.541 	0.765 	-0.360
 7.113 	0.131 	0.066
 6.450 	1.027 	-0.084
 6.347 	0.955 	0.042
 5.564 	-1.317 	0.378
 5.538 	-0.468 	0.299
 6.149 	-0.213 	0.150
 6.036 	0.072 	-0.152
 5.978 	-0.045 	0.035
 5.676 	-0.566 	-0.021
 5.765 	-1.043 	0.114
 6.341 	-0.975 	-0.524
 6.871 	-0.055 	-0.854
 6.557 	0.025 	-0.903
 6.323 	-0.545 	-0.413
 5.944 	0.363 	0.192
 5.778 	0.215 	0.423
 5.930 	0.028 	0.104
 6.304 	0.599 	-0.029
 6.770 	1.251 	-0.176
 6.176 	-0.737 	0.014
 5.095 	-0.306 	1.049
 5.403 	-0.011 	0.734
 5.558 	0.214 	-0.020
 5.618 	-0.309 	-0.152
 5.830 	-0.714 	-0.194
 6.488 	-0.303 	-0.591
 6.140 	-0.617 	-0.284
 6.032 	-0.171 	-0.111
 6.084 	-0.148 	-0.167
 6.437 	-0.070 	-0.742
 6.548 	0.260 	-0.330
 6.559 	0.028 	-0.195
 6.367 	-0.059 	0.003
 6.263 	-0.009 	-0.027
 6.360 	0.691 	-0.125
 5.530 	-0.230 	0.151
 6.384 	-0.023 	1.052
 5.354 	0.310 	0.495
 5.737 	0.160 	-0.460
 5.739 	-0.451 	-0.357
 5.384 	-0.671 	0.222
 5.784 	-0.416 	-0.190
 6.008 	0.041 	-0.277
 5.779 	0.054 	-0.187
 5.706 	-0.040 	-0.293
 5.517 	-0.371 	-0.348
 5.329 	0.105 	-0.079
 5.360 	-0.383 	0.143
 5.530 	-0.205 	0.020
 6.492 	0.080 	-0.322
 6.478 	0.699 	-0.125
 6.380 	0.101 	0.462
 5.796 	0.223 	0.601
 6.048 	-0.017 	0.744
 6.294 	-0.216 	0.271
 6.467 	-0.390 	-0.204
 6.223 	-0.428 	-0.146
 5.873 	-0.367 	-0.179
 5.706 	0.045 	-0.026
 5.905 	-0.177 	-0.003
 5.627 	-0.151 	-0.602
 5.563 	0.066 	-0.006
 5.801 	0.056 	-0.624
 5.420 	0.742 	0.264
 5.624 	-0.005 	-0.270
 5.468 	0.282 	-0.152
 5.050 	0.372 	-0.162
 6.049 	0.781 	0.457
 6.022 	0.448 	0.589
 6.109 	0.422 	0.856
 6.258 	-0.291 	-0.004
 6.384 	-0.169 	-0.260
 6.399 	-0.183 	-0.173
 6.032 	-0.652 	0.239
 6.186 	-0.406 	-0.190
 6.379 	-0.005 	-0.531
 6.050 	-0.048 	-0.289
 5.799 	0.093 	-0.250
 5.693 	0.315 	-0.466
 5.959 	0.354 	-0.585
 5.767 	0.370 	-0.658
 5.008 	0.664 	0.004
 4.806 	0.679 	0.534
 6.075 	0.797 	0.166
 6.403 	0.576 	0.121
 6.318 	-0.014 	0.099
 5.953 	-0.029 	-0.004
 5.423 	-0.192 	0.241
 5.333 	-0.406 	0.462
 5.149 	-0.928 	0.347
 5.484 	-0.712 	-0.110
 6.013 	-0.708 	-0.695
 6.416 	-0.252 	-0.497
 6.136 	0.057 	-0.253
 5.870 	0.515 	-0.163
 6.357 	0.558 	-0.525
 5.426 	0.674 	-0.607
 5.230 	1.082 	0.469
 4.637 	0.830 	0.685
 5.609 	0.571 	0.687
 5.161 	-0.244 	0.470
 5.162 	-0.306 	0.467
 5.103 	0.019 	0.217
 5.260 	-0.171 	0.380
 4.836 	-0.103 	0.446
 4.877 	-0.749 	0.578
 5.065 	-0.663 	0.381
 5.358 	-0.555 	0.431
 5.238 	-0.635 	0.142
 5.477 	0.024 	-0.021
 5.793 	0.318 	-0.224
 5.685 	0.470 	0.036
 5.969 	0.720 	-0.726
 5.536 	1.176 	0.195
 5.659 	0.599 	-0.205
 4.874 	-0.148 	0.586
 4.855 	0.313 	0.724
 5.045 	-0.291 	0.121
 4.989 	-0.576 	0.262
 5.273 	-0.324 	0.154
 5.604 	-0.181 	-0.138
 5.384 	-0.092 	0.083
 4.929 	-0.110 	0.502
 5.177 	-0.212 	0.790
 4.891 	-0.525 	0.314
 4.925 	-0.168 	0.006
 5.662 	-0.138 	-0.099
 5.595 	0.193 	-0.298
 5.954 	0.225 	0.034
 6.324 	1.099 	-0.287
 6.026 	1.072 	-0.253
 7.463 	-0.413 	-0.466
 7.671 	-0.095 	0.655
 7.498 	-0.083 	0.966
 7.387 	0.596 	1.011
 7.139 	0.743 	0.861
 7.532 	1.204 	0.524
 7.379 	0.976 	0.516
 6.923 	0.926 	0.618
 7.718 	1.154 	0.418
 7.747 	0.724 	0.034
 7.710 	1.521 	0.950
 8.207 	1.961 	-0.025
 8.481 	1.255 	-0.645
 8.534 	1.279 	-0.756
 8.245 	0.959 	-0.175
 7.773 	0.395 	-0.186
 6.247 	-0.074 	0.436
 6.240 	0.315 	1.618
 7.077 	0.489 	1.309
 5.896 	0.043 	1.477
 5.624 	0.320 	1.235
 6.397 	0.504 	0.886
 6.659 	0.972 	0.718
 6.464 	1.049 	0.699
 6.762 	0.263 	0.502
 6.636 	0.718 	0.875
 7.520 	1.446 	0.614
 7.623 	1.858 	0.795
 7.351 	1.507 	0.307
 7.336 	1.162 	0.366
 7.569 	0.717 	-0.120
 7.801 	0.552 	-0.375
 6.577 	0.173 	0.376
 6.400 	0.351 	1.780
 6.207 	0.630 	1.214
 5.597 	-0.636 	1.849
 5.521 	-0.762 	1.825
 5.813 	-0.296 	1.338
 6.726 	0.414 	0.579
 7.261 	0.427 	-0.061
 7.628 	0.549 	-0.276
 7.677 	0.516 	0.063
 7.522 	1.195 	0.567
 6.726 	1.790 	0.621
 6.865 	1.484 	0.513
 6.945 	0.902 	0.289
 7.001 	0.793 	0.075
 7.217 	0.648 	-0.396
 6.134 	0.870 	1.221
 5.855 	0.729 	1.520
 5.578 	0.592 	1.008
 5.592 	0.228 	0.686
 5.852 	-0.080 	0.804
 5.510 	-0.554 	0.909
 6.169 	-0.298 	0.626
 6.629 	0.184 	0.921
 7.860 	1.009 	0.602
 7.655 	0.497 	0.469
 7.228 	1.739 	0.009
 7.096 	1.975 	0.029
 7.153 	1.245 	-0.363
 7.101 	1.115 	0.079
 6.780 	0.785 	-0.020
 7.223 	0.433 	-0.142
 5.965 	0.996 	0.858
 6.245 	0.830 	1.236
 6.384 	-0.088 	1.193
 6.454 	-0.126 	0.413
 6.470 	0.154 	1.400
 6.318 	-0.088 	0.304
 6.308 	-0.464 	0.736
 6.291 	-0.125 	0.825
 6.773 	-0.502 	0.618
 6.922 	0.166 	0.484
 6.902 	1.096 	0.271
 7.555 	1.509 	-0.005
 7.512 	0.945 	-0.710
 7.439 	1.071 	0.004
 7.583 	0.868 	-0.272
 7.765 	0.430 	-0.213