# vtk DataFile Version 3.0
HighT1
ASCII
DATASET STRUCTURED_POINTS
DIMENSIONS 16 16 19
ORIGIN 929.001000000000 929.001000000000 5.001000000000
SPACING 10.000000000000 10.000000000000 10.000000000000
POINT_DATA 4864
FIELD attributes 1
U 3 4864 float
2.586 	0.586 	0.687
 3.053 	0.071 	0.044
 3.263 	-0.913 	-0.136
 2.904 	-0.761 	0.166
 2.992 	-0.343 	0.155
 3.173 	-0.375 	0.349
 3.097 	-0.268 	0.279
 3.228 	-0.183 	0.212
 3.217 	-0.547 	0.079
 3.295 	-0.707 	-0.080
 3.547 	-0.380 	-0.134
 3.438 	-0.478 	0.136
 3.733 	-0.317 	0.124
 3.961 	-0.224 	0.151
 3.791 	-0.321 	0.019
 3.558 	-0.051 	-0.094
 3.423 	-0.007 	-0.552
 4.190 	-0.225 	-0.554
 4.573 	-0.129 	-0.361
 4.925 	0.678 	-0.658
 4.650 	0.037 	0.008
 4.078 	-0.674 	0.163
 3.387 	-0.180 	-0.049
 2.934 	0.031 	-0.019
 2.810 	-0.216 	-0.042
 3.134 	-0.436 	-0.050
 3.510 	-0.542 	0.136
 4.424 	-0.807 	-0.146
 4.764 	-1.148 	0.019
 4.706 	-0.504 	0.055
 3.958 	-0.361 	0.103
 3.171 	-0.451 	0.096
 3.789 	0.380 	-0.362
 3.960 	0.358 	-0.268
 4.161 	0.298 	-0.062
 4.218 	0.255 	0.121
 5.179 	1.171 	-0.146
 4.298 	0.376 	0.360
 3.319 	0.347 	0.316
 3.652 	-0.272 	0.468
 4.370 	-1.175 	0.451
 4.590 	-1.026 	0.059
 4.422 	-0.765 	0.043
 3.606 	-1.636 	-0.032
 3.233 	-0.567 	0.366
 3.167 	-0.254 	0.220
 3.524 	-0.492 	0.045
 4.200 	-1.078 	0.109
 3.198 	0.124 	0.090
 3.864 	0.326 	-0.087
 4.503 	0.519 	-0.489
 4.687 	0.513 	-0.444
 4.705 	0.596 	0.041
 5.005 	1.234 	0.011
 4.978 	0.551 	-0.009
 5.331 	-0.397 	0.053
 4.910 	-0.647 	0.147
 4.996 	-1.098 	0.040
 4.696 	-1.207 	0.121
 3.901 	-1.080 	-0.152
 3.851 	-0.563 	-0.110
 3.533 	-0.430 	0.290
 3.480 	-1.217 	0.294
 4.303 	-1.794 	0.314
 3.325 	-0.215 	0.144
 3.271 	0.014 	0.119
 3.469 	0.512 	0.036
 4.130 	0.804 	-0.200
 4.822 	0.862 	-0.098
 5.002 	0.675 	-0.009
 5.317 	0.056 	0.073
 5.210 	-0.409 	-0.158
 4.485 	-0.274 	-0.036
 3.918 	-0.158 	0.054
 3.530 	-1.022 	0.145
 3.067 	-1.049 	-0.015
 2.362 	-0.567 	0.686
 3.138 	-0.626 	0.638
 4.854 	-1.532 	-0.210
 6.021 	-1.440 	-0.762
 3.649 	-0.084 	-0.152
 3.652 	0.044 	-0.185
 3.857 	0.093 	-0.052
 4.132 	0.353 	-0.020
 4.402 	0.554 	-0.015
 4.686 	0.555 	-0.062
 4.626 	0.117 	-0.054
 4.406 	0.013 	-0.086
 4.349 	0.197 	0.142
 4.219 	0.257 	-0.069
 4.172 	0.112 	-0.164
 4.639 	-0.140 	-0.277
 5.342 	-0.758 	-0.197
 5.860 	-0.952 	-0.446
 6.405 	-0.565 	-1.212
 6.649 	-1.085 	-0.253
 3.032 	-0.209 	0.328
 3.331 	-0.379 	0.342
 3.757 	-0.496 	0.349
 3.630 	-0.442 	0.521
 3.924 	-0.023 	0.206
 4.255 	0.258 	0.107
 4.564 	-0.046 	0.081
 4.650 	-0.206 	0.096
 4.612 	-0.781 	0.217
 4.808 	-0.644 	0.076
 4.984 	-0.235 	0.191
 5.567 	0.014 	-0.309
 5.682 	-0.210 	-0.369
 5.447 	-0.693 	-0.265
 5.705 	-0.467 	-0.763
 6.287 	-0.613 	-0.222
 4.492 	-0.027 	-0.306
 4.724 	-0.152 	-0.305
 4.993 	-0.130 	-0.221
 5.242 	-0.052 	-0.201
 5.657 	-0.080 	-0.114
 5.658 	-0.307 	0.102
 5.023 	-0.321 	0.174
 5.107 	-0.744 	-0.031
 5.530 	-0.579 	-0.405
 5.875 	-0.495 	-0.302
 5.898 	-0.386 	-0.178
 5.365 	-0.108 	-0.175
 6.202 	0.268 	-0.569
 5.733 	-0.699 	-0.108
 5.079 	0.122 	-0.090
 4.470 	-0.262 	0.279
 4.334 	0.023 	-0.215
 4.494 	-0.124 	-0.136
 4.721 	-0.023 	-0.091
 5.055 	-0.106 	-0.136
 5.390 	0.012 	0.024
 4.970 	0.042 	0.058
 4.662 	-0.363 	-0.006
 4.787 	-0.301 	-0.354
 4.900 	-0.312 	-0.332
 5.064 	-0.165 	-0.045
 5.172 	-0.039 	-0.020
 5.670 	-0.355 	-0.347
 5.776 	0.523 	-0.093
 4.953 	0.626 	0.114
 3.956 	0.196 	0.212
 4.668 	0.082 	0.124
 4.358 	0.103 	-0.363
 4.785 	0.335 	-0.340
 4.451 	0.339 	-0.038
 5.072 	-0.049 	-0.085
 5.614 	-0.390 	0.060
 5.265 	-0.008 	0.120
 4.652 	-0.284 	0.104
 4.100 	0.029 	-0.000
 4.067 	0.022 	-0.091
 4.136 	-0.320 	0.082
 5.023 	0.022 	-0.073
 5.096 	0.516 	-0.136
 5.156 	0.807 	-0.028
 5.383 	1.162 	0.317
 5.099 	0.984 	-0.337
 4.924 	0.663 	0.160
 3.651 	-0.059 	-0.011
 4.739 	0.438 	-0.077
 4.894 	0.447 	-0.241
 4.487 	-0.020 	0.446
 4.817 	-0.024 	0.260
 4.121 	-0.336 	0.267
 4.115 	-0.066 	0.239
 3.932 	-0.431 	0.346
 4.398 	-0.459 	0.132
 5.307 	-0.255 	-0.274
 5.927 	-0.371 	-0.176
 4.911 	0.348 	0.019
 5.268 	-0.152 	0.030
 5.274 	0.729 	0.185
 5.328 	0.889 	-0.048
 6.067 	0.984 	-0.323
 4.137 	0.421 	-0.302
 3.726 	0.207 	0.071
 3.361 	-0.024 	0.143
 3.618 	-0.113 	0.328
 2.930 	-1.196 	0.149
 3.530 	-1.305 	-0.264
 3.940 	-1.411 	-0.506
 5.266 	-0.468 	-1.009
 5.354 	-0.401 	-0.736
 5.654 	-0.028 	-0.732
 6.010 	0.431 	-0.262
 5.167 	0.546 	0.086
 5.156 	0.597 	0.035
 5.398 	0.768 	0.138
 5.500 	0.365 	-0.269
 5.392 	1.110 	0.262
 3.853 	0.507 	-0.060
 3.765 	0.857 	0.260
 4.003 	0.206 	-0.317
 5.131 	-0.062 	0.124
 4.850 	-1.414 	0.401
 3.224 	-0.664 	-0.111
 3.227 	-1.061 	0.054
 3.476 	-0.230 	-0.155
 4.108 	0.465 	-0.034
 4.412 	0.654 	0.233
 4.283 	0.914 	0.395
 4.094 	1.200 	-0.095
 3.283 	1.171 	0.071
 3.695 	0.518 	-0.257
 4.393 	0.427 	-0.070
 4.846 	1.296 	0.370
 5.213 	0.519 	-0.475
 5.173 	0.368 	0.105
 5.950 	0.170 	-0.547
 5.469 	0.046 	0.022
 5.033 	-0.329 	0.105
 3.987 	-0.149 	-0.047
 3.819 	-0.028 	-0.221
 2.910 	-0.350 	-0.014
 3.054 	-0.010 	0.461
 3.090 	0.677 	0.157
 3.324 	0.404 	0.123
 3.687 	1.001 	0.055
 4.000 	1.223 	-0.062
 3.923 	0.065 	-0.167
 4.089 	0.478 	0.117
 4.178 	0.152 	-0.062
 4.859 	0.091 	-0.334
 5.281 	0.216 	-0.141
 5.739 	0.554 	-0.202
 6.010 	0.673 	-0.097
 4.703 	0.262 	0.071
 3.066 	-0.468 	0.250
 3.876 	0.062 	-0.191
 3.925 	-0.190 	-0.042
 3.957 	-0.103 	0.207
 4.442 	-0.631 	0.142
 4.021 	-0.028 	0.391
 3.780 	1.029 	0.050
 3.381 	0.156 	0.002
 3.453 	0.122 	0.349
 3.167 	-0.066 	0.423
 3.261 	0.029 	0.214
 3.349 	0.594 	0.787
 4.168 	1.109 	0.560
 4.822 	1.109 	0.268
 5.357 	1.654 	-0.588
 5.273 	1.234 	0.111
 4.201 	-0.239 	0.200
 5.055 	0.289 	-0.046
 4.834 	-0.437 	-0.097
 5.080 	-0.049 	-0.647
 5.424 	0.433 	0.187
 4.413 	-0.130 	0.107
 3.088 	0.119 	0.477
 2.802 	1.112 	0.031
 3.818 	0.321 	-0.372
 3.795 	-0.266 	-0.003
 3.316 	-0.472 	0.059
 3.234 	1.300 	0.512
 3.883 	1.082 	0.722
 4.585 	-0.128 	-0.652
 4.997 	-0.037 	-0.241
 5.121 	1.438 	-0.087
 4.220 	0.793 	0.695
 3.803 	0.482 	0.607
 3.754 	0.660 	0.508
 3.792 	0.775 	0.166
 4.069 	0.561 	-0.081
 4.447 	0.110 	-0.157
 5.020 	-0.401 	-0.108
 5.048 	-0.777 	-0.171
 5.022 	-0.514 	0.075
 4.224 	-0.155 	0.112
 4.242 	0.329 	0.215
 4.432 	0.920 	-0.447
 5.233 	0.618 	-0.776
 4.683 	-0.037 	-0.312
 4.506 	-0.526 	-0.724
 4.952 	1.397 	0.059
 4.666 	0.722 	0.091
 4.927 	0.470 	0.103
 4.438 	0.595 	0.106
 4.633 	0.306 	-0.369
 4.820 	0.069 	-0.445
 4.810 	0.337 	-0.201
 4.584 	0.446 	0.228
 4.898 	-1.017 	0.836
 5.481 	-0.914 	0.561
 5.060 	-0.129 	0.485
 5.381 	0.466 	0.182
 5.756 	0.006 	-0.421
 4.938 	0.147 	-0.325
 4.521 	0.341 	0.112
 4.616 	-0.409 	-0.221
 4.876 	0.535 	-0.441
 5.496 	0.880 	-0.364
 4.978 	0.791 	0.187
 4.197 	0.688 	0.031
 4.210 	0.918 	-0.268
 4.471 	0.248 	0.066
 5.025 	-0.209 	-0.045
 5.449 	-0.240 	-0.071
 6.101 	-1.344 	0.042
 5.476 	-0.724 	0.969
 4.163 	-0.314 	0.662
 4.387 	0.416 	0.280
 6.207 	0.679 	-0.533
 6.406 	0.723 	-0.655
 6.172 	0.562 	-1.091
 5.244 	0.081 	0.147
 4.975 	0.251 	-0.466
 4.927 	1.011 	-0.203
 4.451 	1.224 	0.363
 4.299 	0.935 	0.002
 5.012 	0.743 	-0.401
 5.715 	-0.543 	0.069
 6.242 	-0.814 	0.009
 6.039 	-0.974 	0.223
 5.764 	-0.536 	0.210
 6.228 	-0.397 	0.263
 5.553 	-0.396 	0.419
 5.582 	0.382 	0.293
 5.307 	1.038 	0.009
 5.721 	1.061 	-0.156
 6.152 	0.691 	-0.300
 6.123 	0.766 	-0.104
 4.969 	0.654 	-0.112
 4.985 	1.104 	-0.498
 5.571 	0.936 	-0.269
 6.304 	0.493 	-0.283
 6.338 	-0.032 	-0.374
 6.640 	-0.115 	-0.392
 6.706 	-0.359 	-0.281
 6.399 	-0.821 	0.301
 6.225 	-0.385 	0.259
 6.500 	0.031 	-0.208
 6.398 	-0.335 	-0.851
 6.674 	-0.206 	-0.606
 5.772 	0.922 	-0.286
 5.934 	0.903 	-0.294
 5.822 	0.734 	-0.119
 5.888 	0.700 	-0.164
 5.961 	0.564 	-0.093
 5.846 	0.726 	0.131
 6.123 	0.786 	0.256
 6.372 	0.525 	0.034
 6.547 	0.314 	-0.057
 6.718 	0.337 	-0.231
 6.777 	0.365 	-0.755
 6.802 	-0.113 	-0.146
 6.544 	-0.631 	-0.006
 6.601 	-0.646 	-0.364
 6.632 	-0.815 	-0.815
 6.638 	-0.282 	-0.343
 4.314 	0.744 	0.144
 4.008 	0.798 	0.183
 4.166 	0.710 	0.065
 4.101 	0.367 	0.224
 4.271 	0.453 	0.415
 4.311 	0.606 	0.550
 4.708 	0.538 	0.594
 5.251 	0.617 	0.612
 6.083 	0.717 	0.046
 6.594 	1.047 	-0.645
 6.674 	0.509 	-0.684
 6.838 	-0.029 	-0.344
 6.465 	-0.647 	-0.456
 7.051 	-0.798 	-0.542
 6.941 	-0.977 	-0.676
 6.530 	-0.614 	-0.583
 5.319 	0.375 	-0.098
 5.634 	0.360 	-0.377
 5.841 	0.371 	-0.491
 6.296 	-0.082 	-0.544
 6.575 	0.170 	-0.511
 6.212 	0.757 	-0.377
 6.072 	0.400 	-0.056
 6.091 	0.475 	-0.269
 6.397 	0.569 	-0.481
 6.303 	1.028 	-0.441
 6.539 	0.193 	-0.305
 6.392 	-0.351 	-0.156
 6.809 	-0.277 	-0.869
 7.139 	-0.439 	-0.361
 6.861 	-0.583 	-0.101
 6.588 	-0.137 	-0.085
 5.699 	0.106 	-0.312
 5.507 	0.269 	-0.075
 5.699 	-0.059 	0.202
 5.907 	-0.264 	0.303
 6.100 	0.003 	0.237
 6.523 	0.394 	0.035
 6.609 	0.512 	-0.361
 6.559 	0.251 	-0.645
 6.871 	0.656 	-0.844
 6.822 	1.085 	-0.629
 6.705 	-0.223 	-0.254
 6.494 	-0.352 	-0.142
 7.125 	-0.382 	-0.538
 6.389 	0.016 	0.149
 5.589 	0.054 	-0.105
 5.457 	0.536 	-0.003
 6.416 	0.455 	-0.531
 5.606 	-0.431 	0.075
 5.849 	-0.096 	0.007
 5.663 	-0.170 	-0.165
 6.168 	0.269 	0.149
 6.313 	0.551 	0.214
 6.719 	0.538 	-0.089
 6.630 	0.515 	-0.003
 6.609 	0.315 	-0.196
 7.408 	0.454 	-0.129
 6.634 	0.225 	0.161
 6.163 	-0.496 	-0.160
 5.883 	-0.476 	-0.226
 5.892 	0.409 	0.324
 5.964 	0.427 	-0.252
 5.587 	0.102 	-0.332
 6.102 	0.350 	0.085
 6.131 	-0.523 	-0.277
 5.686 	-0.483 	-0.273
 4.728 	-0.149 	0.641
 3.950 	-0.705 	1.332
 5.386 	0.390 	0.562
 6.222 	0.699 	-0.016
 6.532 	0.902 	-0.033
 6.785 	0.459 	-0.481
 6.622 	0.745 	-0.765
 6.398 	0.497 	0.131
 6.198 	0.104 	-0.129
 5.795 	0.077 	-0.039
 6.338 	0.083 	0.146
 6.877 	0.441 	-0.019
 6.005 	1.027 	-0.218
 6.570 	-0.426 	-0.156
 6.431 	-0.730 	0.241
 5.742 	0.062 	-0.177
 5.693 	-0.324 	0.187
 7.091 	0.321 	-0.130
 5.348 	-0.049 	0.445
 5.758 	0.944 	-0.583
 6.129 	0.284 	-0.832
 6.171 	0.037 	-0.661
 5.604 	-0.114 	-0.280
 5.322 	0.235 	-0.314
 4.784 	0.491 	0.143
 3.899 	-0.480 	-0.108
 4.453 	-0.475 	0.203
 4.971 	0.151 	0.312
 5.371 	0.670 	-0.138
 6.605 	-0.469 	-0.408
 6.609 	-0.515 	0.371
 6.774 	-0.006 	-0.755
 6.515 	0.306 	-0.004
 5.272 	-0.435 	0.721
 6.252 	-0.198 	-0.110
 5.907 	-0.470 	0.172
 5.945 	-0.494 	-0.185
 5.111 	-0.203 	0.003
 4.810 	-0.213 	0.062
 4.669 	0.356 	0.134
 3.900 	0.631 	0.561
 4.452 	0.143 	-0.485
 5.077 	-0.185 	-0.392
 5.070 	-0.631 	0.005
 4.960 	-0.458 	0.283
 6.087 	-0.457 	-0.008
 6.293 	-0.484 	-0.312
 6.505 	0.037 	-0.480
 7.027 	0.266 	-0.415
 6.208 	0.113 	0.075
 6.576 	0.247 	0.574
 6.091 	0.143 	-0.184
 6.018 	0.460 	-0.398
 5.436 	-0.422 	0.571
 5.244 	-1.353 	-0.312
 5.323 	0.016 	0.531
 3.993 	0.973 	1.112
 4.222 	0.022 	0.029
 4.961 	-0.713 	-0.567
 5.205 	-0.602 	-0.216
 4.841 	0.081 	0.419
 5.800 	-0.198 	-0.303
 5.947 	-0.474 	-0.383
 5.953 	-0.225 	-0.250
 5.854 	0.654 	-0.399
 5.811 	0.572 	0.868
 6.316 	0.246 	0.002
 6.270 	0.564 	-0.387
 5.453 	0.660 	0.443
 5.116 	-0.261 	0.218
 5.525 	-0.350 	-0.477
 4.548 	0.374 	0.456
 4.089 	0.711 	1.269
 4.472 	-0.109 	0.088
 3.925 	-0.025 	-0.444
 3.719 	-0.171 	0.444
 3.425 	-0.900 	0.594
 5.185 	-0.733 	0.055
 5.370 	-0.148 	-0.456
 5.006 	-0.651 	-0.158
 4.910 	0.976 	-0.397
 5.546 	1.478 	0.153
 6.113 	0.587 	-0.842
 5.927 	0.945 	-0.638
 6.102 	0.757 	-0.161
 5.732 	0.146 	-0.520
 4.949 	0.367 	0.378
 5.263 	0.448 	0.286
 5.511 	-0.147 	0.457
 5.705 	0.288 	-0.706
 4.647 	1.019 	-0.733
 4.958 	0.382 	0.652
 5.046 	-0.475 	0.172
 6.197 	-0.381 	-0.717
 6.154 	0.176 	0.340
 5.561 	-0.053 	0.084
 5.792 	0.152 	0.212
 5.192 	0.875 	0.446
 5.370 	1.774 	1.027
 4.923 	1.233 	0.834
 4.700 	0.824 	0.629
 4.610 	0.730 	0.273
 4.720 	1.554 	0.301
 5.122 	1.230 	-0.278
 5.327 	0.506 	-0.458
 5.676 	0.130 	-0.453
 5.439 	0.076 	0.311
 5.492 	-0.328 	0.657
 4.503 	0.676 	0.505
 5.596 	0.219 	-0.359
 5.960 	0.293 	-0.260
 5.281 	0.246 	-0.278
 4.610 	-0.267 	-0.431
 5.207 	0.587 	0.163
 5.391 	1.207 	0.718
 5.388 	1.295 	0.555
 5.199 	0.738 	0.094
 4.915 	0.449 	-0.170
 5.195 	0.928 	-0.044
 5.563 	0.725 	-0.244
 5.576 	0.460 	0.054
 5.178 	0.582 	0.294
 5.106 	-0.152 	0.920
 6.152 	-0.264 	0.305
 6.379 	0.455 	0.497
 6.772 	-0.031 	-0.337
 5.937 	0.918 	-0.311
 5.707 	0.454 	-0.153
 5.262 	0.026 	0.028
 4.850 	0.003 	0.178
 5.461 	0.722 	-0.447
 5.501 	1.087 	0.085
 6.016 	1.066 	-0.355
 5.545 	0.707 	-0.241
 4.499 	1.021 	0.061
 4.537 	0.335 	0.087
 5.147 	0.055 	0.412
 5.002 	0.357 	0.032
 5.068 	0.142 	0.697
 5.260 	-0.407 	1.160
 5.500 	-0.294 	0.446
 7.156 	0.150 	-0.369
 6.424 	0.859 	-0.363
 5.891 	0.513 	-0.435
 5.942 	-0.080 	-0.282
 6.102 	-0.354 	-0.470
 5.368 	0.475 	0.271
 5.239 	1.022 	-0.011
 4.883 	1.138 	0.004
 4.953 	0.953 	-0.031
 5.503 	0.910 	-0.196
 6.049 	0.112 	0.112
 5.350 	-0.010 	0.142
 5.386 	0.003 	0.053
 5.381 	0.089 	-0.355
 5.543 	-0.440 	0.092
 5.673 	-0.312 	1.037
 6.589 	0.498 	-0.157
 6.551 	0.477 	-0.212
 6.654 	0.498 	0.030
 6.027 	0.269 	0.016
 6.130 	0.110 	-0.280
 5.961 	0.491 	-0.081
 5.405 	1.099 	0.038
 5.782 	1.198 	-0.543
 6.435 	0.755 	-0.839
 7.237 	0.123 	-0.819
 7.433 	0.278 	-0.557
 6.834 	0.013 	-0.122
 6.555 	-0.261 	0.310
 6.279 	-0.653 	0.027
 6.125 	-0.321 	-0.360
 6.174 	-0.114 	-0.203
 6.895 	0.707 	-0.328
 6.483 	0.234 	0.017
 6.130 	0.117 	0.141
 5.979 	0.102 	0.168
 6.174 	0.123 	-0.157
 6.468 	0.247 	-0.159
 6.863 	0.685 	-0.012
 6.741 	0.641 	0.004
 6.684 	0.142 	-0.370
 7.001 	-0.355 	-0.533
 7.096 	0.267 	-0.578
 7.225 	0.229 	-0.353
 7.030 	-0.047 	0.096
 6.893 	-0.739 	-0.142
 6.924 	-0.971 	-0.559
 6.535 	-0.521 	-0.257
 5.842 	0.385 	0.074
 5.990 	0.617 	0.201
 5.969 	0.363 	0.037
 6.097 	0.174 	-0.096
 6.211 	0.062 	0.168
 6.613 	0.394 	0.154
 6.850 	0.572 	0.225
 6.610 	0.959 	-0.013
 6.482 	0.127 	-0.621
 6.177 	-0.429 	-1.020
 6.392 	-0.100 	-0.892
 6.624 	0.055 	-0.130
 6.865 	-0.190 	-0.172
 6.504 	-1.155 	-0.399
 6.799 	-0.875 	-0.688
 7.041 	-0.763 	-0.640
 5.802 	-0.106 	-0.092
 6.194 	0.316 	-0.040
 6.195 	0.117 	-0.149
 6.441 	-0.118 	-0.167
 6.421 	0.295 	0.017
 6.649 	0.577 	-0.004
 7.091 	0.687 	-0.019
 7.146 	1.097 	-0.274
 7.044 	0.348 	-0.344
 6.497 	0.117 	0.031
 6.241 	-0.076 	-0.097
 6.407 	-0.263 	-0.311
 6.755 	-0.609 	-0.461
 6.603 	-1.066 	-0.567
 6.310 	-0.870 	-0.592
 6.535 	-0.469 	-0.479
 5.867 	0.002 	-0.219
 5.957 	-0.333 	-0.034
 6.340 	-0.281 	-0.041
 6.708 	-0.578 	0.031
 6.719 	-0.080 	-0.013
 6.522 	0.251 	0.011
 6.446 	0.683 	-0.154
 6.799 	1.074 	0.009
 6.772 	0.224 	-0.192
 6.859 	-0.159 	-0.012
 6.627 	0.250 	0.235
 6.683 	-0.500 	-0.053
 6.656 	-0.644 	-0.176
 6.492 	-0.736 	-0.283
 6.387 	-0.356 	-0.090
 6.445 	0.365 	-0.015
 5.216 	-0.197 	-0.159
 5.283 	-0.493 	0.334
 5.365 	-0.363 	0.183
 5.827 	-0.319 	0.236
 6.068 	-0.136 	0.066
 6.164 	0.186 	0.094
 6.178 	0.470 	0.092
 6.202 	-0.150 	-0.196
 6.831 	-0.574 	-0.512
 7.155 	0.136 	-0.470
 6.837 	0.027 	-0.369
 6.292 	-0.156 	-0.171
 5.905 	-0.486 	0.170
 6.216 	-0.439 	0.267
 6.370 	-0.310 	-0.340
 6.320 	0.833 	0.216
 5.712 	-0.514 	0.460
 6.018 	-0.867 	0.071
 5.802 	-0.603 	0.211
 5.866 	-0.517 	0.051
 5.984 	-0.523 	0.896
 6.396 	-0.762 	0.700
 6.390 	-0.011 	0.267
 6.491 	-0.491 	-0.301
 6.809 	-0.669 	-0.779
 5.971 	0.205 	-0.288
 6.000 	0.193 	0.297
 5.655 	0.050 	0.343
 4.784 	-0.602 	0.200
 4.930 	-0.464 	-0.234
 5.370 	-0.523 	-0.203
 6.270 	0.643 	0.170
 6.664 	-0.848 	-0.199
 6.690 	-0.497 	0.073
 6.355 	-0.885 	0.201
 6.653 	-0.002 	-0.211
 5.581 	-0.446 	-0.017
 6.250 	-0.503 	0.607
 6.119 	-0.233 	0.212
 6.585 	-0.410 	-0.435
 6.216 	0.110 	-0.431
 5.844 	0.157 	0.580
 4.738 	0.120 	0.537
 4.763 	-0.004 	0.327
 5.427 	-0.079 	-0.496
 4.938 	-0.825 	0.266
 4.805 	-1.290 	0.742
 5.114 	-0.606 	0.771
 6.490 	-0.786 	-0.377
 6.861 	-0.368 	-0.339
 6.609 	-0.111 	-0.202
 5.934 	0.333 	0.094
 5.908 	0.007 	0.351
 6.008 	0.153 	0.023
 6.003 	-0.252 	-0.152
 5.958 	-0.413 	0.190
 5.834 	0.396 	0.371
 4.888 	0.116 	0.674
 5.218 	0.067 	0.459
 5.399 	0.356 	0.073
 5.065 	0.088 	-0.530
 5.076 	-0.229 	-0.339
 5.035 	-1.063 	0.048
 5.293 	-1.265 	-0.317
 5.735 	-0.930 	-0.421
 6.006 	-0.987 	-0.232
 6.360 	-0.164 	-0.325
 6.495 	0.303 	0.049
 6.469 	0.257 	0.146
 6.001 	0.294 	0.104
 6.078 	-0.392 	-0.080
 5.921 	0.069 	0.538
 5.574 	0.819 	0.230
 4.664 	-0.174 	-0.168
 4.611 	0.135 	0.968
 5.482 	0.166 	0.271
 5.640 	-0.296 	-0.215
 6.064 	-0.090 	-0.558
 6.564 	-0.473 	-0.396
 5.249 	-0.938 	0.007
 5.671 	-0.746 	-0.113
 5.110 	-1.058 	-0.385
 5.638 	-0.541 	-0.146
 5.909 	-0.077 	-0.443
 6.192 	0.041 	-0.268
 6.732 	0.216 	-0.252
 6.800 	0.306 	-0.120
 6.332 	0.553 	0.052
 6.556 	0.818 	0.086
 6.176 	0.158 	-0.263
 5.644 	0.730 	0.793
 6.343 	0.236 	0.797
 6.521 	0.019 	-0.175
 6.132 	-0.019 	-0.045
 5.089 	0.352 	0.319
 4.846 	0.091 	0.374
 4.844 	-0.764 	0.028
 5.054 	-0.708 	-0.429
 5.127 	-0.565 	-0.009
 4.890 	-0.600 	-0.289
 5.138 	-0.365 	-0.579
 5.640 	-0.022 	-0.748
 5.991 	0.482 	-0.626
 6.473 	0.745 	-0.357
 6.583 	0.636 	-0.167
 6.762 	0.530 	-0.008
 6.759 	0.056 	0.355
 6.710 	-0.094 	0.234
 6.304 	0.073 	-0.062
 6.074 	0.304 	-0.168
 6.013 	0.800 	-0.094
 6.039 	0.475 	-0.051
 6.145 	-0.061 	-0.072
 5.924 	-0.215 	0.201
 5.925 	0.079 	0.143
 5.338 	-0.001 	-0.228
 5.832 	0.171 	0.336
 5.652 	0.439 	0.919
 5.810 	1.691 	0.816
 5.950 	0.792 	0.914
 5.873 	0.758 	0.732
 5.871 	1.631 	0.055
 6.044 	1.437 	0.024
 5.827 	0.653 	-0.214
 5.667 	0.633 	-0.418
 5.693 	0.645 	-0.313
 5.703 	0.347 	0.233
 5.654 	0.143 	0.313
 6.724 	-0.410 	-0.452
 6.387 	0.233 	-0.236
 5.647 	0.274 	-0.079
 5.308 	0.420 	-0.093
 4.772 	-0.004 	0.085
 5.522 	0.542 	0.788
 5.899 	0.930 	1.138
 6.180 	1.052 	0.714
 5.316 	0.655 	0.325
 5.403 	1.478 	0.322
 5.461 	1.015 	0.043
 5.186 	0.248 	0.357
 5.605 	0.426 	0.467
 5.826 	0.565 	0.655
 5.447 	1.059 	0.635
 5.534 	0.996 	0.446
 6.389 	-0.152 	0.008
 6.097 	0.959 	-0.128
 5.262 	0.367 	0.192
 5.207 	0.396 	0.259
 5.515 	0.120 	0.234
 5.614 	0.012 	0.239
 5.551 	0.422 	0.084
 5.664 	0.748 	-0.134
 5.505 	0.696 	0.036
 5.164 	0.986 	0.011
 5.045 	1.060 	0.606
 5.326 	-0.106 	0.573
 5.268 	-0.304 	0.638
 5.220 	0.064 	0.720
 5.547 	0.497 	0.714
 5.930 	0.677 	0.844
 6.318 	0.490 	0.037
 5.926 	0.816 	0.071
 5.786 	0.253 	-0.184
 6.205 	0.429 	-0.550
 6.519 	0.532 	-0.688
 6.396 	-0.241 	0.420
 6.437 	0.126 	-0.267
 5.713 	0.586 	0.206
 5.895 	0.711 	0.129
 5.803 	0.736 	0.068
 5.914 	0.573 	0.218
 6.104 	0.244 	-0.018
 6.455 	-0.204 	0.428
 6.060 	-0.314 	0.253
 6.115 	-0.117 	0.392
 6.159 	-0.180 	0.489
 6.685 	0.432 	-0.123
 6.643 	0.549 	0.230
 6.545 	0.166 	0.339
 6.577 	-0.062 	0.138
 6.584 	-0.020 	-0.170
 6.679 	0.193 	-0.099
 7.123 	0.102 	0.093
 7.052 	0.483 	-0.270
 6.887 	0.960 	-0.316
 7.149 	0.428 	-0.377
 6.574 	0.667 	-0.533
 6.532 	0.408 	-0.122
 6.956 	0.016 	0.328
 7.294 	-0.068 	0.150
 6.995 	-0.829 	0.191
 6.094 	0.053 	0.194
 6.651 	0.495 	-0.360
 6.760 	0.425 	0.237
 6.786 	0.052 	0.437
 7.053 	-0.279 	0.028
 7.435 	-0.089 	-0.264
 7.454 	0.186 	-0.272
 6.881 	0.131 	-0.031
 6.643 	0.253 	0.094
 6.691 	0.279 	-0.446
 7.043 	0.136 	-0.598
 7.079 	0.681 	-0.414
 7.216 	0.346 	-0.097
 7.218 	-0.121 	-0.148
 7.640 	-0.032 	-0.014
 7.233 	-0.356 	0.046
 6.581 	-0.091 	-0.049
 6.417 	0.864 	0.149
 6.938 	0.579 	0.075
 6.975 	0.090 	-0.079
 7.177 	-0.055 	-0.326
 7.295 	0.079 	-0.072
 6.936 	0.402 	-0.198
 6.486 	0.610 	0.037
 6.549 	0.446 	-0.061
 6.504 	-0.326 	-0.066
 6.574 	-0.604 	-0.062
 6.717 	-0.257 	-0.111
 6.981 	-0.268 	-0.064
 7.299 	-0.097 	-0.040
 7.405 	-0.373 	0.069
 7.246 	-0.251 	-0.375
 7.252 	0.035 	-0.508
 6.553 	0.644 	-0.337
 6.856 	0.393 	-0.187
 7.025 	0.094 	-0.339
 6.702 	0.041 	-0.006
 6.371 	0.417 	0.322
 6.257 	0.574 	0.101
 6.551 	0.511 	-0.103
 7.017 	-0.031 	-0.136
 6.838 	-0.547 	-0.288
 6.858 	-0.744 	-0.042
 6.922 	-0.608 	-0.248
 7.068 	-0.461 	-0.376
 7.157 	-0.584 	-0.426
 7.435 	-0.635 	-0.365
 7.161 	-0.774 	-0.427
 7.377 	-0.716 	-0.479
 6.399 	0.577 	-0.237
 6.593 	0.359 	-0.001
 6.578 	0.438 	0.019
 6.753 	0.348 	0.156
 6.910 	0.116 	0.000
 6.955 	0.131 	0.240
 6.804 	0.059 	0.054
 6.767 	-0.139 	-0.007
 6.920 	-0.205 	-0.510
 6.929 	-0.361 	-0.351
 7.049 	-0.366 	0.022
 7.435 	-0.292 	-0.259
 7.595 	-0.528 	-0.422
 7.709 	-0.486 	-0.204
 6.846 	-0.642 	-0.275
 6.100 	-0.688 	-0.062
 6.160 	0.307 	0.480
 6.157 	0.141 	0.405
 5.932 	-0.221 	0.488
 5.957 	-0.316 	0.543
 6.109 	-0.056 	0.346
 6.257 	-0.058 	0.168
 6.400 	-0.010 	0.075
 6.581 	-0.209 	-0.076
 6.865 	-0.507 	-0.334
 7.220 	-0.482 	-0.640
 7.490 	-0.170 	-0.443
 7.470 	-0.062 	-0.254
 6.922 	-0.122 	0.090
 6.497 	-0.326 	-0.008
 6.469 	-0.417 	-0.166
 6.655 	-0.338 	-0.097
 5.346 	0.120 	0.354
 5.929 	-0.266 	0.004
 6.629 	-0.601 	-0.140
 6.470 	-0.664 	-0.002
 5.754 	-0.307 	0.503
 6.081 	-0.085 	0.633
 6.488 	-0.142 	0.137
 6.840 	-0.573 	-0.272
 6.894 	-0.832 	-0.725
 6.097 	-0.296 	-0.008
 6.086 	0.115 	0.636
 5.629 	0.107 	0.506
 5.640 	-0.275 	0.225
 5.906 	-0.456 	0.018
 6.168 	-0.856 	-0.118
 6.539 	-0.485 	-0.131
 6.490 	-0.620 	0.023
 6.719 	-1.007 	-0.131
 7.021 	-0.822 	-0.162
 7.221 	-0.465 	-0.431
 7.238 	-0.110 	0.157
 7.013 	0.022 	0.128
 7.534 	-0.191 	0.107
 6.771 	-0.663 	-0.396
 5.890 	0.128 	-0.349
 5.552 	-0.037 	0.851
 5.370 	-0.088 	0.695
 5.595 	0.069 	0.180
 5.938 	-0.013 	-0.100
 4.830 	-0.081 	0.054
 4.326 	-0.589 	0.995
 5.173 	-0.561 	0.528
 6.769 	-0.952 	-0.258
 6.896 	-1.025 	-0.399
 6.710 	-0.704 	-0.190
 6.777 	-0.159 	0.164
 7.072 	0.058 	0.064
 6.935 	-0.081 	0.329
 6.249 	-0.165 	0.052
 5.703 	-0.078 	-0.392
 5.586 	0.517 	0.761
 5.612 	0.225 	0.485
 6.311 	-0.237 	0.010
 6.902 	-0.088 	-0.235
 6.763 	-0.223 	-0.302
 6.287 	0.062 	-0.146
 6.239 	0.090 	-0.453
 6.334 	-0.203 	-0.057
 6.785 	-0.712 	-0.436
 6.570 	-1.025 	-0.165
 6.177 	-0.721 	-0.206
 6.156 	-0.289 	0.103
 7.201 	-0.062 	0.246
 6.541 	0.180 	0.507
 6.037 	0.119 	0.082
 5.842 	-0.337 	-0.272
 5.993 	0.971 	0.614
 6.413 	0.294 	-0.177
 6.234 	-0.035 	0.647
 6.814 	0.079 	0.110
 6.492 	-0.296 	-0.140
 5.985 	-0.557 	-0.436
 6.481 	-0.450 	-0.399
 7.273 	-0.159 	-0.104
 6.267 	-0.447 	-0.149
 6.266 	-1.131 	0.080
 6.012 	-0.577 	-0.175
 5.787 	-0.191 	-0.532
 5.585 	-0.308 	-0.486
 6.026 	0.214 	-0.204
 6.522 	-0.107 	-0.488
 6.651 	0.207 	-0.323
 6.684 	0.586 	0.088
 7.013 	0.421 	-0.029
 7.019 	0.031 	0.380
 7.050 	0.078 	0.317
 6.467 	-0.286 	0.347
 6.225 	-0.747 	-0.041
 6.275 	-0.728 	-0.193
 6.752 	-0.515 	-0.396
 6.857 	-0.328 	-0.316
 6.939 	-0.412 	-0.263
 6.109 	-1.215 	0.136
 5.767 	-0.153 	0.007
 5.988 	-0.132 	-0.623
 6.115 	-0.219 	-0.640
 6.220 	-0.506 	-0.582
 6.051 	-0.537 	-0.460
 6.824 	0.252 	-0.193
 6.725 	0.513 	0.381
 6.268 	-0.147 	0.534
 6.097 	-0.303 	0.380
 6.268 	-0.469 	0.133
 6.537 	-0.490 	0.228
 6.296 	-0.617 	-0.428
 6.737 	-0.691 	-0.572
 6.812 	0.137 	0.023
 6.733 	0.420 	0.284
 7.110 	0.552 	-0.241
 5.929 	0.098 	0.103
 5.598 	-0.189 	-0.240
 5.932 	-0.146 	0.301
 6.155 	0.867 	0.475
 6.184 	1.010 	0.982
 6.382 	1.000 	0.976
 6.461 	1.408 	0.274
 6.493 	1.588 	0.446
 6.505 	1.216 	0.045
 6.137 	0.743 	-0.100
 5.997 	0.362 	0.023
 6.088 	0.030 	-0.004
 6.176 	-0.097 	0.110
 6.617 	-0.386 	0.060
 6.868 	0.165 	-0.149
 6.571 	0.565 	0.282
 5.760 	0.653 	0.076
 5.719 	0.071 	0.102
 5.266 	0.224 	0.566
 5.590 	0.898 	1.065
 6.010 	0.482 	1.031
 5.442 	0.739 	0.678
 5.590 	1.440 	0.626
 5.644 	1.381 	0.231
 5.407 	0.612 	0.446
 5.552 	0.198 	0.796
 5.843 	-0.148 	1.129
 6.230 	-0.548 	0.323
 6.508 	-0.765 	0.098
 6.795 	-0.129 	0.168
 6.530 	0.282 	-0.166
 6.821 	1.097 	0.216
 6.070 	0.717 	-0.017
 5.303 	0.890 	-0.146
 5.575 	0.221 	0.307
 5.746 	0.143 	0.311
 5.701 	0.122 	0.264
 5.833 	0.685 	0.267
 5.491 	1.097 	0.297
 5.010 	1.252 	0.767
 5.249 	0.742 	0.292
 5.355 	-0.062 	0.547
 5.787 	-0.452 	0.995
 6.123 	-0.492 	1.038
 6.922 	-0.737 	0.400
 6.466 	0.365 	0.455
 6.089 	0.387 	0.079
 6.254 	0.701 	0.179
 6.507 	0.677 	-0.121
 6.401 	0.781 	-0.197
 6.606 	0.477 	0.145
 6.734 	0.310 	0.003
 6.428 	0.284 	0.161
 5.983 	0.738 	0.181
 5.963 	1.064 	0.404
 6.213 	0.790 	0.340
 5.784 	0.933 	-0.163
 5.742 	0.088 	0.024
 6.219 	-0.394 	0.290
 6.088 	-0.496 	0.620
 6.712 	-0.870 	0.424
 6.607 	0.651 	0.365
 6.675 	0.537 	0.427
 6.598 	0.353 	0.426
 6.645 	0.313 	0.358
 6.807 	0.300 	0.105
 6.886 	0.202 	-0.044
 6.814 	0.064 	0.141
 7.219 	0.621 	-0.023
 6.887 	0.859 	-0.021
 6.612 	0.815 	-0.141
 6.338 	1.036 	-0.301
 6.154 	0.909 	-0.473
 6.515 	0.028 	-0.147
 6.602 	-0.403 	-0.039
 6.558 	-0.571 	0.571
 6.555 	-0.869 	0.628
 7.144 	0.377 	-0.107
 7.155 	0.531 	0.229
 7.350 	0.300 	0.302
 7.293 	0.177 	-0.294
 7.400 	0.199 	-0.300
 7.323 	0.264 	-0.055
 7.046 	0.125 	0.007
 6.864 	0.385 	0.245
 7.135 	0.829 	-0.076
 6.968 	0.989 	-0.045
 6.659 	1.124 	-0.299
 6.919 	0.689 	-0.118
 6.980 	0.136 	-0.182
 6.985 	-0.244 	-0.199
 7.173 	-0.500 	0.052
 7.093 	-0.572 	-0.105
 6.831 	0.135 	-0.294
 7.240 	0.268 	-0.224
 7.419 	0.337 	-0.447
 7.367 	0.104 	-0.392
 7.358 	0.092 	-0.215
 7.230 	0.360 	-0.092
 6.970 	0.428 	0.072
 6.792 	0.477 	0.022
 6.747 	0.862 	-0.147
 6.696 	1.003 	-0.160
 6.854 	1.003 	-0.091
 7.119 	0.630 	-0.411
 7.273 	0.253 	-0.265
 7.277 	0.056 	-0.079
 7.365 	-0.088 	-0.207
 7.239 	-0.097 	-0.522
 6.618 	0.065 	-0.245
 6.717 	0.157 	-0.354
 6.923 	0.274 	-0.322
 6.646 	0.088 	0.009
 6.389 	0.212 	0.388
 6.491 	0.039 	0.295
 6.731 	0.406 	0.017
 6.754 	0.501 	0.070
 6.532 	0.883 	-0.041
 6.545 	0.877 	-0.140
 6.759 	0.638 	-0.155
 7.186 	0.030 	-0.217
 7.388 	-0.120 	-0.012
 7.459 	-0.182 	0.080
 7.254 	-0.178 	0.008
 7.209 	0.141 	-0.262
 6.234 	0.122 	-0.148
 6.258 	0.387 	-0.076
 6.120 	0.252 	0.009
 6.417 	0.225 	0.211
 6.701 	-0.365 	0.515
 7.008 	-0.299 	0.482
 6.894 	0.142 	0.359
 6.799 	0.130 	0.070
 6.832 	0.167 	-0.025
 6.898 	0.280 	-0.012
 7.249 	0.046 	-0.033
 7.514 	-0.344 	-0.220
 7.448 	-0.653 	-0.207
 7.386 	-0.623 	-0.299
 7.438 	-0.321 	-0.013
 7.384 	-0.087 	0.092
 5.875 	0.256 	0.716
 6.015 	0.157 	0.867
 6.231 	0.065 	0.911
 6.166 	-0.514 	0.986
 6.518 	-0.827 	0.665
 6.818 	-0.616 	0.256
 6.915 	-0.258 	0.113
 6.978 	-0.154 	-0.009
 7.246 	-0.571 	-0.060
 7.550 	-0.605 	-0.148
 7.603 	-0.564 	-0.150
 7.160 	-0.470 	-0.174
 7.015 	-0.558 	-0.280
 7.108 	-0.666 	-0.151
 7.180 	-0.523 	-0.142
 7.535 	-0.128 	-0.272
 5.970 	-0.207 	0.209
 6.573 	-0.266 	0.193
 6.970 	-0.390 	-0.029
 6.928 	-0.442 	0.032
 7.006 	-0.553 	0.279
 7.174 	-0.749 	0.215
 7.354 	-0.568 	-0.002
 7.449 	-0.543 	-0.269
 7.143 	-0.874 	0.062
 6.755 	-0.635 	0.204
 6.358 	-0.376 	0.411
 6.454 	-0.402 	0.121
 6.755 	-0.522 	0.007
 7.110 	-0.343 	-0.130
 7.117 	-0.281 	-0.078
 7.260 	-0.319 	0.174
 6.957 	-1.058 	0.111
 6.983 	-0.791 	-0.150
 6.855 	-0.286 	-0.330
 6.805 	-0.108 	-0.431
 6.940 	-0.278 	-0.224
 7.157 	-0.395 	-0.068
 7.213 	-0.501 	-0.088
 7.141 	-0.567 	0.079
 6.911 	-0.357 	-0.014
 5.990 	-0.018 	0.594
 6.031 	-0.025 	0.573
 6.838 	-0.631 	0.262
 6.712 	-0.879 	-0.045
 6.687 	-0.737 	0.106
 7.058 	-0.442 	0.028
 7.098 	-0.070 	0.206
 7.132 	-0.886 	-0.083
 6.869 	-0.948 	-0.225
 6.775 	-0.673 	-0.216
 6.738 	-0.577 	-0.107
 6.849 	-0.335 	-0.239
 7.018 	-0.224 	0.225
 6.928 	-0.108 	0.337
 6.568 	-0.382 	0.323
 6.212 	-0.134 	0.376
 6.720 	-0.024 	0.174
 6.920 	-0.533 	-0.024
 6.539 	-0.851 	-0.043
 6.263 	-0.790 	-0.104
 6.406 	-0.788 	-0.011
 6.648 	-0.589 	0.256
 7.005 	-0.145 	0.152
 6.767 	-0.716 	-0.350
 6.563 	-0.888 	0.161
 6.505 	-0.812 	-0.025
 6.370 	-0.694 	0.052
 6.397 	-0.359 	-0.045
 6.620 	-0.160 	0.501
 6.817 	0.038 	0.172
 6.522 	-0.068 	0.182
 6.807 	-0.162 	0.427
 6.912 	-0.485 	-0.042
 6.758 	-0.542 	-0.088
 6.466 	-0.624 	0.154
 6.313 	-0.928 	0.157
 6.575 	-1.224 	-0.150
 6.754 	-1.163 	-0.183
 6.964 	-0.698 	-0.126
 6.400 	-0.447 	-0.073
 6.104 	-0.809 	0.375
 6.611 	-1.135 	0.073
 6.650 	-0.574 	-0.250
 6.431 	-0.684 	-0.543
 6.267 	-0.416 	-0.323
 6.194 	-0.094 	-0.209
 6.385 	-0.300 	-0.029
 6.665 	-0.686 	-0.111
 6.399 	-0.482 	0.161
 6.527 	-0.329 	0.689
 6.553 	-0.305 	0.805
 6.599 	-1.243 	0.447
 6.918 	-1.360 	-0.075
 7.197 	-1.173 	-0.533
 7.131 	-1.026 	-0.609
 6.957 	-0.811 	-0.292
 7.287 	-0.542 	-0.230
 7.206 	-1.052 	0.108
 7.474 	-0.713 	-0.086
 7.475 	-0.559 	-0.558
 7.400 	-0.587 	-0.414
 7.214 	-0.055 	-0.584
 6.546 	-0.538 	0.043
 5.821 	-1.022 	0.002
 5.845 	-0.755 	0.524
 6.064 	-0.515 	0.574
 6.528 	-0.712 	0.578
 7.364 	-1.081 	-0.083
 7.502 	-1.349 	-0.048
 7.600 	-1.325 	-0.307
 8.013 	-0.909 	-0.542
 6.827 	0.038 	0.260
 7.153 	0.406 	0.185
 7.214 	0.739 	0.538
 7.265 	0.786 	0.324
 6.677 	0.220 	-0.054
 6.577 	-0.088 	0.022
 6.382 	0.131 	0.363
 6.265 	0.955 	1.114
 6.525 	1.165 	0.919
 6.744 	1.206 	0.372
 6.834 	1.311 	0.194
 6.552 	1.070 	0.275
 6.353 	0.848 	0.489
 6.480 	0.499 	0.362
 6.369 	0.326 	0.164
 6.401 	0.234 	0.092
 7.187 	0.305 	0.095
 7.257 	0.227 	0.185
 6.561 	0.345 	0.653
 6.944 	0.770 	0.360
 5.521 	0.522 	0.074
 5.363 	0.032 	0.398
 5.506 	0.253 	0.852
 6.011 	0.649 	1.041
 5.753 	0.980 	0.877
 5.433 	1.179 	0.873
 5.660 	1.303 	0.761
 5.779 	1.062 	0.661
 5.585 	0.916 	0.663
 5.745 	0.556 	0.752
 5.893 	0.373 	0.471
 6.198 	0.131 	0.224
 7.532 	0.440 	0.088
 6.864 	-0.211 	0.017
 6.914 	0.604 	0.380
 6.847 	0.343 	0.080
 6.217 	0.978 	0.264
 5.227 	0.768 	0.235
 5.206 	0.215 	0.406
 5.350 	0.198 	0.589
 5.861 	0.670 	0.553
 5.840 	0.938 	0.612
 5.659 	1.264 	0.771
 5.505 	1.278 	0.602
 5.434 	1.139 	0.507
 5.351 	0.783 	0.316
 6.064 	0.248 	0.459
 6.622 	-0.414 	0.573
 7.377 	0.404 	0.323
 7.189 	0.369 	0.343
 6.599 	0.255 	0.284
 6.335 	0.269 	0.382
 6.483 	0.835 	0.195
 6.715 	0.750 	0.029
 6.898 	0.543 	-0.161
 6.585 	0.361 	0.270
 6.016 	0.652 	0.390
 5.922 	0.965 	0.313
 5.859 	1.566 	0.376
 5.815 	0.993 	0.153
 5.615 	1.200 	-0.221
 5.887 	0.691 	0.109
 6.519 	0.004 	0.269
 6.518 	-0.470 	0.463
 7.054 	0.523 	0.266
 6.678 	0.652 	0.493
 6.547 	0.608 	0.468
 6.773 	0.163 	0.216
 6.940 	0.206 	0.286
 6.871 	0.212 	0.257
 6.819 	0.245 	0.138
 7.166 	0.657 	-0.019
 7.021 	0.799 	0.215
 6.503 	1.137 	0.099