# vtk DataFile Version 3.0
HighT1
ASCII
DATASET STRUCTURED_POINTS
DIMENSIONS 16 16 19
ORIGIN 929.001000000000 929.001000000000 5.001000000000
SPACING 10.000000000000 10.000000000000 10.000000000000
POINT_DATA 4864
FIELD attributes 1
U 3 4864 float
4.851 	2.154 	0.248
 4.883 	0.998 	-0.168
 4.329 	0.915 	0.083
 4.048 	0.546 	-0.174
 3.643 	-0.736 	0.719
 3.341 	-0.886 	0.282
 3.111 	-0.800 	0.030
 3.655 	-0.853 	0.401
 4.600 	-0.973 	-0.513
 5.241 	-1.099 	-0.118
 4.501 	-0.113 	0.118
 4.225 	-0.115 	-0.286
 3.352 	-0.304 	0.389
 3.019 	-0.299 	0.136
 3.500 	0.431 	0.055
 3.037 	0.268 	0.146
 4.154 	1.420 	-0.016
 3.963 	1.617 	-0.111
 3.691 	0.953 	-0.378
 4.704 	0.573 	-0.166
 4.744 	-0.690 	0.119
 4.935 	-0.910 	-0.140
 5.016 	-0.869 	-0.019
 5.022 	-0.967 	0.077
 4.830 	-1.463 	0.128
 5.438 	-0.974 	-0.425
 4.107 	-0.343 	0.444
 4.642 	0.093 	-0.095
 4.099 	-0.168 	-0.149
 4.054 	0.035 	-0.253
 3.615 	0.901 	0.083
 3.850 	-0.027 	-0.081
 2.836 	0.024 	-0.002
 3.410 	0.177 	0.326
 3.541 	-0.025 	0.068
 4.035 	-1.046 	-0.122
 4.657 	-1.285 	-0.181
 4.845 	-0.888 	-0.407
 4.844 	-0.478 	-0.543
 5.354 	-1.080 	-0.356
 6.004 	-0.727 	-0.407
 5.630 	-0.188 	0.224
 4.835 	0.112 	0.122
 3.175 	-0.190 	0.061
 2.552 	0.297 	0.645
 1.794 	-0.182 	0.232
 2.602 	0.728 	0.294
 2.680 	0.368 	0.396
 3.481 	-0.572 	0.400
 2.806 	-1.335 	0.709
 2.894 	-1.761 	0.324
 3.681 	-1.496 	-0.419
 3.779 	-0.613 	-0.197
 3.956 	-0.120 	-0.479
 4.784 	-0.396 	-0.922
 5.116 	-0.390 	-0.569
 5.352 	0.240 	-0.011
 5.317 	0.147 	-0.381
 4.749 	0.579 	0.040
 4.175 	0.599 	0.050
 3.656 	0.743 	-0.277
 3.720 	0.150 	-0.135
 4.445 	-0.203 	0.066
 4.978 	-0.272 	-0.021
 4.874 	-0.575 	-0.544
 3.892 	-0.383 	-0.161
 3.296 	-0.763 	0.078
 2.915 	-0.538 	0.270
 3.426 	-0.773 	0.112
 4.510 	-0.635 	0.042
 3.997 	-0.010 	-0.224
 4.041 	0.950 	-0.204
 4.224 	0.700 	-0.133
 4.180 	0.450 	-0.102
 5.055 	1.211 	-0.184
 4.435 	0.643 	0.127
 4.109 	0.339 	-0.230
 4.942 	0.664 	-0.714
 5.783 	0.850 	-0.718
 5.865 	0.569 	-0.546
 2.866 	-0.397 	0.127
 3.475 	-0.687 	0.271
 3.813 	-0.943 	0.077
 3.794 	-0.667 	-0.003
 3.165 	-0.034 	0.237
 3.095 	-0.501 	0.149
 3.197 	0.241 	0.264
 3.490 	0.607 	0.276
 3.932 	1.166 	0.235
 3.203 	-0.115 	0.234
 3.216 	0.250 	0.339
 3.028 	-0.067 	0.506
 3.229 	0.044 	0.257
 3.820 	0.399 	-0.057
 4.610 	0.723 	-0.219
 5.419 	0.931 	-0.144
 4.132 	-0.986 	-0.021
 4.900 	-0.655 	-0.548
 4.641 	-0.667 	-0.065
 3.927 	0.139 	-0.318
 2.400 	0.564 	0.267
 2.298 	0.565 	-0.012
 2.230 	-0.016 	0.220
 2.497 	-0.204 	0.307
 3.088 	-0.306 	0.349
 3.665 	-0.648 	0.146
 3.685 	-0.750 	0.002
 3.970 	-0.679 	-0.023
 4.124 	-0.712 	0.077
 3.927 	-0.073 	0.303
 4.444 	0.480 	-0.046
 4.700 	0.737 	0.126
 3.567 	-0.857 	-0.205
 4.038 	-0.111 	-0.315
 3.853 	0.705 	0.124
 3.800 	0.562 	0.087
 4.267 	0.803 	-0.371
 3.954 	0.584 	-0.168
 3.922 	0.311 	-0.084
 4.318 	0.294 	-0.450
 4.151 	0.103 	-0.241
 4.077 	0.202 	-0.311
 4.286 	-0.265 	-0.297
 4.272 	-0.389 	-0.124
 4.326 	-0.620 	0.002
 4.437 	-0.715 	0.143
 4.482 	0.187 	0.029
 5.023 	0.021 	-0.115
 4.222 	-0.160 	-0.145
 3.689 	-0.021 	0.257
 3.311 	0.362 	0.072
 3.282 	0.578 	0.022
 3.731 	0.367 	0.124
 4.077 	0.208 	0.122
 4.020 	0.277 	-0.172
 4.503 	-0.035 	-0.390
 4.877 	0.381 	0.233
 4.381 	0.478 	0.204
 4.475 	0.311 	0.017
 4.435 	0.047 	-0.098
 4.600 	-0.593 	0.022
 5.237 	-0.282 	-0.160
 4.990 	-0.146 	0.092
 4.958 	0.000 	-0.001
 4.422 	-0.007 	0.024
 3.940 	0.346 	0.063
 3.746 	0.656 	0.088
 3.206 	0.622 	-0.015
 2.939 	-0.074 	0.104
 3.644 	0.185 	-0.193
 4.247 	0.151 	-0.204
 3.825 	0.180 	-0.193
 3.916 	0.207 	-0.039
 4.374 	0.789 	0.156
 3.534 	0.091 	0.110
 3.904 	-0.011 	-0.213
 4.129 	-0.333 	0.017
 4.461 	-0.369 	-0.020
 4.679 	0.155 	-0.094
 4.849 	-0.303 	-0.098
 3.856 	-0.444 	-0.173
 3.798 	0.512 	-0.299
 4.232 	0.862 	-0.138
 4.401 	0.581 	-0.201
 4.671 	0.687 	-0.182
 4.274 	0.809 	-0.116
 3.880 	0.196 	0.012
 4.462 	0.729 	-0.527
 4.886 	0.009 	-0.322
 5.068 	-0.241 	0.272
 5.113 	-0.464 	0.038
 4.722 	0.130 	-0.300
 5.350 	0.429 	-0.315
 3.458 	-0.077 	0.372
 3.145 	-0.277 	0.422
 3.218 	-0.407 	0.559
 3.556 	-0.885 	0.313
 3.858 	0.108 	-0.134
 3.827 	0.543 	0.240
 4.216 	0.924 	0.203
 4.425 	0.859 	-0.136
 4.721 	1.048 	-0.154
 4.574 	0.711 	-0.351
 4.828 	0.701 	-0.195
 5.275 	0.717 	-0.542
 4.186 	-0.099 	0.476
 4.595 	0.405 	-0.163
 4.939 	0.436 	-0.169
 5.074 	0.719 	-0.154
 4.344 	0.174 	0.520
 4.911 	-0.450 	-0.342
 5.407 	-0.358 	-0.428
 4.658 	-0.872 	-0.127
 3.724 	0.210 	0.346
 3.457 	-0.126 	0.124
 3.892 	-0.484 	0.055
 4.064 	0.394 	0.033
 4.429 	0.633 	-0.178
 4.624 	0.891 	-0.058
 4.614 	0.746 	0.091
 4.426 	0.922 	0.274
 3.911 	0.115 	-0.048
 3.360 	-0.145 	0.254
 3.426 	0.251 	0.701
 3.751 	0.924 	0.159
 4.167 	0.214 	-0.234
 4.351 	-0.149 	-0.205
 4.453 	-0.369 	-0.345
 4.298 	-0.271 	-0.135
 4.867 	0.542 	-0.114
 4.624 	0.266 	-0.231
 4.389 	-0.240 	0.029
 4.201 	-0.308 	0.115
 4.207 	0.486 	-0.225
 3.600 	0.733 	0.040
 3.664 	0.627 	-0.130
 4.533 	-0.020 	-0.172
 5.287 	-0.180 	-0.330
 5.825 	0.315 	-0.467
 5.376 	-0.116 	-0.047
 3.875 	-0.231 	0.035
 3.777 	1.066 	0.472
 3.564 	0.281 	-0.367
 4.238 	-0.135 	0.321
 4.528 	-0.025 	-0.232
 4.262 	0.209 	-0.322
 4.458 	0.271 	-0.166
 4.088 	-0.126 	0.320
 3.802 	-0.026 	0.309
 3.509 	0.343 	0.018
 3.658 	0.134 	0.064
 3.895 	-0.234 	0.095
 4.145 	0.076 	0.196
 4.871 	-0.047 	-0.157
 4.897 	0.012 	-0.368
 5.633 	0.915 	0.134
 5.469 	0.582 	-0.205
 5.037 	0.726 	-0.170
 4.587 	0.083 	0.100
 4.711 	0.268 	0.103
 2.082 	-0.117 	0.443
 2.515 	0.450 	0.226
 3.059 	0.113 	0.517
 2.902 	-0.092 	-0.090
 2.335 	-0.031 	0.161
 1.909 	0.239 	0.218
 2.229 	-0.207 	0.282
 2.536 	-0.799 	-0.120
 2.985 	-1.074 	0.350
 3.692 	-0.867 	0.022
 4.779 	0.536 	-0.134
 5.038 	1.316 	0.390
 4.168 	0.501 	0.043
 4.292 	0.608 	-0.278
 4.649 	0.362 	-0.384
 4.288 	0.831 	-0.010
 4.813 	-0.043 	-0.033
 5.137 	0.837 	0.406
 5.807 	1.569 	0.302
 4.130 	1.134 	0.749
 4.434 	0.548 	0.228
 4.593 	0.000 	0.035
 3.850 	-0.457 	-0.187
 4.005 	-0.288 	0.963
 4.887 	-1.593 	0.140
 4.663 	-0.352 	1.116
 4.046 	0.239 	0.412
 3.858 	-0.053 	0.070
 4.785 	0.698 	-0.273
 5.380 	-0.617 	-1.008
 4.768 	-0.612 	-0.586
 4.563 	-0.783 	0.301
 4.047 	-0.634 	0.338
 4.249 	-0.257 	0.411
 4.248 	0.522 	0.321
 4.864 	0.831 	0.733
 5.275 	-0.270 	0.602
 4.953 	-0.501 	0.432
 4.643 	-0.274 	0.266
 5.428 	-0.609 	-0.329
 5.711 	-1.374 	-0.363
 5.535 	-1.195 	0.731
 5.211 	-0.494 	0.043
 4.328 	0.595 	0.593
 4.511 	0.694 	-0.032
 4.776 	-0.035 	-0.264
 5.083 	-0.184 	-0.213
 5.130 	-0.218 	-0.929
 5.117 	-0.720 	0.677
 5.740 	-0.840 	0.869
 4.971 	-0.762 	1.292
 5.975 	-0.952 	0.736
 5.452 	-0.212 	0.510
 4.975 	-0.011 	-0.251
 5.397 	-0.896 	-0.488
 5.754 	-0.892 	-0.679
 6.097 	-1.537 	-0.817
 5.237 	-0.737 	0.545
 4.945 	0.353 	0.794
 4.722 	1.029 	0.385
 4.394 	0.531 	0.317
 4.781 	-0.106 	-0.562
 5.210 	0.069 	-0.288
 4.920 	0.341 	-0.292
 5.881 	-0.762 	0.384
 6.308 	-0.203 	-0.212
 6.183 	-0.582 	-0.015
 5.824 	-1.051 	-0.236
 4.633 	-0.352 	-0.483
 6.095 	-0.335 	-0.944
 6.014 	-1.283 	-0.687
 5.759 	-1.029 	-0.489
 5.932 	-0.915 	-1.116
 6.724 	-0.241 	-0.368
 7.305 	-0.218 	-0.746
 5.917 	1.118 	0.788
 5.318 	0.996 	0.486
 5.477 	0.508 	-1.005
 5.221 	0.530 	-0.332
 5.108 	0.500 	-0.432
 6.413 	-0.434 	-0.945
 5.950 	0.499 	-0.541
 5.764 	-0.286 	0.255
 4.981 	-0.317 	-0.184
 5.952 	-0.274 	-0.491
 6.047 	-0.552 	-0.679
 5.017 	-1.209 	-0.093
 5.065 	-1.353 	-0.786
 5.263 	-1.398 	-1.210
 6.205 	0.602 	-0.675
 4.952 	0.668 	1.000
 4.730 	0.428 	1.015
 5.405 	0.277 	0.024
 5.975 	0.328 	-0.549
 6.199 	0.319 	-1.149
 6.369 	0.563 	-0.792
 4.919 	0.378 	0.614
 5.431 	0.519 	-0.065
 6.185 	0.176 	-0.399
 5.534 	-0.003 	-0.125
 5.418 	-1.008 	0.340
 6.068 	-0.593 	-0.603
 5.990 	-0.323 	-0.315
 5.949 	-0.180 	-0.589
 5.420 	-0.268 	0.037
 4.685 	1.092 	0.878
 4.911 	0.505 	0.734
 4.911 	-0.137 	0.300
 5.508 	-0.183 	-0.411
 6.042 	0.169 	-0.711
 6.190 	0.552 	-0.889
 6.131 	0.232 	-0.580
 5.770 	-0.011 	-0.330
 5.577 	-0.407 	-0.994
 5.929 	0.085 	-0.599
 6.091 	0.005 	-0.586
 5.614 	0.125 	0.362
 5.024 	-0.498 	0.146
 5.840 	0.124 	-0.670
 4.756 	0.253 	0.038
 4.904 	1.474 	-0.226
 5.384 	0.834 	-0.398
 5.342 	0.512 	-0.175
 5.504 	0.401 	-0.255
 5.467 	0.090 	0.068
 5.514 	0.303 	-0.197
 5.742 	0.274 	-0.207
 5.843 	0.622 	-0.250
 5.784 	0.275 	-0.801
 5.309 	-0.568 	-0.365
 5.257 	-0.572 	0.224
 5.983 	0.033 	-0.239
 5.736 	0.135 	0.415
 5.525 	0.067 	-0.430
 5.791 	0.417 	0.073
 5.874 	0.882 	-0.384
 5.455 	0.806 	-0.461
 5.212 	0.548 	-0.213
 5.308 	0.242 	-0.135
 4.651 	-0.125 	0.016
 4.162 	0.160 	-0.032
 4.412 	0.340 	-0.046
 4.481 	0.395 	0.041
 4.990 	0.459 	-0.060
 5.699 	0.026 	-0.316
 5.418 	-0.102 	-0.296
 5.439 	0.176 	-0.106
 5.293 	-0.051 	0.155
 4.995 	-0.168 	-0.017
 5.042 	0.447 	-0.187
 4.401 	0.486 	0.169
 4.263 	0.316 	0.151
 4.741 	0.002 	0.241
 5.366 	-0.257 	-0.033
 5.529 	-0.116 	0.043
 5.345 	0.286 	-0.031
 5.228 	0.106 	-0.299
 5.546 	-0.158 	-0.525
 5.342 	-0.052 	-0.263
 5.631 	-0.201 	-0.125
 5.037 	0.213 	-0.153
 4.900 	0.300 	0.140
 4.787 	0.178 	-0.013
 5.242 	0.258 	0.030
 4.679 	0.351 	-0.023
 4.716 	0.602 	-0.163
 4.933 	-0.204 	-0.122
 4.944 	-0.135 	-0.292
 4.550 	-0.067 	0.467
 4.344 	-0.448 	0.651
 4.747 	-0.169 	0.244
 5.198 	0.251 	-0.087
 5.480 	0.051 	-0.323
 5.726 	0.096 	-0.282
 5.491 	0.053 	-0.037
 5.847 	-0.330 	0.024
 3.861 	0.646 	0.540
 3.878 	0.295 	0.282
 4.097 	-0.460 	0.259
 4.837 	-0.310 	-0.007
 4.992 	0.645 	-0.193
 4.759 	0.266 	-0.469
 5.221 	0.117 	-0.995
 4.478 	-0.189 	-0.081
 5.361 	0.094 	-0.312
 5.007 	-0.162 	0.303
 5.560 	-0.041 	-0.084
 5.295 	0.197 	-0.409
 5.140 	-0.297 	-0.355
 5.548 	0.073 	0.152
 5.592 	-0.080 	0.191
 5.722 	-0.079 	0.509
 4.067 	-0.348 	0.374
 4.319 	-0.346 	1.161
 4.912 	-0.935 	-0.060
 4.611 	-0.856 	0.202
 4.576 	-0.165 	0.333
 4.416 	0.004 	0.356
 4.706 	-0.564 	-0.245
 5.318 	0.238 	-0.554
 5.289 	-0.353 	-0.480
 4.921 	-0.717 	0.736
 5.219 	-0.448 	-0.134
 5.469 	0.118 	-0.205
 5.506 	0.137 	-0.129
 5.919 	0.396 	0.001
 6.374 	0.378 	-0.132
 5.798 	-0.302 	-0.626
 4.311 	-0.020 	-0.076
 4.547 	-0.320 	0.040
 5.434 	-0.511 	-0.049
 4.543 	-0.339 	-0.124
 4.245 	0.281 	0.239
 3.888 	-0.381 	0.586
 4.732 	-0.649 	-0.269
 4.652 	-0.426 	-0.009
 4.729 	0.033 	0.281
 5.160 	-0.982 	-0.423
 5.755 	-0.612 	0.112
 5.595 	-0.535 	0.510
 5.614 	-0.598 	-0.593
 5.587 	0.020 	-0.415
 5.468 	-0.584 	-0.461
 5.939 	-0.643 	-0.165
 5.032 	-0.135 	-0.011
 4.666 	-0.263 	0.035
 4.578 	-0.373 	0.183
 4.585 	0.018 	-0.017
 4.344 	-0.120 	0.421
 4.856 	-0.063 	-0.133
 4.797 	-0.232 	0.015
 5.133 	0.141 	0.042
 4.649 	-0.770 	-0.260
 4.914 	-0.970 	0.245
 4.916 	-0.882 	-0.173
 5.347 	-0.233 	0.234
 6.030 	0.025 	0.008
 6.321 	0.285 	-0.043
 4.910 	-0.449 	-0.135
 5.649 	-0.409 	0.342
 5.493 	-0.312 	-0.152
 5.319 	-0.038 	0.043
 5.195 	-0.058 	-0.221
 4.750 	-0.085 	0.406
 4.701 	0.154 	0.364
 4.548 	0.150 	-0.258
 4.708 	0.109 	0.382
 3.922 	-0.380 	0.260
 4.381 	-1.180 	0.179
 4.733 	-1.536 	0.080
 4.824 	-1.145 	-0.166
 4.467 	-0.975 	-0.280
 5.086 	-0.112 	-0.244
 5.186 	0.521 	0.284
 5.656 	0.171 	0.310
 5.057 	-0.329 	-0.195
 5.290 	0.027 	-0.074
 4.940 	0.034 	0.008
 4.808 	0.410 	0.072
 3.890 	0.174 	0.239
 3.258 	0.032 	0.345
 3.573 	0.134 	0.418
 3.796 	-0.053 	0.543
 4.353 	-1.249 	0.023
 4.900 	-1.354 	-0.431
 5.452 	-1.275 	-0.565
 4.885 	-1.207 	-0.241
 4.581 	-0.704 	-0.048
 4.387 	-0.379 	-0.160
 4.906 	0.415 	-0.018
 4.738 	-0.015 	-0.153
 4.391 	-0.096 	-0.460
 5.772 	-0.460 	-0.231
 6.148 	-0.268 	-0.223
 5.722 	1.232 	0.777
 4.968 	1.444 	0.681
 5.566 	1.478 	0.325
 5.243 	1.050 	0.701
 4.926 	0.747 	-0.249
 4.575 	-0.061 	0.072
 5.671 	-1.056 	-1.109
 4.953 	-0.963 	1.342
 5.726 	-1.025 	0.321
 6.375 	-0.522 	-0.683
 6.746 	-0.635 	-0.602
 6.259 	-0.149 	-0.591
 5.910 	-0.926 	-0.369
 5.993 	-0.645 	-0.356
 5.297 	1.334 	0.208
 4.040 	0.510 	1.262
 4.653 	1.718 	0.638
 4.735 	1.555 	1.360
 5.283 	1.136 	1.110
 5.008 	0.626 	0.380
 5.186 	0.599 	-0.105
 5.151 	0.457 	-0.771
 5.742 	-0.098 	-0.702
 5.623 	-0.844 	-0.012
 6.625 	-1.227 	0.940
 6.534 	-1.111 	-0.086
 7.050 	-1.170 	-0.440
 6.719 	-0.552 	-0.768
 6.457 	-0.368 	-0.627
 5.643 	-0.363 	0.028
 4.637 	1.980 	0.168
 4.433 	1.296 	0.460
 4.679 	1.339 	1.205
 5.187 	1.150 	0.765
 5.402 	1.079 	0.376
 5.070 	0.884 	-0.178
 5.192 	0.752 	-0.598
 5.958 	0.520 	-0.678
 6.175 	0.018 	-0.612
 6.358 	-0.983 	-1.037
 6.038 	-0.876 	1.274
 6.399 	-0.583 	0.610
 6.708 	-0.417 	-0.757
 6.453 	-0.304 	-0.671
 6.262 	-0.446 	-0.635
 5.972 	-0.216 	-0.180
 4.834 	1.235 	-0.334
 4.806 	1.871 	-0.211
 5.048 	1.457 	-0.038
 5.138 	1.252 	-0.358
 5.650 	0.983 	-0.553
 5.491 	0.905 	-0.596
 5.933 	0.350 	-0.690
 6.562 	0.058 	-0.387
 6.312 	-0.278 	-0.866
 6.801 	-0.282 	-0.726
 6.346 	-1.017 	-0.302
 6.153 	0.239 	0.869
 6.698 	0.101 	-0.157
 6.485 	-0.072 	-0.986
 6.252 	-0.005 	-0.710
 5.992 	0.536 	-0.700
 5.757 	0.984 	-1.359
 5.415 	1.123 	-0.361
 5.307 	1.356 	-0.017
 5.595 	0.976 	-0.420
 5.920 	0.949 	-0.566
 6.218 	0.872 	-0.388
 6.521 	-0.176 	0.048
 6.420 	-0.413 	-0.504
 6.402 	-0.235 	-1.017
 5.267 	-0.597 	-0.430
 4.789 	0.667 	1.124
 5.333 	0.853 	0.962
 6.702 	0.185 	-0.179
 6.322 	0.017 	-1.019
 6.170 	-0.063 	-0.901
 5.954 	1.014 	-0.489
 6.026 	0.915 	0.004
 6.157 	1.159 	-0.290
 5.891 	0.727 	0.155
 5.861 	0.713 	0.445
 6.308 	0.222 	0.304
 6.424 	-0.562 	-0.186
 6.582 	-0.181 	-0.764
 6.671 	-0.228 	-0.826
 5.776 	0.127 	-0.670
 5.096 	0.475 	0.778
 5.255 	0.815 	0.633
 6.096 	0.308 	0.015
 6.102 	-0.331 	0.006
 6.494 	0.145 	-0.190
 6.340 	0.230 	-0.624
 6.347 	0.668 	-0.738
 6.134 	1.189 	0.064
 6.184 	0.820 	-0.099
 6.657 	0.224 	-0.090
 6.243 	-0.200 	-0.000
 5.991 	-0.536 	0.360
 6.156 	-0.486 	-0.324
 6.601 	-0.170 	-0.515
 6.767 	0.311 	-0.750
 6.135 	0.093 	-0.680
 6.425 	0.953 	-0.490
 5.824 	0.484 	0.176
 5.183 	-0.186 	0.234
 5.083 	-0.702 	0.038
 5.131 	-0.629 	-0.311
 5.191 	-0.285 	-0.224
 5.508 	0.186 	-0.363
 5.683 	0.403 	-0.244
 5.900 	0.500 	-0.280
 5.779 	-0.049 	-0.063
 5.994 	-0.100 	-0.125
 6.161 	-0.278 	-0.158
 5.589 	-0.300 	-0.315
 5.022 	-0.374 	-0.132
 5.503 	0.217 	-0.338
 6.079 	0.454 	-0.421
 6.179 	1.336 	0.062
 5.886 	0.749 	0.059
 5.865 	0.093 	0.023
 5.878 	-0.151 	-0.255
 5.738 	-0.087 	-0.263
 5.489 	-0.386 	0.014
 5.702 	-0.076 	0.115
 5.722 	0.005 	-0.416
 5.701 	0.010 	-0.651
 6.075 	0.061 	-0.668
 5.753 	0.203 	-0.036
 5.803 	0.003 	0.203
 5.211 	0.648 	0.123
 4.716 	0.414 	0.110
 4.557 	0.054 	0.193
 5.007 	0.385 	0.451
 5.519 	0.767 	0.289
 6.129 	0.288 	0.190
 6.539 	0.111 	0.169
 6.570 	-0.013 	-0.241
 6.147 	0.300 	-0.394
 5.769 	0.046 	-0.221
 5.515 	-0.502 	0.006
 5.071 	0.001 	-0.416
 4.971 	-0.039 	0.127
 4.621 	0.093 	0.166
 4.602 	-0.075 	0.493
 4.962 	-0.778 	0.524
 5.254 	0.513 	0.281
 5.323 	0.928 	0.229
 5.190 	0.393 	0.088
 5.038 	-0.181 	0.215
 5.268 	-0.025 	0.133
 5.813 	-0.155 	-0.411
 6.367 	0.176 	-0.008
 5.916 	0.307 	-0.008
 5.917 	0.587 	-0.440
 5.832 	-0.143 	0.270
 5.805 	-0.899 	-0.100
 3.812 	0.024 	0.730
 4.211 	-0.301 	0.726
 4.896 	-0.061 	0.538
 4.924 	-0.630 	0.522
 4.760 	-1.096 	0.171
 4.892 	-0.215 	0.038
 5.533 	-0.238 	-0.037
 5.650 	0.555 	-0.140
 5.202 	-0.556 	0.059
 5.819 	-0.397 	-0.002
 5.649 	-0.164 	-0.253
 5.520 	-0.214 	-0.342
 5.889 	0.385 	-0.352
 5.968 	0.446 	-0.170
 6.341 	-0.641 	0.151
 6.383 	-0.789 	-0.205
 4.491 	0.104 	0.318
 4.431 	-0.575 	-0.170
 4.777 	-0.657 	-0.403
 4.628 	-0.736 	-0.434
 4.853 	-1.017 	0.388
 5.432 	-0.978 	-0.146
 5.637 	-0.984 	-0.394
 5.535 	-0.596 	-0.397
 5.706 	-0.530 	-0.896
 5.452 	-0.385 	0.736
 5.600 	-0.186 	0.390
 5.746 	-0.587 	0.202
 5.905 	-0.327 	0.093
 6.048 	-0.144 	0.035
 6.256 	-0.277 	-0.104
 6.243 	-0.552 	-0.288
 4.520 	0.269 	-0.447
 4.954 	-0.447 	-0.235
 4.937 	-0.568 	0.018
 5.330 	-0.371 	-0.304
 5.474 	-0.361 	-0.060
 5.854 	-0.448 	-0.226
 5.596 	-0.304 	-0.601
 5.297 	-0.593 	-0.402
 5.098 	-0.338 	0.132
 5.473 	-0.653 	0.381
 5.819 	-0.758 	0.316
 6.179 	-0.749 	0.191
 5.797 	-0.567 	-0.017
 5.909 	-0.051 	-0.003
 6.235 	-0.174 	-0.270
 6.218 	-0.429 	-0.543
 5.131 	0.245 	-0.028
 5.274 	-0.464 	0.204
 5.107 	-0.489 	0.056
 5.284 	-0.203 	0.201
 5.241 	-0.415 	0.148
 4.834 	-0.163 	0.175
 4.790 	-0.373 	-0.002
 4.609 	-0.485 	0.298
 4.972 	-0.621 	0.285
 5.173 	-0.990 	0.052
 4.791 	-1.616 	0.434
 4.975 	-1.382 	0.199
 5.288 	-0.642 	-0.317
 5.370 	-0.563 	-0.087
 5.460 	-0.383 	-0.087
 5.323 	-0.282 	-0.287
 5.386 	0.228 	-0.186
 5.652 	-0.219 	-0.177
 5.085 	-0.570 	0.073
 4.720 	-0.231 	0.241
 4.838 	-0.208 	-0.044
 5.015 	0.019 	0.198
 4.961 	-0.003 	0.222
 5.346 	-0.470 	0.120
 5.028 	-0.851 	-0.079
 5.705 	-1.140 	0.276
 5.604 	-1.315 	-0.041
 5.672 	-1.194 	0.138
 5.148 	-0.946 	-0.126
 5.170 	-0.299 	0.381
 5.340 	-0.063 	0.306
 6.120 	-0.156 	-0.398
 5.567 	0.012 	-0.289
 4.793 	-0.002 	0.267
 4.684 	-0.139 	0.267
 4.572 	-0.191 	0.327
 4.545 	0.334 	0.489
 5.012 	-0.126 	0.140
 5.307 	-0.125 	0.287
 6.151 	-0.660 	-0.200
 6.172 	-1.337 	-0.741
 6.274 	-1.571 	-0.605
 6.413 	-1.335 	-0.069
 5.231 	-1.458 	0.373
 6.294 	-0.618 	-0.388
 5.151 	-0.476 	0.186
 4.713 	-0.284 	-0.309
 4.598 	-0.324 	-0.547
 6.629 	0.539 	-0.283
 6.579 	-0.146 	-0.180
 5.696 	0.002 	0.656
 6.151 	-0.056 	0.227
 5.107 	1.147 	-0.781
 5.852 	1.351 	0.670
 5.942 	1.699 	0.452
 6.786 	2.150 	-0.940
 6.310 	0.990 	-0.915
 5.846 	-0.170 	-0.068
 6.403 	-1.034 	-0.157
 6.831 	-1.238 	-0.449
 6.341 	-0.675 	-0.306
 6.039 	0.345 	-0.152
 6.304 	0.391 	-0.393
 6.219 	-0.041 	-0.327
 5.235 	0.689 	0.056
 6.052 	1.158 	0.228
 5.296 	0.222 	0.244
 5.466 	0.593 	0.582
 5.509 	1.362 	1.013
 5.660 	1.735 	0.922
 6.079 	1.439 	-0.264
 6.526 	1.546 	-0.817
 6.147 	1.252 	-0.739
 6.513 	-0.012 	-0.303
 6.815 	-0.901 	-0.161
 7.250 	-1.038 	-0.445
 6.282 	-0.434 	-0.464
 6.260 	-0.228 	-0.204
 6.285 	0.107 	-0.084
 6.026 	-0.580 	0.253
 5.477 	-0.624 	0.569
 6.217 	1.160 	0.084
 5.510 	1.627 	0.209
 5.270 	1.714 	0.021
 5.780 	1.823 	0.061
 5.877 	1.894 	-0.234
 6.400 	0.933 	-0.635
 6.731 	1.156 	-0.992
 7.103 	0.219 	-0.552
 6.657 	-0.079 	-0.772
 6.975 	-0.674 	-0.070
 7.415 	-0.952 	-0.270
 7.410 	-0.539 	-0.593
 6.844 	-0.385 	-0.479
 6.494 	-0.082 	-0.420
 6.488 	-0.288 	-0.338
 6.539 	0.167 	-0.456
 5.720 	0.391 	0.342
 5.672 	1.499 	0.255
 6.081 	1.804 	-0.633
 6.206 	2.159 	-0.598
 6.758 	1.661 	-0.705
 7.033 	0.415 	-0.617
 6.979 	0.173 	-0.162
 6.814 	0.455 	-0.300
 7.116 	-0.051 	-0.900
 6.857 	-0.593 	-0.118
 7.154 	-0.502 	-0.090
 7.219 	-0.669 	-0.267
 7.180 	-0.462 	-0.960
 7.456 	-0.158 	-0.956
 6.438 	0.293 	-0.330
 6.466 	0.738 	-0.829
 6.759 	0.976 	0.573
 5.621 	0.875 	0.271
 5.570 	0.596 	-0.027
 6.103 	1.298 	-0.084
 6.670 	0.840 	-0.071
 6.855 	0.745 	-0.267
 6.853 	0.641 	-0.041
 6.594 	0.417 	-0.703
 7.066 	-0.283 	-0.593
 7.157 	-0.658 	-0.196
 7.200 	-0.040 	0.188
 6.829 	-0.248 	-0.309
 6.632 	-0.243 	-0.272
 6.617 	0.340 	-0.636
 6.258 	0.681 	-0.240
 6.587 	0.690 	-0.039
 5.996 	1.593 	0.136
 6.169 	0.977 	0.668
 6.262 	0.200 	0.884
 6.356 	-0.022 	0.441
 6.953 	0.222 	0.013
 6.654 	0.772 	-0.344
 7.314 	-0.041 	-0.417
 7.182 	0.257 	-0.721
 7.134 	0.256 	-0.274
 6.926 	-0.108 	0.565
 6.257 	-0.080 	0.434
 6.375 	-0.157 	0.215
 6.031 	-0.296 	0.032
 6.279 	0.277 	-0.395
 6.610 	0.514 	-0.270
 6.566 	0.616 	-0.301
 6.854 	1.740 	-0.068
 6.621 	1.102 	0.043
 6.402 	0.366 	0.102
 7.105 	0.063 	-0.250
 7.036 	0.408 	-0.584
 7.164 	0.526 	-0.849
 7.018 	0.105 	-0.312
 7.015 	0.606 	-0.464
 7.125 	0.328 	-0.544
 6.630 	0.548 	0.838
 6.487 	0.327 	0.266
 6.336 	0.047 	-0.132
 6.374 	-0.299 	-0.201
 6.265 	-0.661 	-0.092
 6.604 	-0.147 	-0.563
 5.868 	0.433 	0.237
 6.314 	1.330 	0.044
 6.734 	0.700 	-0.047
 7.122 	0.601 	-0.116
 7.260 	0.416 	-0.189
 6.727 	0.344 	-0.179
 6.580 	0.046 	0.175
 6.348 	0.285 	-0.220
 6.776 	0.470 	-0.779
 6.483 	0.287 	-0.024
 6.698 	0.889 	0.426
 6.755 	0.515 	-0.186
 7.008 	0.277 	-0.422
 6.626 	-0.264 	-0.372
 6.617 	0.066 	-0.047
 5.882 	0.235 	0.400
 5.826 	0.334 	0.008
 5.830 	0.435 	-0.086
 6.165 	0.092 	-0.301
 6.318 	0.371 	-0.172
 6.175 	0.241 	-0.145
 6.382 	0.212 	0.171
 5.975 	0.579 	-0.140
 5.898 	0.526 	-0.119
 5.228 	0.379 	-0.125
 5.685 	-0.034 	0.336
 6.234 	0.032 	-0.077
 6.879 	0.285 	-0.167
 7.104 	0.049 	0.129
 6.891 	0.090 	-0.033
 6.234 	0.395 	0.061
 6.147 	0.279 	0.376
 5.668 	0.461 	-0.214
 5.328 	0.150 	0.067
 5.214 	-0.053 	0.419
 4.972 	0.029 	0.641
 5.486 	0.288 	0.501
 5.559 	0.291 	0.510
 6.043 	0.157 	-0.094
 5.518 	1.302 	0.432
 5.840 	0.640 	0.396
 5.643 	-0.512 	0.440
 5.716 	-0.146 	-0.021
 5.983 	0.028 	-0.204
 6.776 	0.321 	-0.062
 6.228 	0.397 	0.269
 5.323 	0.203 	0.323
 5.452 	-0.486 	0.572
 5.177 	0.718 	-0.003
 4.787 	0.658 	0.218
 4.545 	0.571 	0.476
 4.556 	0.341 	0.339
 4.538 	0.346 	0.358
 4.871 	0.125 	0.620
 5.442 	0.792 	0.678
 5.802 	0.952 	0.524
 5.631 	-0.015 	-0.336
 5.625 	-0.692 	0.283
 6.298 	-0.782 	0.030
 5.986 	-0.741 	-0.004
 5.671 	-0.170 	0.173
 6.055 	0.294 	0.315
 5.646 	0.348 	0.130
 6.243 	-0.578 	0.125
 5.024 	1.050 	0.111
 4.463 	0.790 	0.315
 4.418 	0.714 	0.283
 4.614 	0.786 	0.017
 4.514 	0.528 	0.038
 4.488 	0.095 	-0.178
 4.543 	0.161 	-0.252
 5.353 	-0.107 	0.120
 5.721 	-0.433 	0.331
 6.150 	-0.935 	0.217
 6.484 	-0.837 	0.153
 6.471 	-0.495 	0.117
 6.345 	-0.725 	-0.214
 6.579 	-0.383 	-0.254
 6.682 	-0.313 	-0.209
 6.910 	-0.876 	-0.668
 4.213 	0.875 	-0.067
 4.715 	-0.013 	-0.217
 5.196 	-0.002 	-0.392
 5.512 	-0.075 	-0.363
 5.741 	-0.084 	-0.440
 5.870 	-0.234 	-0.534
 5.734 	-0.163 	-0.597
 5.727 	-0.510 	-0.211
 5.803 	-0.489 	-0.030
 5.272 	-1.122 	0.623
 5.601 	-1.180 	0.736
 6.192 	-0.296 	0.552
 6.464 	-0.456 	0.192
 6.637 	-0.497 	-0.396
 6.593 	-0.489 	0.116
 6.667 	-0.825 	-0.406
 5.065 	0.377 	-0.404
 4.787 	-0.127 	-0.031
 4.867 	-0.353 	0.167
 5.345 	-0.160 	0.037
 5.744 	0.064 	-0.272
 5.674 	-0.041 	0.013
 5.536 	0.029 	-0.047
 5.299 	-0.045 	0.437
 5.376 	-0.618 	0.225
 5.939 	-0.781 	0.471
 5.634 	-1.244 	0.284
 5.975 	-1.350 	0.055
 6.144 	-0.591 	0.156
 6.681 	-0.550 	0.092
 6.608 	-0.551 	-0.184
 6.501 	-0.456 	-0.515
 5.444 	0.455 	-0.293
 5.502 	-0.219 	-0.099
 5.689 	-0.249 	0.140
 5.422 	0.103 	0.314
 5.532 	0.312 	0.075
 5.797 	-0.048 	0.277
 5.825 	-0.060 	-0.069
 6.005 	-0.053 	0.289
 6.267 	-0.436 	-0.194
 6.177 	-1.389 	0.525
 6.481 	-2.329 	0.071
 6.777 	-1.449 	-0.166
 6.526 	-1.461 	0.175
 6.609 	-1.005 	-0.286
 6.843 	-0.318 	-0.196
 6.759 	-0.385 	-0.434
 5.530 	0.573 	-0.190
 5.379 	-0.117 	0.589
 5.550 	0.168 	0.396
 5.515 	0.221 	0.267
 5.518 	0.155 	0.067
 5.716 	0.088 	-0.284
 6.108 	0.317 	-0.411
 6.536 	0.187 	-0.603
 6.643 	0.080 	-0.681
 6.311 	-0.865 	-1.208
 6.948 	-1.894 	-0.265
 7.476 	-1.455 	-0.006
 7.217 	-0.825 	0.085
 6.421 	-0.519 	0.513
 6.917 	-0.212 	-0.530
 6.823 	0.118 	-0.213
 7.501 	0.723 	0.131
 6.751 	0.995 	0.042
 7.153 	0.262 	0.137
 7.816 	-0.306 	0.143
 7.305 	-0.428 	-0.400
 6.777 	0.307 	0.047
 7.295 	0.293 	-0.502
 6.330 	0.765 	-0.552
 6.154 	0.502 	-0.144
 6.286 	0.378 	-0.357
 6.034 	0.458 	-0.286
 5.979 	0.111 	-0.198
 5.869 	-0.021 	0.199
 5.902 	-0.216 	0.311
 5.936 	-0.111 	-0.201
 6.356 	-0.074 	-0.508
 5.549 	0.352 	0.830
 5.867 	0.338 	0.843
 7.094 	-0.134 	0.453
 7.115 	-0.529 	0.207
 7.350 	-0.088 	-0.201
 7.314 	0.666 	0.605
 7.604 	0.369 	-0.461
 6.914 	0.689 	-0.221
 6.108 	0.954 	-0.537
 6.047 	0.389 	-0.265
 6.661 	0.007 	-0.615
 6.847 	-0.344 	-0.459
 6.795 	-0.222 	-0.226
 6.554 	-0.021 	0.174
 6.494 	-0.228 	0.228
 6.713 	-0.546 	-0.083
 7.188 	0.636 	-0.334
 7.477 	-0.464 	-0.387
 7.643 	-0.537 	-0.670
 7.606 	-0.158 	-0.566
 7.908 	0.087 	-0.241
 8.039 	0.670 	-0.517
 8.401 	1.055 	-0.630
 7.481 	0.874 	-0.461
 7.040 	0.969 	-0.185
 7.644 	0.011 	-0.591
 7.210 	-0.321 	-0.084
 7.510 	-0.386 	-0.288
 7.936 	-0.113 	0.063
 7.495 	-0.072 	-0.106
 7.542 	-0.288 	-0.239
 7.629 	-0.625 	-0.309
 7.034 	0.242 	-0.570
 7.084 	0.278 	0.155
 7.385 	0.223 	0.392
 7.206 	-0.016 	0.106
 7.124 	0.432 	-0.770
 7.427 	1.077 	-0.640
 7.469 	0.922 	-0.238
 7.329 	0.482 	-0.183
 7.142 	0.330 	-0.408
 7.022 	-0.128 	-0.312
 7.260 	-0.482 	-0.552
 7.356 	-0.759 	-0.638
 8.277 	-0.673 	-0.466
 7.856 	-0.194 	-1.045
 7.663 	-0.139 	-0.859
 7.397 	-0.281 	-0.130
 7.138 	0.452 	-0.708
 6.953 	0.859 	0.123
 7.126 	0.222 	0.758
 6.580 	0.135 	0.439
 6.702 	0.490 	-0.120
 7.221 	0.610 	-0.171
 7.491 	0.834 	-0.346
 7.183 	0.500 	-0.087
 7.139 	0.403 	-0.187
 6.881 	-0.261 	-0.638
 6.451 	-0.605 	-0.390
 6.715 	-0.541 	0.014
 6.855 	-0.642 	-0.266
 6.742 	-0.358 	-0.707
 6.654 	-0.236 	-0.737
 6.284 	0.446 	0.027
 7.273 	0.792 	-0.169
 6.869 	0.949 	-0.307
 6.910 	1.168 	0.553
 6.775 	0.664 	0.446
 7.102 	0.715 	-0.034
 7.346 	0.624 	-0.316
 7.913 	0.873 	-0.449
 7.680 	0.590 	-0.470
 7.340 	0.375 	-0.433
 6.219 	-0.215 	-0.535
 6.354 	-0.254 	-0.403
 6.370 	-0.503 	0.204
 6.802 	-0.527 	-0.045
 6.896 	-0.546 	0.001
 6.522 	-0.120 	-0.356
 6.338 	0.808 	0.087
 6.729 	1.172 	0.003
 6.842 	0.847 	-0.232
 7.000 	1.163 	0.325
 6.793 	1.098 	0.253
 7.091 	0.775 	-0.369
 7.084 	0.568 	-0.504
 6.856 	0.693 	-0.541
 7.408 	0.859 	-0.632
 6.464 	0.435 	-0.622
 6.108 	-0.064 	-0.435
 6.596 	0.357 	0.395
 6.522 	-0.149 	0.378
 6.427 	-0.531 	-0.167
 6.175 	-0.591 	-0.393
 6.242 	-0.082 	0.021
 6.420 	0.365 	0.018
 6.015 	0.397 	0.378
 6.231 	0.980 	0.233
 6.409 	0.278 	0.304
 6.441 	0.227 	0.132
 6.772 	0.180 	0.098
 6.722 	0.547 	0.014
 6.901 	0.687 	0.503
 7.092 	0.802 	-0.740
 7.009 	0.745 	-0.401
 6.484 	0.243 	0.690
 5.797 	-0.145 	0.394
 6.234 	-0.571 	-0.012
 6.080 	-0.740 	-0.239
 6.098 	-0.369 	-0.560
 5.870 	-0.028 	-0.338
 6.050 	-0.005 	-0.268
 6.176 	0.182 	0.102
 6.233 	0.155 	0.126
 6.333 	0.041 	0.131
 6.081 	-0.120 	0.080
 6.058 	-0.175 	0.069
 6.328 	-0.222 	-0.215
 6.571 	0.619 	-0.513
 6.599 	0.486 	-0.534
 6.203 	0.751 	0.843
 6.278 	0.599 	0.697
 6.383 	-0.100 	0.240
 5.625 	-0.444 	-0.145
 5.561 	-0.313 	-0.189
 5.751 	-0.026 	0.153
 5.697 	0.234 	-0.215
 5.832 	0.206 	0.053
 6.310 	0.598 	-0.490
 6.104 	0.492 	-0.195
 6.013 	0.221 	0.249
 5.812 	0.108 	0.335
 5.831 	0.145 	0.335
 5.936 	-0.021 	0.095
 6.081 	0.450 	0.078
 6.215 	0.496 	0.171
 6.511 	0.691 	0.404
 5.633 	0.217 	0.279
 5.845 	-0.285 	0.395
 6.057 	-0.864 	0.522
 5.775 	-0.477 	0.242
 5.631 	0.205 	0.523
 5.650 	0.275 	0.686
 5.669 	0.014 	0.678
 4.893 	0.247 	0.329
 4.893 	0.545 	0.410
 5.017 	0.372 	0.194
 5.052 	0.278 	-0.060
 5.106 	0.371 	-0.123
 4.894 	0.019 	0.030
 5.210 	0.326 	0.280
 5.438 	0.477 	0.387
 5.619 	0.614 	0.278
 5.743 	-0.029 	0.108
 6.004 	-0.448 	-0.205
 6.321 	-1.179 	0.028
 6.088 	-0.982 	0.822
 5.926 	-0.001 	1.004
 6.110 	0.046 	0.432
 6.749 	-0.492 	0.375
 3.831 	0.679 	0.535
 4.036 	0.413 	0.270
 4.164 	0.123 	0.163
 4.233 	0.093 	0.219
 4.438 	0.406 	0.327
 4.791 	0.132 	0.274
 5.225 	-0.219 	0.136
 5.274 	0.109 	0.569
 5.484 	0.432 	0.594
 5.867 	-0.276 	0.307
 6.389 	-0.861 	-0.017
 6.470 	-1.046 	0.000
 6.520 	-0.798 	-0.170
 6.503 	-0.451 	-0.053
 6.788 	-0.671 	-0.028
 6.736 	-0.843 	-0.203
 5.569 	1.025 	-0.054
 5.719 	0.636 	-0.290
 6.105 	0.603 	-0.450
 5.760 	0.677 	-0.484
 5.872 	0.377 	-0.555
 6.272 	0.172 	-0.786
 6.384 	0.099 	-0.837
 6.413 	0.023 	-0.406
 5.985 	0.057 	-0.295
 6.132 	-0.555 	0.240
 6.317 	-0.973 	0.303
 6.497 	-1.160 	0.093
 6.816 	-1.104 	-0.059
 6.864 	-0.811 	-0.217
 6.945 	-0.960 	-0.294
 7.186 	-1.021 	-0.120
 5.836 	0.816 	-0.190
 5.587 	0.795 	-0.103
 5.479 	0.728 	-0.058
 5.859 	0.508 	-0.278
 6.205 	0.320 	-0.366
 6.106 	0.245 	-0.120
 6.063 	0.364 	-0.170
 5.984 	0.595 	-0.286
 6.152 	0.582 	0.025
 6.097 	-0.497 	0.391
 5.970 	-0.870 	0.763
 6.434 	-1.413 	0.851
 6.823 	-1.561 	0.539
 7.060 	-1.327 	0.149
 7.216 	-0.984 	-0.255
 7.001 	-0.616 	-0.393
 5.839 	1.138 	0.002
 5.479 	0.916 	-0.150
 5.747 	0.608 	-0.221
 6.186 	0.481 	-0.117
 6.266 	0.409 	-0.231
 6.227 	0.564 	-0.036
 6.156 	0.649 	-0.124
 6.205 	0.702 	-0.152
 6.494 	0.641 	-0.314
 6.532 	0.059 	-0.005
 6.585 	-0.906 	-0.246
 6.840 	-1.315 	-0.651
 7.404 	-1.397 	-0.266
 7.727 	-0.743 	-1.196
 7.689 	-1.139 	-0.230
 7.589 	-0.470 	-0.157
 5.917 	1.232 	0.221
 6.077 	0.799 	0.183
 6.067 	0.818 	0.141
 5.887 	0.931 	0.128
 5.999 	0.863 	-0.372
 6.203 	0.836 	-0.506
 6.061 	0.475 	-0.790
 6.353 	0.293 	-0.711
 6.782 	0.285 	-0.780
 6.797 	-0.031 	-0.798
 7.318 	-0.856 	-0.546
 7.637 	-1.306 	-0.055
 7.664 	-1.673 	-0.290
 7.537 	-0.916 	0.220
 7.685 	-0.763 	-0.699
 7.464 	-0.268 	-0.442
 8.133 	-0.164 	0.054
 8.151 	0.194 	-0.517
 8.611 	0.612 	-0.684
 8.564 	0.215 	-0.048
 9.001 	0.614 	-0.269
 7.926 	0.149 	-0.277
 8.731 	-0.262 	-0.489
 7.741 	0.264 	0.031
 8.114 	0.814 	-0.554
 7.078 	0.739 	-0.188
 6.580 	0.262 	-0.154
 6.558 	-0.004 	0.027
 6.457 	-0.164 	0.280
 6.456 	0.078 	0.292
 6.670 	-0.232 	0.097
 7.316 	-1.211 	-0.281
 7.634 	0.661 	0.578
 7.493 	0.624 	0.955
 7.534 	0.664 	0.491
 8.375 	0.823 	-0.701
 8.670 	0.515 	-0.130
 8.087 	-0.129 	-0.170
 7.853 	-0.006 	0.115
 7.746 	0.938 	0.212
 7.554 	1.038 	-0.395
 7.263 	1.032 	-0.018
 7.150 	0.547 	-0.427
 8.076 	0.180 	-0.696
 7.713 	0.163 	-0.116
 6.783 	-0.348 	0.506
 7.127 	-0.631 	-0.066
 7.506 	-0.520 	-0.347
 7.470 	0.912 	0.309
 7.592 	0.571 	-0.263
 8.020 	0.737 	-0.171
 8.416 	0.575 	-0.103
 8.105 	0.427 	0.066
 7.798 	-0.211 	-0.453
 8.201 	0.342 	-0.509
 8.369 	0.238 	0.094
 7.471 	1.044 	-0.029
 7.713 	1.079 	-0.414
 7.866 	-0.034 	-0.392
 7.974 	0.066 	-0.525
 7.808 	0.696 	-0.150
 7.845 	-0.063 	0.081
 7.553 	-0.547 	-0.264
 7.330 	-0.428 	-0.344
 7.656 	1.007 	-0.626
 7.291 	0.330 	0.115
 7.213 	-0.129 	0.171
 7.341 	-0.323 	-0.198
 7.838 	0.201 	-0.653
 7.839 	0.010 	-0.802
 8.280 	0.190 	-0.370
 7.385 	0.705 	0.067
 7.451 	0.688 	-0.149
 7.724 	0.215 	-0.123
 7.901 	0.202 	-0.451
 8.045 	0.115 	-0.104
 8.263 	0.329 	-0.004
 8.176 	-0.161 	-0.354
 7.387 	-0.548 	-0.413
 7.048 	-0.129 	-0.617
 7.800 	0.782 	-0.290
 7.550 	0.570 	0.119
 6.969 	-0.068 	0.042
 7.314 	-0.253 	-0.157
 7.747 	0.120 	-0.289