# vtk DataFile Version 3.0
HighT1
ASCII
DATASET STRUCTURED_POINTS
DIMENSIONS 16 16 19
ORIGIN 929.001000000000 929.001000000000 5.001000000000
SPACING 10.000000000000 10.000000000000 10.000000000000
POINT_DATA 4864
FIELD attributes 1
U 3 4864 float
2.313 	0.350 	0.449
 2.695 	0.177 	0.062
 3.031 	0.024 	0.071
 3.474 	1.339 	0.196
 3.720 	1.953 	0.020
 5.071 	1.497 	-0.596
 5.508 	-0.154 	-0.558
 5.478 	-0.645 	-0.856
 3.705 	-0.164 	0.357
 3.170 	-0.199 	0.138
 3.535 	-0.201 	0.373
 4.058 	-0.161 	-0.047
 4.988 	-0.022 	-0.735
 4.977 	0.711 	-0.179
 4.572 	0.996 	-0.606
 4.259 	0.259 	-0.343
 4.125 	-0.070 	-0.214
 4.078 	-0.489 	-0.044
 3.783 	-0.559 	0.063
 2.931 	0.835 	0.009
 3.389 	0.963 	-0.128
 3.076 	0.570 	0.212
 4.033 	0.499 	-0.209
 4.872 	-0.005 	-0.632
 4.242 	0.413 	-0.114
 4.800 	0.405 	-0.170
 4.013 	0.116 	-0.023
 4.543 	0.422 	-0.376
 3.981 	0.077 	0.012
 2.896 	0.534 	0.462
 3.638 	0.499 	0.040
 5.100 	1.090 	-0.146
 3.028 	-0.147 	0.116
 3.810 	0.512 	-0.270
 3.300 	-0.341 	0.371
 2.471 	0.296 	0.798
 3.294 	0.378 	0.254
 3.862 	0.998 	-0.239
 3.800 	0.446 	-0.086
 3.931 	0.723 	-0.038
 2.999 	-0.158 	0.331
 2.801 	-0.725 	0.448
 3.598 	0.609 	0.459
 4.294 	1.130 	0.125
 4.799 	0.756 	0.306
 3.599 	0.875 	0.157
 3.317 	0.528 	0.099
 3.162 	0.741 	-0.104
 4.151 	-0.248 	-0.171
 3.641 	-0.193 	0.124
 3.317 	0.571 	0.190
 3.224 	0.027 	-0.062
 3.037 	0.078 	0.024
 2.597 	0.723 	0.184
 3.343 	0.834 	-0.219
 2.783 	-0.050 	0.533
 2.860 	0.066 	0.364
 3.159 	-0.635 	0.396
 3.454 	0.074 	0.038
 3.823 	1.071 	0.251
 3.475 	-0.121 	0.167
 3.663 	0.645 	0.115
 4.458 	-0.113 	-0.129
 4.015 	0.415 	0.215
 2.788 	0.109 	0.369
 3.134 	-0.024 	0.062
 3.078 	0.023 	0.128
 3.072 	0.044 	0.052
 2.388 	-0.222 	0.365
 2.645 	-0.226 	0.329
 2.955 	-0.110 	-0.066
 3.284 	0.235 	0.384
 3.126 	-0.580 	0.053
 3.824 	-0.620 	-0.357
 3.496 	-0.073 	-0.248
 3.720 	0.435 	-0.115
 3.295 	-0.274 	0.280
 3.464 	0.298 	0.204
 3.262 	-1.258 	0.458
 3.388 	-0.203 	0.216
 4.185 	-0.398 	-0.018
 4.210 	0.163 	-0.125
 3.972 	0.030 	0.081
 4.390 	-0.246 	-0.281
 4.430 	-0.373 	-0.316
 3.940 	-0.298 	0.038
 3.624 	-0.233 	0.045
 3.915 	0.461 	-0.259
 3.704 	-0.245 	0.154
 3.422 	-0.369 	0.143
 2.869 	-0.708 	0.383
 3.374 	-0.368 	0.016
 3.776 	-0.045 	0.288
 4.236 	-0.187 	0.191
 4.238 	-0.873 	-0.024
 3.012 	-0.563 	0.515
 4.469 	0.430 	0.014
 3.885 	-0.254 	0.108
 4.408 	-0.335 	-0.068
 5.050 	-0.068 	-0.288
 4.444 	-0.006 	-0.073
 4.357 	0.148 	0.129
 4.114 	-0.359 	0.373
 3.912 	0.143 	0.060
 3.681 	0.191 	0.127
 3.673 	-0.167 	-0.219
 4.001 	-0.245 	-0.187
 3.852 	-1.184 	0.243
 4.216 	-0.686 	-0.032
 4.437 	-0.601 	-0.102
 3.552 	-0.293 	0.319
 3.471 	-0.007 	0.265
 3.821 	0.597 	0.333
 3.134 	-0.332 	-0.110
 3.295 	-0.312 	-0.060
 3.944 	0.093 	-0.161
 3.752 	0.665 	-0.142
 2.666 	0.326 	0.084
 2.553 	0.196 	0.105
 2.974 	0.107 	-0.143
 3.400 	-0.128 	-0.074
 3.768 	0.048 	-0.333
 4.364 	0.001 	-0.529
 4.622 	-0.414 	-0.405
 3.818 	-0.783 	0.084
 4.799 	0.090 	-0.977
 5.246 	-0.014 	-0.344
 4.903 	0.234 	-0.054
 4.500 	-0.115 	-0.500
 4.781 	-0.156 	-0.324
 4.251 	0.321 	0.260
 2.394 	0.381 	0.200
 2.867 	0.841 	-0.034
 3.722 	0.853 	-0.338
 4.131 	0.331 	-0.226
 4.294 	-0.228 	-0.081
 4.047 	-0.299 	0.101
 3.805 	0.066 	0.002
 4.150 	-0.294 	0.104
 4.409 	-0.487 	-0.016
 4.368 	0.119 	-0.047
 4.404 	-0.013 	-0.028
 3.904 	0.468 	-0.225
 4.231 	0.645 	0.094
 4.199 	0.004 	-0.445
 4.360 	0.341 	-0.096
 4.345 	0.994 	0.143
 4.289 	1.041 	-0.130
 3.757 	0.538 	-0.164
 3.948 	0.872 	-0.102
 4.400 	0.675 	-0.217
 4.659 	-0.032 	-0.247
 4.386 	-0.284 	-0.097
 3.975 	-0.175 	-0.121
 4.317 	-0.378 	0.040
 3.807 	-0.080 	0.464
 3.817 	0.354 	-0.217
 3.648 	0.182 	0.142
 3.553 	0.442 	0.221
 4.120 	0.403 	-0.066
 2.862 	-0.077 	0.138
 3.445 	0.161 	0.069
 3.667 	0.820 	0.088
 3.915 	0.673 	-0.093
 4.123 	0.554 	0.160
 4.057 	0.487 	0.003
 3.707 	0.549 	-0.123
 4.057 	0.602 	-0.414
 3.960 	0.539 	-0.180
 4.139 	0.204 	-0.312
 3.893 	0.361 	-0.150
 3.605 	-0.139 	0.066
 2.910 	0.139 	0.143
 3.434 	-0.155 	-0.015
 3.490 	-0.039 	-0.238
 3.625 	0.024 	-0.133
 3.209 	-0.080 	-0.035
 2.945 	-0.359 	-0.209
 3.142 	0.634 	0.108
 2.643 	0.312 	0.384
 2.560 	-0.369 	0.134
 2.553 	-0.380 	0.188
 3.107 	0.087 	0.263
 3.134 	0.615 	-0.145
 3.520 	0.378 	-0.023
 3.347 	0.626 	0.059
 3.058 	0.191 	0.392
 3.370 	-0.152 	0.197
 4.017 	-0.051 	-0.236
 3.982 	0.116 	-0.157
 4.247 	0.427 	-0.193
 3.566 	0.749 	-0.128
 2.930 	0.256 	0.387
 3.410 	-0.331 	-0.204
 3.283 	0.054 	0.402
 3.496 	-0.087 	0.233
 4.066 	-0.664 	0.183
 3.927 	-0.502 	0.077
 2.932 	-0.374 	0.181
 2.584 	0.054 	0.392
 2.127 	0.111 	0.432
 2.966 	0.002 	0.392
 3.786 	-0.369 	-0.329
 3.970 	-0.381 	-0.134
 3.669 	-0.152 	0.163
 3.354 	0.308 	0.233
 3.603 	-0.008 	0.074
 4.125 	0.342 	0.122
 4.000 	-0.534 	0.036
 3.882 	0.112 	0.030
 3.996 	0.233 	-0.057
 4.429 	0.124 	-0.230
 2.869 	-0.577 	0.416
 2.928 	-0.519 	0.001
 3.415 	-0.385 	-0.154
 3.702 	0.056 	-0.271
 3.597 	0.243 	-0.026
 4.189 	0.218 	-0.499
 4.154 	0.183 	-0.213
 4.286 	0.095 	0.128
 4.099 	-0.627 	0.072
 4.452 	-0.453 	-0.139
 4.804 	-0.207 	-0.071
 4.772 	0.165 	-0.137
 2.799 	-0.520 	0.412
 2.758 	0.038 	0.097
 3.194 	0.056 	-0.150
 3.403 	0.210 	0.034
 4.214 	-0.173 	-0.278
 3.929 	-0.217 	0.096
 3.451 	-0.424 	0.126
 3.043 	-0.347 	0.096
 3.354 	0.252 	-0.060
 3.682 	0.220 	-0.116
 3.895 	0.237 	-0.180
 4.328 	0.377 	-0.061
 3.718 	-0.230 	0.085
 3.550 	-0.497 	-0.221
 3.559 	-0.006 	0.360
 4.067 	0.811 	-0.072
 3.205 	-0.258 	0.061
 3.539 	-0.410 	0.204
 2.956 	-0.254 	0.203
 3.176 	0.102 	-0.142
 3.451 	0.200 	-0.277
 3.391 	-0.192 	-0.043
 3.121 	-0.313 	0.092
 2.596 	0.122 	-0.034
 2.173 	0.386 	0.300
 2.650 	-0.219 	-0.351
 2.917 	0.019 	0.220
 3.028 	0.138 	0.056
 3.120 	0.131 	0.083
 2.458 	-0.161 	-0.028
 2.906 	-0.231 	-0.120
 3.189 	0.359 	0.193
 5.490 	0.374 	0.125
 4.440 	-0.371 	0.466
 5.334 	0.367 	0.090
 5.928 	0.784 	0.669
 5.101 	0.993 	0.400
 5.116 	0.705 	0.579
 5.773 	1.998 	-0.015
 5.636 	0.962 	-0.338
 5.233 	0.251 	0.206
 5.908 	-0.093 	-0.243
 6.479 	-0.207 	-0.239
 5.603 	-0.280 	0.076
 5.855 	-0.608 	-0.544
 6.452 	-0.125 	-0.816
 5.929 	0.558 	-0.601
 6.095 	0.296 	-0.190
 6.096 	1.405 	-0.266
 5.262 	0.891 	-0.445
 5.353 	-0.673 	0.718
 5.433 	0.440 	0.163
 5.054 	0.779 	0.404
 5.485 	0.122 	0.207
 5.090 	0.989 	-0.047
 5.656 	0.626 	-0.583
 5.287 	0.122 	0.292
 5.380 	0.775 	0.167
 5.225 	0.337 	-0.251
 4.491 	-0.612 	-0.372
 4.854 	-0.499 	-0.963
 5.820 	0.090 	-0.670
 5.733 	0.682 	-0.806
 6.493 	0.720 	-0.527
 4.868 	0.138 	-0.815
 5.704 	0.445 	-0.694
 5.356 	0.918 	0.307
 5.056 	-0.369 	0.413
 5.882 	1.488 	-0.493
 5.846 	-0.340 	-0.463
 5.574 	0.454 	-0.596
 5.354 	0.626 	-0.454
 5.636 	0.445 	0.270
 5.527 	1.122 	0.357
 4.339 	-0.120 	0.118
 4.258 	0.355 	-0.229
 4.795 	-0.464 	0.029
 4.868 	0.088 	0.635
 4.744 	1.426 	1.012
 4.050 	0.369 	0.675
 4.147 	0.410 	0.001
 4.731 	0.124 	0.226
 4.590 	0.009 	0.370
 4.665 	0.111 	0.372
 4.408 	0.327 	-0.156
 3.719 	-0.344 	0.266
 3.359 	0.546 	0.951
 3.621 	1.022 	0.689
 3.281 	-0.183 	0.910
 3.933 	0.475 	-0.589
 3.745 	0.367 	0.312
 3.428 	-0.167 	0.321
 4.083 	-0.344 	0.014
 4.651 	0.578 	0.020
 4.592 	-0.145 	1.008
 5.186 	-0.108 	0.433
 4.320 	0.170 	0.388
 4.227 	0.186 	0.247
 4.049 	0.001 	0.498
 3.473 	0.191 	0.490
 3.607 	-0.182 	0.446
 4.442 	0.125 	0.265
 4.352 	-0.061 	-0.254
 4.761 	0.587 	0.013
 4.556 	0.102 	0.146
 4.459 	-0.022 	0.292
 4.743 	0.185 	-0.138
 4.600 	-0.351 	0.118
 4.629 	0.487 	0.349
 4.684 	0.848 	-0.031
 5.364 	-0.123 	-0.185
 6.016 	-0.188 	0.072
 5.368 	-0.236 	-0.104
 5.800 	-0.004 	0.004
 5.275 	0.087 	-0.021
 4.775 	-0.311 	-0.016
 4.585 	-0.594 	0.281
 4.773 	-0.242 	0.205
 4.633 	0.491 	0.106
 5.101 	0.443 	-0.211
 5.043 	0.278 	-0.348
 4.656 	-0.255 	0.481
 4.266 	-0.261 	0.063
 4.359 	-0.356 	0.059
 4.015 	-0.453 	0.312
 4.311 	0.174 	0.820
 4.994 	0.303 	0.390
 6.006 	0.392 	-0.733
 5.541 	-0.204 	-0.809
 5.799 	-0.053 	0.180
 6.137 	-0.011 	-0.454
 5.612 	-0.098 	-0.152
 5.098 	-0.045 	0.214
 4.774 	-0.117 	0.197
 4.792 	0.157 	0.427
 4.560 	0.313 	0.387
 5.048 	0.392 	0.032
 5.135 	0.797 	-0.467
 5.278 	-0.197 	-0.331
 4.844 	-0.512 	-0.413
 5.085 	-0.051 	-0.401
 4.966 	-0.174 	-0.070
 4.387 	0.090 	0.191
 4.643 	-0.029 	0.595
 4.961 	-0.111 	-0.676
 5.252 	-0.091 	-0.733
 5.438 	0.338 	-0.158
 5.790 	0.424 	0.083
 5.247 	0.094 	-0.344
 5.121 	0.266 	-0.493
 5.286 	0.158 	-0.003
 5.184 	0.463 	-0.149
 4.464 	-0.162 	0.162
 4.502 	0.641 	-0.275
 4.480 	-0.102 	-0.169
 4.860 	-0.397 	0.017
 4.787 	-0.174 	-0.315
 5.184 	-0.275 	-0.574
 5.718 	0.105 	-0.582
 5.596 	-0.135 	-0.508
 5.102 	-0.298 	0.240
 4.998 	-0.299 	-0.033
 5.187 	0.042 	0.051
 4.713 	0.335 	-0.017
 4.827 	0.299 	-0.379
 4.453 	-0.425 	-0.555
 4.802 	0.080 	-0.552
 4.660 	0.708 	0.161
 4.439 	0.266 	0.392
 4.542 	-0.110 	0.241
 4.560 	-0.376 	0.358
 4.527 	-1.042 	-0.109
 5.164 	-0.773 	-0.472
 5.275 	-0.184 	-0.262
 5.437 	-0.136 	-0.436
 5.428 	-0.013 	-0.304
 3.534 	-1.249 	0.019
 3.637 	-0.707 	0.020
 4.106 	0.281 	0.002
 3.903 	0.235 	-0.069
 4.341 	-0.002 	-0.004
 4.326 	0.195 	0.050
 4.435 	-0.003 	-0.758
 4.844 	0.719 	-0.589
 5.097 	0.580 	-0.362
 5.080 	0.214 	-0.338
 4.678 	-0.450 	-0.267
 4.937 	-0.554 	-0.222
 4.804 	-0.588 	-0.137
 4.512 	0.307 	0.402
 5.271 	0.376 	-0.132
 4.705 	0.031 	-0.474
 4.103 	-0.902 	0.195
 4.352 	-1.220 	-0.020
 3.861 	0.213 	0.139
 3.933 	-0.037 	0.556
 3.887 	-0.324 	0.378
 3.807 	-0.440 	0.643
 3.981 	0.478 	0.091
 4.123 	0.305 	-0.158
 4.334 	0.598 	0.230
 4.616 	0.326 	-0.364
 4.707 	-0.415 	-0.740
 5.236 	0.334 	-0.923
 4.569 	-0.437 	0.232
 4.777 	0.409 	0.013
 4.969 	0.151 	-0.230
 4.976 	0.408 	-0.179
 3.852 	-0.957 	0.334
 3.295 	-0.945 	0.128
 3.855 	0.041 	-0.006
 3.234 	0.457 	0.316
 2.797 	-0.371 	0.343
 3.332 	-0.648 	0.394
 3.134 	-0.098 	0.763
 3.231 	0.028 	0.540
 3.952 	0.789 	-0.489
 4.077 	0.253 	-0.687
 4.215 	0.120 	0.055
 4.379 	0.742 	0.114
 4.467 	0.148 	0.037
 4.712 	0.041 	0.040
 4.303 	-0.029 	0.219
 4.409 	-0.240 	0.168
 5.264 	-1.060 	0.400
 4.752 	-0.385 	-0.016
 3.407 	0.373 	0.569
 3.519 	0.654 	0.394
 3.544 	0.169 	-0.157
 3.751 	-0.039 	0.066
 3.199 	-0.187 	0.323
 3.114 	0.168 	0.236
 3.572 	0.413 	-0.102
 4.033 	1.010 	0.021
 4.335 	1.086 	-0.466
 4.697 	0.532 	-0.624
 4.749 	0.208 	-0.423
 4.507 	-0.305 	0.274
 4.520 	-0.271 	0.318
 5.065 	-0.703 	0.215
 4.342 	-0.067 	0.336
 4.180 	-0.448 	-0.169
 4.138 	-0.221 	0.004
 4.217 	0.108 	-0.332
 4.294 	-0.035 	0.091
 4.535 	-0.113 	0.223
 3.729 	-0.278 	0.466
 3.780 	-0.484 	0.302
 4.237 	0.063 	-0.143
 4.080 	0.813 	-0.372
 4.324 	0.927 	-0.572
 4.885 	0.559 	-0.342
 4.612 	0.421 	-0.036
 4.394 	0.203 	-0.049
 4.937 	0.131 	-0.436
 5.242 	0.042 	0.022
 4.180 	0.023 	0.497
 4.421 	-0.046 	-0.019
 4.051 	-0.536 	0.041
 4.016 	-0.365 	-0.109
 4.325 	0.069 	-0.020
 4.044 	-0.061 	-0.022
 3.898 	0.005 	0.084
 3.750 	-0.598 	-0.005
 3.695 	-0.549 	0.035
 3.893 	0.157 	-0.008
 4.131 	0.410 	0.058
 4.590 	0.358 	-0.091
 4.720 	0.457 	-0.260
 4.446 	-0.209 	0.110
 4.129 	-0.126 	-0.051
 4.029 	0.037 	-0.041
 4.049 	-0.297 	0.105
 4.423 	-0.493 	-0.275
 4.381 	-0.636 	0.208
 4.585 	-0.132 	-0.350
 4.240 	0.055 	-0.342
 3.699 	0.046 	-0.102
 3.244 	-0.498 	0.194
 3.588 	-0.608 	0.105
 3.441 	-0.862 	0.206
 3.788 	-1.004 	0.228
 3.993 	-0.354 	0.038
 4.183 	-0.166 	-0.353
 4.652 	0.613 	-0.555
 4.705 	0.479 	0.426
 4.233 	-0.361 	0.391
 3.802 	-0.029 	0.158
 6.798 	-0.063 	-0.150
 7.320 	0.509 	-0.678
 6.424 	-0.121 	0.406
 5.964 	-0.166 	0.675
 6.394 	0.554 	0.380
 6.591 	1.438 	0.684
 7.197 	0.747 	-0.266
 7.059 	1.748 	0.613
 5.877 	0.525 	0.114
 6.298 	1.870 	-0.533
 6.348 	0.946 	-0.264
 6.453 	0.708 	-0.261
 6.416 	0.202 	-0.429
 6.743 	-0.162 	-0.591
 6.805 	0.583 	-0.779
 6.418 	0.111 	-0.754
 7.010 	0.440 	-0.539
 7.330 	0.695 	-0.782
 7.732 	1.224 	-0.199
 7.720 	-0.021 	0.262
 5.837 	0.728 	0.677
 6.475 	0.985 	0.749
 6.407 	1.403 	0.567
 6.322 	1.690 	0.270
 5.840 	0.302 	0.091
 6.358 	1.176 	0.015
 6.331 	0.759 	-0.431
 6.193 	0.284 	-0.082
 5.778 	0.040 	-0.453
 5.436 	-0.383 	-0.037
 5.736 	-0.036 	-1.196
 5.647 	0.029 	-0.873
 7.395 	1.647 	-0.183
 5.742 	0.136 	0.159
 4.989 	0.273 	0.946
 5.244 	0.505 	1.024
 5.087 	-0.060 	0.464
 4.577 	-0.420 	0.497
 5.193 	0.167 	-0.209
 5.645 	0.735 	-0.236
 5.188 	0.556 	0.881
 5.273 	0.494 	0.849
 4.929 	0.738 	-0.051
 5.239 	0.560 	-0.295
 4.209 	0.062 	-0.055
 4.129 	-0.146 	0.305
 4.055 	-0.791 	0.606
 4.306 	0.167 	0.596
 6.094 	1.605 	-0.348
 5.580 	0.794 	0.809
 5.184 	0.365 	1.093
 4.952 	-0.101 	0.590
 4.835 	-0.443 	0.154
 4.658 	0.206 	0.131
 4.196 	0.064 	0.638
 3.968 	0.333 	0.817
 4.611 	0.198 	0.064
 4.772 	0.655 	-0.301
 4.891 	0.745 	0.300
 5.258 	0.660 	-0.559
 5.749 	0.541 	-0.480
 5.628 	0.500 	-0.709
 6.130 	0.043 	0.977
 5.283 	0.516 	0.731
 5.199 	1.339 	0.810
 5.356 	0.414 	0.610
 5.810 	0.127 	0.626
 5.482 	0.036 	0.567
 4.831 	-0.660 	0.194
 4.455 	0.187 	0.237
 4.304 	0.027 	0.607
 4.520 	0.207 	0.790
 4.381 	0.113 	0.511
 4.099 	0.497 	0.644
 4.329 	0.732 	0.673
 4.338 	0.726 	0.352
 4.760 	0.413 	0.010
 5.304 	0.360 	0.104
 5.791 	0.221 	-0.319
 4.685 	0.772 	-0.261
 5.190 	0.819 	-0.315
 5.575 	0.382 	0.154
 5.723 	-0.152 	0.541
 5.676 	-0.020 	0.245
 5.295 	0.009 	0.290
 5.546 	-0.170 	0.153
 5.747 	-0.697 	-0.072
 5.903 	0.079 	-0.324
 5.652 	-0.060 	-0.310
 4.646 	0.344 	0.406
 4.676 	0.659 	-0.041
 4.878 	0.815 	0.122
 4.174 	0.122 	0.496
 4.990 	-0.003 	0.154
 5.399 	0.519 	-0.075
 5.450 	0.967 	-0.445
 5.855 	0.168 	0.001
 6.174 	0.101 	-0.220
 6.040 	-0.091 	-0.286
 5.352 	0.289 	0.311
 5.484 	0.053 	0.298
 5.285 	-0.501 	0.269
 5.675 	-0.216 	-0.006
 5.499 	0.015 	-0.111
 5.363 	-0.421 	-0.043
 6.142 	0.054 	-0.367
 5.544 	0.844 	-0.273
 5.133 	0.991 	-0.180
 5.047 	0.589 	-0.643
 5.287 	0.968 	-0.655
 5.440 	0.694 	-0.390
 5.696 	-0.282 	-0.118
 5.053 	-1.137 	-0.005
 5.347 	-0.568 	-0.383
 5.318 	-0.503 	0.151
 5.454 	0.209 	0.034
 5.558 	0.093 	0.027
 5.604 	0.007 	-0.283
 5.401 	-0.009 	-0.159
 4.919 	0.019 	0.329
 5.511 	-0.060 	-0.372
 4.574 	0.208 	0.048
 4.836 	0.894 	0.144
 5.252 	1.072 	-0.206
 5.593 	0.435 	-0.353
 6.140 	0.216 	-0.575
 6.093 	0.938 	-0.078
 5.614 	0.062 	0.085
 4.623 	-0.783 	-0.043
 4.802 	-0.682 	0.002
 4.713 	-0.229 	0.026
 4.692 	0.146 	0.134
 4.937 	0.098 	0.071
 5.145 	-0.080 	-0.331
 4.965 	-0.350 	-0.367
 4.964 	0.285 	0.080
 4.659 	0.515 	0.049
 4.394 	0.446 	0.349
 4.537 	0.744 	0.083
 4.800 	0.831 	-0.319
 4.919 	0.059 	-0.420
 5.574 	-0.072 	0.030
 6.024 	-0.045 	-0.299
 5.986 	-0.125 	-0.316
 4.421 	-0.415 	-0.257
 3.839 	-0.906 	0.498
 3.937 	-0.334 	0.410
 4.260 	-0.281 	0.432
 4.430 	-0.388 	-0.211
 4.744 	-1.143 	-0.387
 5.195 	-0.386 	-1.092
 5.092 	0.431 	-0.347
 5.106 	0.685 	-0.185
 4.575 	0.928 	-0.359
 4.599 	0.885 	-0.501
 5.387 	0.444 	-0.681
 5.852 	-0.041 	-0.832
 5.909 	-0.353 	-0.467
 5.622 	-0.230 	-0.213
 5.487 	0.109 	-0.684
 5.260 	-0.323 	0.452
 4.728 	-0.370 	-0.237
 3.890 	-0.589 	0.653
 3.130 	-0.560 	0.758
 3.438 	-0.667 	0.023
 3.842 	-0.642 	0.034
 4.216 	-0.888 	0.316
 4.687 	0.345 	-0.782
 4.843 	0.736 	-0.400
 5.027 	0.869 	-0.380
 5.342 	0.868 	-0.611
 5.723 	0.322 	-0.881
 5.608 	0.697 	-0.202
 5.419 	0.126 	-0.299
 4.991 	0.243 	0.274
 4.971 	0.494 	0.192
 5.131 	-0.122 	0.449
 4.870 	-0.590 	0.300
 4.486 	-0.278 	0.366
 3.843 	-0.218 	0.605
 3.986 	-0.522 	0.359
 4.327 	-0.008 	-0.131
 4.035 	-0.904 	0.544
 4.380 	0.398 	0.739
 4.604 	0.749 	-0.957
 4.713 	0.658 	-0.669
 5.223 	0.661 	-0.702
 4.995 	0.146 	-0.231
 4.442 	0.419 	0.367
 4.353 	0.316 	0.538
 4.476 	0.238 	0.557
 4.459 	-0.135 	0.317
 6.152 	0.337 	0.001
 5.971 	-0.670 	0.238
 5.088 	-0.212 	0.663
 5.115 	-0.535 	0.499
 5.259 	-1.411 	-0.414
 5.199 	0.426 	0.450
 5.295 	0.172 	-0.575
 5.055 	-0.062 	0.572
 4.295 	0.827 	-0.274
 4.824 	0.464 	-0.460
 5.208 	0.631 	-0.739
 5.274 	0.750 	-0.778
 4.937 	0.570 	-0.573
 4.559 	0.326 	0.265
 4.796 	0.194 	-0.612
 4.915 	-0.061 	0.151
 6.086 	0.407 	-0.002
 5.944 	0.091 	0.205
 5.300 	-0.423 	0.497
 5.208 	-0.705 	0.037
 4.315 	-0.223 	0.101
 3.840 	0.372 	0.871
 4.714 	0.643 	0.283
 4.724 	0.543 	0.589
 4.851 	0.109 	0.227
 5.072 	0.314 	-0.016
 4.998 	0.493 	-0.408
 4.813 	0.724 	-0.440
 4.728 	0.796 	0.061
 5.148 	0.180 	-0.266
 5.252 	0.107 	-1.072
 5.331 	0.132 	-0.006
 4.853 	-0.028 	0.670
 5.152 	-0.434 	0.009
 5.432 	-0.283 	-0.047
 4.758 	0.303 	0.058
 4.740 	0.422 	-0.214
 4.130 	-0.101 	0.175
 4.316 	-0.021 	0.177
 4.521 	-0.028 	0.436
 4.470 	0.145 	0.081
 4.259 	0.061 	0.269
 4.458 	0.258 	0.398
 4.743 	0.789 	-0.288
 5.112 	0.481 	-0.296
 4.981 	0.220 	-0.192
 4.917 	0.256 	0.039
 5.527 	0.121 	-0.008
 4.140 	-0.530 	0.164
 4.268 	-0.458 	0.175
 4.648 	-0.073 	0.359
 4.783 	0.594 	-0.076
 4.788 	0.633 	-0.227
 5.033 	0.014 	0.070
 4.848 	-0.389 	0.157
 4.784 	-0.399 	0.141
 4.288 	0.554 	0.117
 4.397 	-0.070 	0.342
 4.128 	0.016 	0.996
 4.412 	0.230 	0.463
 4.925 	0.517 	-0.262
 4.933 	0.430 	0.622
 5.318 	0.519 	0.188
 5.196 	0.128 	0.359
 7.456 	-0.524 	-0.389
 7.970 	0.062 	-0.686
 6.939 	-0.078 	-0.673
 6.535 	-0.231 	0.568
 7.043 	0.696 	0.564
 6.992 	0.930 	0.610
 6.957 	0.772 	0.061
 6.516 	1.455 	0.756
 6.859 	1.133 	0.737
 7.175 	0.729 	-0.016
 6.886 	1.249 	0.010
 7.294 	1.285 	0.344
 6.529 	1.511 	-0.260
 6.873 	0.577 	-0.371
 7.377 	0.338 	-0.910
 7.045 	0.181 	-0.941
 6.627 	-0.031 	-1.243
 5.372 	-0.375 	0.335
 5.541 	0.341 	0.549
 5.354 	-0.673 	0.820
 5.384 	0.620 	1.202
 5.605 	0.860 	0.340
 5.782 	1.027 	0.457
 5.799 	0.668 	0.967
 6.180 	0.657 	0.607
 5.845 	-0.025 	0.517
 6.056 	-0.059 	-0.170
 6.508 	0.306 	0.329
 6.644 	0.927 	0.254
 6.397 	-0.133 	-0.113
 6.939 	0.744 	-0.862
 6.972 	0.495 	-0.457
 7.718 	0.683 	-0.238
 6.052 	0.544 	1.105
 5.300 	0.146 	1.000
 5.191 	0.113 	1.343
 5.018 	-0.121 	0.722
 5.332 	0.866 	0.490
 5.698 	0.312 	1.257
 6.037 	0.326 	0.496
 5.918 	0.290 	0.620
 6.011 	-0.297 	0.673
 5.574 	0.442 	0.283
 5.918 	0.147 	-0.023
 5.707 	0.774 	-0.281
 5.362 	0.006 	0.460
 4.740 	-0.269 	0.713
 6.226 	-0.620 	-0.213
 5.777 	0.904 	0.408
 5.292 	1.083 	1.784
 5.416 	0.162 	1.133
 5.437 	0.279 	0.755
 5.007 	0.086 	1.041
 4.327 	-0.362 	0.654
 4.689 	-0.127 	0.514
 4.593 	-0.241 	0.485
 5.005 	-0.047 	0.667
 4.955 	-0.512 	0.839
 5.396 	-0.123 	-0.197
 6.025 	-0.253 	-0.744
 6.157 	0.776 	-0.283
 5.706 	0.115 	-0.368
 5.190 	0.171 	0.651
 5.633 	0.128 	-0.255
 6.493 	1.792 	1.019
 6.955 	1.891 	0.510
 6.176 	-0.048 	0.862
 5.829 	0.173 	0.901
 5.676 	-0.263 	0.801
 5.228 	-0.066 	0.210
 4.824 	0.048 	0.603
 4.095 	0.039 	1.038
 4.607 	-0.196 	0.722
 5.100 	-0.223 	0.699
 5.691 	-0.655 	-0.079
 5.608 	-0.116 	0.426
 5.738 	0.039 	-0.522
 6.483 	0.643 	-0.588
 6.255 	0.238 	0.038
 5.766 	0.179 	-0.447
 6.586 	1.240 	1.151
 6.916 	1.438 	0.615
 5.925 	-0.021 	0.888
 5.860 	-0.143 	0.765
 5.984 	-0.178 	0.589
 5.735 	-0.213 	0.399
 5.896 	-0.436 	-0.184
 5.656 	-0.241 	-0.124
 5.871 	-0.514 	-0.133
 6.192 	-0.078 	0.052
 6.195 	-0.135 	-0.115
 6.004 	0.220 	0.059
 6.102 	-0.428 	0.112
 6.195 	0.098 	-0.284
 6.416 	1.134 	-0.214
 6.659 	0.834 	-0.364
 5.346 	0.067 	0.568
 6.266 	0.258 	0.037
 6.411 	0.091 	0.023
 6.329 	-0.178 	0.077
 6.218 	-0.073 	-0.116
 6.624 	0.009 	-0.105
 5.938 	-0.281 	0.035
 6.067 	-0.229 	-0.585
 5.794 	-0.693 	-0.257
 6.184 	0.150 	-0.081
 6.411 	-0.039 	-0.154
 6.535 	0.385 	-1.064
 6.944 	0.571 	-0.936
 6.137 	0.386 	-0.015
 6.214 	1.011 	0.261
 6.597 	1.250 	-0.375
 5.464 	-0.479 	0.201
 5.525 	-0.801 	0.499
 5.733 	-0.178 	0.472
 6.053 	-0.114 	0.148
 6.116 	0.078 	-0.191
 6.104 	0.168 	-0.307
 5.775 	0.138 	0.195
 5.471 	0.015 	-0.073
 5.715 	-0.254 	-0.302
 5.206 	-0.438 	-0.033
 5.272 	-0.013 	-0.163
 5.937 	0.379 	-0.187
 5.991 	0.846 	-0.518
 5.824 	0.213 	-0.183
 5.876 	0.282 	0.022
 5.958 	1.137 	0.116
 5.949 	0.155 	-0.159
 6.994 	-0.959 	-0.480
 6.089 	-0.998 	0.082
 5.258 	-0.562 	0.211
 5.506 	0.085 	-0.405
 5.269 	0.039 	-0.324
 5.224 	0.061 	0.054
 5.354 	0.144 	0.222
 5.380 	0.525 	-0.192
 4.950 	0.224 	0.076
 5.330 	0.032 	-0.407
 5.535 	0.234 	-0.441
 5.307 	0.691 	-0.190
 5.349 	0.320 	-0.130
 5.499 	0.332 	0.168
 5.706 	0.860 	-0.221
 5.572 	-0.464 	-0.118
 4.612 	-1.069 	0.754
 4.028 	-0.667 	0.769
 4.648 	-0.465 	0.410
 4.872 	0.205 	-0.088
 5.140 	0.152 	-0.116
 5.018 	-0.216 	-0.301
 5.392 	-0.181 	-0.410
 5.535 	0.750 	0.074
 5.895 	0.529 	-0.466
 5.540 	0.453 	-0.437
 5.913 	0.237 	-0.637
 6.241 	0.617 	-0.933
 6.540 	0.122 	-0.819
 6.142 	-0.251 	-0.313
 5.878 	0.451 	-0.420
 5.179 	-0.710 	0.989
 5.204 	-0.073 	0.082
 4.768 	-0.355 	1.142
 4.698 	-0.587 	0.361
 5.107 	-0.160 	-0.160
 4.993 	0.150 	-0.198
 5.170 	-0.714 	0.113
 5.209 	-0.478 	-0.390
 5.351 	0.240 	-0.655
 5.510 	0.259 	-0.439
 5.565 	0.168 	-0.282
 4.883 	-0.259 	-0.448
 4.752 	-0.241 	0.029
 5.113 	0.494 	0.110
 4.482 	-0.606 	0.486
 4.996 	0.236 	0.022
 5.666 	0.266 	0.243
 5.332 	-0.411 	0.750
 5.341 	-0.160 	0.912
 5.145 	-0.231 	0.595
 5.075 	-0.435 	0.171
 5.516 	-0.205 	-0.224
 5.357 	-0.400 	0.066
 5.723 	-0.732 	0.580
 5.745 	-0.356 	-0.430
 5.651 	0.091 	-0.328
 5.252 	-0.279 	-0.278
 5.039 	0.326 	-0.308
 4.441 	0.256 	0.098
 4.416 	-0.002 	0.551
 4.725 	-0.322 	0.432
 4.592 	0.203 	0.270
 6.660 	0.329 	-0.164
 5.685 	0.183 	0.452
 6.267 	-0.279 	0.863
 5.832 	0.094 	0.604
 5.900 	-0.450 	-0.067
 5.887 	-0.566 	-0.099
 6.164 	-0.485 	-0.576
 5.672 	0.444 	0.739
 5.890 	0.039 	-0.413
 6.099 	-0.320 	-0.548
 5.907 	-0.136 	-0.492
 5.691 	0.288 	-0.473
 5.573 	0.852 	-0.355
 6.212 	0.069 	-0.337
 5.854 	0.449 	-0.501
 5.109 	0.586 	-0.246
 6.052 	0.262 	-0.425
 6.572 	0.769 	0.143
 6.291 	0.212 	0.874
 6.371 	-0.260 	-0.338
 6.269 	-0.186 	-0.175
 5.325 	-0.472 	0.600
 5.288 	-0.411 	0.248
 5.353 	0.336 	0.042
 5.473 	-0.419 	-0.115
 5.758 	-0.154 	-0.328
 5.945 	0.137 	-0.400
 5.596 	0.406 	-0.223
 5.588 	0.341 	-0.279
 5.700 	0.784 	-0.419
 5.657 	0.900 	-0.518
 5.143 	0.449 	-0.017
 4.913 	-0.452 	1.452
 6.036 	0.679 	0.785
 6.022 	0.446 	0.050
 6.470 	0.149 	-0.204
 5.324 	0.367 	0.126
 4.926 	-0.201 	0.475
 4.542 	-0.472 	0.532
 4.611 	-0.140 	0.915
 4.784 	-0.478 	0.601
 4.847 	-0.260 	0.396
 4.928 	-0.126 	0.228
 5.191 	0.354 	-0.169
 5.595 	0.463 	-0.741
 5.620 	0.430 	0.263
 6.083 	1.055 	-0.865
 5.819 	0.579 	0.220
 4.734 	-0.416 	-0.207
 4.609 	-0.381 	-0.005
 5.048 	-0.247 	0.252
 4.772 	0.028 	-0.040
 4.735 	0.360 	-0.006
 5.202 	0.076 	-0.005
 5.195 	-0.102 	0.032
 4.812 	-0.112 	0.082
 4.902 	-1.152 	-0.078
 4.572 	-0.061 	0.905
 4.647 	0.216 	0.400
 4.902 	0.299 	0.171
 5.360 	-0.057 	-0.463
 5.644 	0.288 	-0.049
 5.322 	1.112 	0.373
 5.459 	1.144 	0.108
 7.578 	0.248 	-0.659
 8.067 	0.566 	-0.800
 8.243 	0.911 	-0.251
 7.922 	-0.004 	1.182
 7.371 	0.658 	0.621
 7.075 	1.000 	0.653
 6.578 	0.701 	0.315
 6.161 	0.376 	0.098
 6.655 	0.469 	0.206
 7.114 	0.824 	0.565
 6.788 	1.425 	0.562
 7.162 	2.077 	0.817
 7.266 	1.378 	0.573
 7.605 	1.186 	-0.609
 8.092 	1.812 	-0.354
 7.769 	0.772 	-0.563
 7.208 	-0.365 	-0.605
 6.937 	-0.023 	0.198
 7.515 	1.238 	0.578
 6.068 	-0.080 	0.996
 5.858 	-0.195 	1.432
 6.039 	0.869 	0.177
 6.122 	0.874 	0.039
 5.622 	0.412 	0.847
 6.228 	0.885 	1.309
 6.421 	1.067 	0.769
 6.565 	0.800 	0.540
 7.215 	1.348 	0.573
 7.165 	1.506 	0.473
 7.386 	1.316 	0.414
 7.261 	1.048 	-0.386
 6.951 	0.654 	-0.190
 6.527 	0.164 	0.521
 6.443 	1.060 	0.933
 6.107 	0.834 	1.067
 5.497 	-0.016 	1.204
 5.261 	-0.032 	1.062
 5.771 	1.124 	1.260
 5.851 	1.020 	1.770
 5.755 	1.091 	0.562
 5.908 	-0.236 	0.386
 6.453 	0.137 	0.644
 6.859 	-0.082 	0.004
 7.243 	0.686 	0.352
 6.117 	1.459 	0.266
 5.377 	0.231 	0.805
 6.208 	0.821 	0.277
 6.645 	0.895 	0.023
 6.768 	0.330 	0.913
 5.616 	1.380 	1.327
 5.358 	0.492 	1.209
 5.284 	0.263 	1.270
 5.331 	-0.559 	1.270
 5.414 	-0.357 	0.616
 6.039 	0.185 	0.344
 6.349 	1.179 	0.373
 5.818 	-0.002 	0.864
 6.196 	-0.291 	0.832
 7.109 	0.283 	0.058
 6.658 	0.481 	-0.135
 6.456 	1.477 	-0.076
 6.389 	0.648 	0.345
 6.471 	0.984 	-0.382
 6.054 	0.409 	0.244
 6.582 	0.560 	0.407
 6.504 	1.726 	1.102
 6.331 	0.260 	1.492
 6.814 	-0.302 	0.557
 5.890 	-0.059 	0.783
 5.453 	-0.268 	0.835
 5.088 	-0.221 	0.484
 5.203 	1.121 	1.041
 5.958 	-0.360 	0.571
 6.327 	-1.142 	-0.017
 6.003 	-0.266 	0.108
 6.364 	0.700 	0.075
 6.971 	1.089 	-0.546
 7.282 	0.954 	-0.784
 6.796 	1.267 	-0.396
 6.948 	0.555 	-0.367
 5.230 	-0.320 	1.001
 6.507 	1.374 	1.118
 6.905 	0.772 	1.184
 6.922 	0.542 	0.673
 6.390 	0.339 	0.278
 6.231 	-0.307 	0.558
 6.234 	-0.220 	0.288
 5.992 	0.125 	0.113
 6.262 	-0.792 	-0.058
 6.202 	-0.678 	0.032
 6.241 	-0.317 	0.219
 6.441 	0.540 	-0.220
 6.748 	1.091 	-0.630
 7.139 	1.245 	-0.427
 6.817 	1.280 	-0.583
 7.318 	0.710 	-0.948
 5.637 	-0.252 	0.690
 6.097 	-0.319 	0.745
 6.644 	0.036 	0.377
 6.840 	-0.073 	0.198
 6.591 	0.134 	0.129
 6.513 	-0.093 	0.057
 6.103 	-0.482 	0.189
 6.201 	-0.090 	-0.127
 6.360 	-0.816 	-0.310
 6.012 	-0.813 	-0.271
 6.197 	-0.530 	-0.590
 6.191 	-0.012 	-0.698
 6.941 	0.889 	-0.807
 6.525 	0.997 	-0.352
 6.668 	0.309 	0.105
 7.200 	0.616 	-0.596
 5.890 	0.252 	0.146
 6.027 	-1.263 	0.277
 6.357 	-0.673 	0.753
 6.319 	-0.133 	0.320
 6.409 	0.031 	-0.029
 6.160 	-0.452 	0.074
 5.850 	-0.736 	0.222
 6.003 	-0.666 	-0.055
 6.439 	-0.671 	-0.742
 6.315 	-0.420 	-0.298
 6.100 	-0.445 	-0.253
 6.234 	-0.946 	0.010
 6.301 	0.070 	-0.391
 6.471 	0.838 	-0.349
 7.195 	0.124 	-0.070
 6.501 	0.816 	-0.147
 6.151 	-0.581 	-0.131
 5.620 	-1.326 	0.280
 5.568 	-0.432 	0.337
 6.134 	-0.162 	0.128
 6.030 	0.109 	-0.168
 5.977 	-0.050 	0.041
 5.750 	-0.523 	-0.024
 5.872 	-1.021 	0.026
 6.322 	-1.074 	-0.413
 6.794 	-0.137 	-0.909
 6.609 	0.043 	-0.882
 6.307 	-0.512 	-0.445
 5.849 	0.188 	0.221
 5.794 	0.179 	0.415
 5.943 	0.106 	0.174
 6.379 	0.623 	0.064
 6.422 	-1.176 	0.009
 6.094 	-0.593 	0.060
 5.431 	-0.428 	1.040
 5.330 	0.014 	0.654
 5.488 	0.209 	-0.038
 5.603 	-0.355 	-0.163
 5.822 	-0.767 	-0.193
 6.442 	-0.353 	-0.538
 6.236 	-0.519 	-0.367
 6.016 	-0.296 	-0.138
 6.008 	-0.217 	-0.117
 6.290 	-0.139 	-0.761
 6.403 	0.273 	-0.354
 6.550 	0.033 	-0.159
 6.368 	-0.050 	0.017
 6.255 	0.000 	0.006
 5.997 	-0.619 	0.482
 5.545 	-0.093 	0.356
 6.498 	-0.079 	1.043
 5.502 	0.262 	0.364
 5.719 	0.101 	-0.472
 5.720 	-0.419 	-0.345
 5.344 	-0.648 	0.216
 5.802 	-0.431 	-0.136
 6.050 	0.112 	-0.357
 5.776 	0.023 	-0.227
 5.642 	-0.167 	-0.260
 5.529 	-0.365 	-0.245
 5.296 	0.125 	-0.108
 5.405 	-0.418 	0.068
 5.586 	-0.165 	0.027
 6.453 	-0.004 	-0.433
 6.350 	-0.059 	0.301
 6.233 	0.061 	0.454
 5.888 	0.213 	0.532
 6.043 	-0.044 	0.743
 6.165 	-0.143 	0.301
 6.541 	-0.374 	-0.287
 6.230 	-0.451 	-0.121
 5.937 	-0.430 	-0.182
 5.687 	0.068 	-0.070
 5.881 	-0.181 	-0.036
 5.596 	-0.141 	-0.483
 5.523 	-0.013 	-0.096
 5.897 	0.194 	-0.531
 5.254 	0.676 	0.247
 5.583 	-0.062 	-0.263
 5.403 	0.183 	-0.126
 6.335 	-0.068 	-0.260
 6.105 	0.762 	0.486
 6.125 	0.403 	0.632
 6.098 	0.207 	0.843
 6.216 	-0.396 	0.053
 6.372 	-0.200 	-0.228
 6.420 	-0.180 	-0.250
 6.059 	-0.595 	0.197
 6.073 	-0.395 	-0.257
 6.376 	-0.018 	-0.550
 6.104 	-0.052 	-0.392
 5.800 	0.187 	-0.203
 5.586 	0.316 	-0.354
 5.993 	0.284 	-0.655
 5.593 	0.376 	-0.596
 4.970 	0.663 	0.006
 5.508 	-0.099 	-0.399
 6.086 	0.865 	0.263
 6.385 	0.501 	0.136
 6.328 	-0.116 	0.090
 5.874 	-0.048 	0.092
 5.314 	-0.268 	0.251
 5.317 	-0.404 	0.455
 5.082 	-0.906 	0.288
 5.510 	-0.612 	-0.284
 5.938 	-0.743 	-0.583
 6.359 	-0.204 	-0.437
 6.241 	0.115 	-0.210
 5.835 	0.402 	-0.099
 6.320 	0.531 	-0.602
 5.586 	0.683 	-0.573
 5.280 	1.056 	0.515
 5.815 	-0.158 	0.188
 5.602 	0.675 	0.638
 5.187 	-0.306 	0.484
 5.201 	-0.230 	0.434
 5.140 	0.015 	0.350
 5.112 	-0.156 	0.328
 4.740 	-0.189 	0.596
 4.906 	-0.806 	0.477
 5.101 	-0.560 	0.408
 5.356 	-0.566 	0.421
 5.205 	-0.619 	0.018
 5.471 	0.046 	-0.040
 5.772 	0.326 	-0.211
 5.755 	0.425 	0.099
 5.779 	0.853 	-0.706
 5.323 	1.086 	0.484
 5.452 	-0.118 	0.345
 4.973 	-0.094 	0.499
 5.017 	0.335 	0.803
 5.098 	-0.387 	0.047
 5.018 	-0.575 	0.215
 5.368 	-0.221 	0.126
 5.598 	-0.253 	-0.054
 5.268 	-0.060 	0.156
 4.936 	-0.166 	0.547
 5.155 	-0.303 	0.732
 4.836 	-0.422 	0.316
 4.953 	-0.169 	0.039
 5.609 	-0.134 	-0.147
 5.643 	0.270 	-0.218
 5.925 	0.209 	-0.086
 6.347 	1.090 	-0.338
 7.246 	-0.809 	-0.535
 7.357 	-0.482 	-0.584
 7.477 	-0.027 	0.381
 7.744 	-0.258 	0.970
 7.533 	0.528 	1.018
 7.252 	0.791 	0.835
 7.462 	1.274 	0.650
 7.407 	0.867 	0.573
 7.062 	0.936 	0.516
 7.690 	1.169 	0.459
 7.990 	0.697 	-0.200
 7.781 	1.069 	0.639
 8.032 	1.888 	-0.519
 8.530 	1.437 	-0.617
 8.333 	1.233 	-0.873
 8.483 	1.074 	-0.386
 7.025 	-1.181 	-0.497
 6.401 	-0.003 	0.175
 6.089 	0.267 	2.023
 6.556 	0.284 	1.323
 6.042 	0.168 	1.254
 5.624 	0.149 	1.039
 6.313 	0.570 	0.751
 6.660 	0.916 	0.664
 6.491 	0.992 	0.713
 6.771 	0.200 	0.511
 6.568 	0.583 	0.924
 7.360 	1.572 	0.578
 7.871 	1.878 	0.711
 7.551 	1.447 	0.358
 7.497 	1.252 	0.205
 7.540 	0.951 	0.165
 6.460 	-0.887 	-0.361
 6.688 	0.053 	0.129
 6.326 	-0.014 	1.582
 6.352 	0.609 	1.055
 5.603 	-0.526 	1.635
 5.527 	-0.747 	1.891
 5.848 	-0.463 	1.687
 6.552 	0.449 	0.615
 7.023 	0.504 	0.253
 7.706 	0.500 	-0.301
 7.562 	0.421 	0.106
 7.520 	1.063 	0.508
 6.823 	1.741 	0.773
 6.921 	1.711 	0.601
 6.980 	1.037 	0.411
 7.018 	0.774 	0.120
 6.309 	-0.116 	0.514
 6.218 	0.936 	1.124
 5.829 	0.683 	1.391
 5.567 	0.413 	1.151
 5.603 	0.160 	0.846
 5.760 	-0.086 	0.868
 5.422 	-0.719 	0.909
 6.241 	-0.168 	0.629
 6.549 	0.254 	0.956
 7.767 	1.206 	0.520
 7.719 	0.447 	0.487
 7.243 	1.483 	0.106
 6.909 	2.026 	0.216
 6.967 	1.459 	-0.229
 6.998 	1.043 	0.087
 6.762 	0.866 	-0.009
 5.437 	0.832 	0.264
 5.815 	1.356 	1.004
 6.154 	0.457 	1.271
 6.321 	0.034 	1.186
 6.560 	-0.036 	0.413
 6.445 	0.236 	1.374
 6.229 	-0.257 	0.300
 6.282 	-0.385 	0.713
 6.259 	-0.035 	0.758
 6.735 	-0.527 	0.601
 7.022 	-0.016 	0.487
 6.931 	1.063 	0.315
 7.489 	1.723 	0.128
 7.593 	0.946 	-0.617
 7.391 	0.994 	-0.059
 7.433 	0.934 	-0.159
 4.914 	0.378 	1.412