# vtk DataFile Version 3.0
HighT1
ASCII
DATASET STRUCTURED_POINTS
DIMENSIONS 16 16 19
ORIGIN 929.001000000000 929.001000000000 5.001000000000
SPACING 10.000000000000 10.000000000000 10.000000000000
POINT_DATA 4864
FIELD attributes 1
U 3 4864 float
3.271 	0.322 	0.541
 2.417 	0.439 	0.705
 2.318 	0.334 	0.408
 2.718 	-0.103 	0.001
 3.143 	-0.317 	0.270
 4.271 	0.477 	-0.317
 5.429 	1.604 	-0.209
 4.129 	1.574 	-0.203
 4.691 	0.948 	-0.133
 5.224 	0.276 	-0.239
 4.949 	-0.532 	-0.122
 3.748 	-0.323 	0.310
 3.418 	-0.707 	0.229
 4.008 	-0.390 	0.165
 4.399 	-0.471 	-0.374
 5.369 	0.032 	-0.667
 2.942 	0.466 	-0.164
 3.247 	0.338 	-0.389
 3.766 	-0.345 	-0.037
 4.055 	-0.721 	0.141
 4.143 	-0.831 	-0.114
 3.814 	0.719 	-0.432
 3.371 	1.513 	0.342
 4.172 	1.420 	0.140
 4.618 	1.851 	-0.164
 4.681 	0.273 	-0.272
 4.658 	-0.326 	-0.256
 5.342 	0.394 	0.138
 4.259 	-0.092 	0.423
 4.243 	0.345 	-0.192
 4.592 	-0.174 	-0.435
 3.629 	-0.204 	0.333
 3.899 	0.488 	-0.225
 3.607 	0.734 	-0.058
 2.852 	-0.031 	0.269
 3.490 	0.518 	-0.365
 2.603 	0.279 	0.451
 2.986 	0.556 	0.414
 3.686 	0.821 	0.188
 3.969 	0.617 	-0.283
 4.002 	0.455 	-0.170
 4.306 	0.290 	-0.264
 3.618 	0.189 	0.384
 3.374 	-0.619 	0.400
 3.350 	0.529 	0.372
 3.838 	0.750 	0.085
 3.912 	0.538 	0.244
 3.252 	0.365 	0.131
 3.979 	0.362 	0.133
 4.206 	0.203 	-0.528
 4.159 	-0.440 	-0.107
 3.391 	0.152 	0.224
 3.340 	0.103 	-0.158
 3.540 	0.172 	-0.094
 2.739 	0.164 	0.225
 3.186 	0.653 	-0.059
 2.396 	0.344 	0.343
 2.704 	0.773 	0.260
 3.187 	-0.340 	0.565
 2.932 	-0.812 	0.069
 3.624 	-0.081 	0.041
 3.628 	0.751 	0.193
 3.635 	0.251 	0.075
 3.256 	0.451 	0.155
 3.498 	0.100 	0.149
 3.279 	0.351 	0.177
 2.770 	0.402 	0.223
 3.114 	0.128 	-0.018
 3.368 	0.295 	-0.001
 2.807 	-0.210 	0.267
 2.653 	-0.316 	0.207
 3.109 	-0.183 	-0.087
 2.881 	0.345 	0.372
 3.160 	0.093 	0.281
 2.908 	-0.624 	-0.151
 3.224 	-0.685 	-0.240
 3.211 	0.222 	-0.157
 3.504 	0.550 	-0.211
 3.033 	-0.103 	-0.083
 3.883 	0.619 	0.175
 3.809 	0.158 	-0.181
 3.670 	0.117 	0.070
 4.000 	-0.648 	-0.002
 4.311 	0.125 	-0.096
 4.122 	0.247 	-0.127
 4.278 	-0.126 	-0.129
 4.408 	-0.655 	0.058
 3.629 	-0.471 	0.260
 3.716 	0.069 	-0.081
 4.042 	0.480 	-0.066
 3.734 	-0.023 	-0.078
 3.834 	-0.522 	-0.092
 3.121 	-0.403 	0.402
 3.061 	-0.626 	0.179
 3.916 	-0.282 	0.312
 4.094 	-0.104 	-0.122
 4.682 	0.490 	-0.055
 4.831 	0.451 	-0.187
 4.412 	-0.117 	-0.147
 4.374 	-0.403 	0.087
 4.275 	-0.134 	0.083
 4.648 	-0.309 	-0.160
 4.708 	0.040 	0.041
 4.123 	0.344 	0.173
 3.542 	-0.294 	0.329
 3.780 	0.224 	-0.034
 3.379 	-0.149 	0.186
 3.631 	0.089 	-0.122
 4.261 	0.049 	-0.379
 3.911 	-0.578 	-0.097
 4.112 	-0.656 	-0.347
 4.477 	-0.333 	-0.400
 4.510 	0.629 	0.017
 4.711 	0.239 	-0.224
 4.209 	0.403 	0.224
 3.156 	-0.411 	0.256
 3.778 	-0.290 	-0.357
 4.231 	0.206 	-0.573
 4.499 	0.690 	-0.274
 3.103 	0.580 	0.145
 2.880 	0.120 	-0.018
 3.275 	0.173 	-0.282
 3.719 	-0.530 	-0.146
 3.880 	-0.137 	-0.362
 4.363 	0.298 	-0.553
 4.580 	-0.298 	-0.240
 4.236 	-0.572 	0.212
 4.065 	-0.518 	-0.469
 3.829 	0.354 	0.362
 3.768 	0.669 	0.266
 4.089 	0.511 	-0.164
 4.555 	-0.135 	-0.235
 4.153 	0.051 	0.222
 2.131 	0.469 	0.510
 2.952 	1.059 	0.024
 3.804 	0.951 	-0.258
 4.097 	0.475 	-0.261
 4.420 	0.156 	-0.264
 4.177 	-0.281 	0.017
 3.812 	-0.255 	0.139
 3.975 	-0.449 	-0.026
 4.345 	-0.299 	-0.057
 4.070 	0.167 	0.298
 4.231 	-0.052 	-0.340
 3.595 	0.410 	0.218
 3.989 	0.356 	-0.144
 4.134 	0.209 	-0.328
 4.374 	0.184 	0.079
 4.213 	0.606 	0.122
 4.399 	1.106 	0.007
 3.601 	0.457 	-0.036
 3.834 	0.898 	0.049
 4.228 	1.169 	-0.314
 4.434 	0.499 	-0.176
 4.513 	-0.216 	-0.223
 3.965 	-0.205 	0.153
 3.597 	-0.627 	0.213
 3.428 	0.003 	0.286
 3.379 	0.239 	-0.100
 3.641 	-0.249 	0.034
 3.602 	-0.439 	-0.302
 3.277 	-0.070 	0.381
 3.139 	-0.234 	0.027
 3.385 	-0.208 	0.113
 3.921 	0.746 	0.105
 4.146 	0.613 	-0.028
 4.319 	0.575 	-0.029
 4.209 	0.437 	-0.116
 4.221 	0.741 	0.041
 4.221 	0.447 	-0.213
 3.969 	0.523 	-0.189
 4.067 	0.309 	-0.193
 3.974 	0.505 	-0.132
 3.719 	-0.069 	-0.137
 3.058 	-0.068 	-0.036
 3.461 	-0.266 	0.104
 2.647 	-0.472 	0.433
 3.461 	0.369 	-0.016
 2.839 	-0.293 	-0.004
 2.860 	-0.441 	-0.097
 3.331 	0.581 	0.065
 2.758 	0.100 	0.296
 2.966 	0.313 	0.239
 2.704 	-0.352 	0.201
 3.118 	-0.055 	0.047
 3.221 	0.552 	0.086
 3.130 	0.368 	0.066
 2.861 	0.213 	0.299
 2.987 	0.296 	0.369
 3.392 	0.033 	0.195
 3.938 	-0.161 	-0.008
 4.064 	0.083 	-0.011
 3.741 	-0.322 	-0.109
 3.943 	-0.583 	0.023
 3.725 	-0.283 	0.569
 3.199 	-0.383 	0.096
 2.628 	0.428 	0.528
 3.431 	-0.233 	-0.039
 3.844 	-0.623 	0.066
 3.407 	-0.532 	0.164
 2.393 	0.049 	-0.016
 2.106 	-0.123 	0.614
 2.391 	0.567 	0.226
 3.075 	0.156 	0.305
 3.589 	-0.287 	-0.249
 3.629 	-0.440 	-0.171
 3.503 	-0.208 	0.140
 3.297 	0.295 	0.200
 4.013 	-0.378 	-0.183
 3.944 	-0.487 	-0.080
 3.865 	-0.617 	-0.277
 3.821 	0.253 	0.012
 3.958 	0.343 	-0.015
 4.405 	0.173 	-0.378
 3.092 	-0.521 	0.303
 2.886 	-0.679 	0.012
 3.511 	-0.402 	-0.196
 3.762 	-0.075 	-0.217
 3.587 	0.184 	-0.031
 4.081 	0.048 	-0.352
 4.042 	-0.034 	-0.247
 4.188 	0.222 	-0.048
 4.065 	-0.358 	0.165
 4.218 	-0.420 	-0.056
 4.700 	0.786 	-0.312
 4.038 	0.101 	0.181
 2.745 	-0.293 	0.258
 3.104 	-0.228 	-0.062
 3.436 	0.076 	-0.003
 3.408 	0.457 	-0.073
 4.113 	-0.127 	-0.153
 3.934 	-0.375 	-0.031
 3.453 	-0.071 	0.103
 3.258 	-0.445 	0.116
 3.393 	0.258 	-0.104
 3.515 	0.336 	0.019
 3.555 	0.057 	-0.037
 4.176 	0.505 	-0.109
 3.703 	-0.116 	-0.040
 2.784 	-0.409 	0.174
 3.152 	-0.052 	0.046
 3.396 	0.238 	0.032
 3.439 	-0.397 	0.104
 3.276 	-0.480 	0.250
 2.935 	-0.407 	0.051
 3.284 	0.251 	-0.018
 3.475 	0.075 	-0.072
 2.978 	-0.074 	0.257
 3.312 	0.009 	-0.336
 2.506 	0.246 	0.236
 2.537 	0.089 	0.179
 2.669 	-0.020 	-0.053
 3.179 	0.293 	0.142
 3.173 	0.294 	0.134
 3.087 	0.119 	0.173
 3.103 	0.063 	-0.152
 5.647 	1.514 	0.435
 5.257 	0.485 	0.566
 4.814 	0.097 	0.247
 4.611 	0.355 	0.101
 4.687 	0.201 	0.555
 5.263 	-0.237 	0.379
 5.363 	0.496 	0.054
 5.073 	0.868 	0.400
 5.369 	1.691 	0.322
 5.981 	1.468 	-0.003
 6.323 	1.132 	-0.446
 5.227 	0.033 	0.239
 5.843 	0.488 	0.017
 5.973 	-0.561 	-0.552
 6.366 	-0.371 	-0.015
 5.831 	-0.633 	-0.047
 5.281 	0.903 	0.289
 6.044 	0.231 	-0.054
 6.550 	0.134 	-0.298
 6.286 	0.568 	-0.272
 5.655 	0.409 	-0.783
 4.847 	-0.874 	0.054
 4.809 	0.425 	0.173
 5.018 	0.691 	0.002
 5.454 	0.321 	0.241
 5.517 	1.168 	0.394
 5.664 	1.037 	0.148
 5.770 	0.532 	-0.024
 5.776 	0.268 	-0.192
 5.937 	0.401 	-0.531
 4.735 	-0.568 	-0.362
 5.038 	-0.474 	-0.790
 5.530 	0.124 	0.509
 4.491 	0.398 	0.550
 4.590 	0.136 	0.302
 5.183 	1.062 	-0.008
 5.398 	0.485 	-0.255
 5.248 	0.195 	0.417
 5.492 	-0.312 	-0.155
 5.534 	0.964 	-0.256
 5.440 	0.093 	-0.334
 5.648 	0.648 	-0.121
 5.063 	0.414 	0.023
 5.528 	0.756 	0.224
 4.412 	0.463 	0.056
 4.576 	0.199 	-0.006
 4.291 	0.126 	-0.084
 5.067 	0.015 	0.231
 4.924 	0.314 	0.491
 4.566 	0.230 	0.508
 3.703 	-0.026 	0.486
 4.079 	0.219 	-0.022
 4.557 	0.221 	-0.008
 5.094 	0.664 	0.112
 4.729 	-0.149 	0.092
 4.588 	0.580 	-0.163
 3.429 	0.079 	0.899
 3.492 	0.854 	0.417
 3.816 	0.598 	0.604
 4.677 	0.370 	-0.206
 4.339 	0.765 	-0.086
 3.736 	-0.206 	0.155
 4.297 	-0.286 	0.119
 4.382 	-0.103 	-0.650
 4.963 	-0.293 	0.442
 5.141 	-0.105 	0.029
 4.179 	-0.066 	0.346
 3.768 	0.228 	0.372
 3.884 	0.156 	0.204
 3.726 	0.802 	0.333
 3.591 	-0.215 	0.400
 4.246 	0.152 	0.658
 4.259 	0.022 	0.021
 4.360 	0.503 	-0.328
 4.359 	0.326 	0.113
 4.139 	0.045 	0.067
 4.397 	0.351 	-0.119
 4.581 	-0.361 	0.140
 4.514 	-0.056 	0.376
 4.040 	0.596 	0.286
 5.101 	0.187 	-0.010
 5.365 	-0.429 	0.592
 5.481 	-0.223 	0.083
 5.341 	-0.205 	0.033
 5.698 	0.124 	0.031
 5.684 	0.111 	-0.040
 4.544 	-0.402 	0.091
 4.421 	-0.591 	0.500
 4.841 	0.169 	0.342
 4.478 	0.659 	0.397
 4.772 	0.446 	-0.340
 4.798 	0.230 	-0.012
 4.123 	-0.012 	0.344
 4.506 	-0.294 	0.200
 4.284 	-0.592 	0.387
 4.293 	0.271 	0.635
 5.169 	0.040 	-0.285
 5.620 	-0.349 	0.010
 5.396 	-0.335 	-0.125
 5.438 	-0.293 	-0.779
 5.973 	0.144 	-0.017
 6.209 	0.162 	-0.666
 5.657 	0.060 	-0.450
 5.154 	0.000 	0.420
 5.082 	-0.301 	0.354
 4.506 	0.382 	0.393
 4.517 	-0.104 	0.444
 4.943 	0.568 	-0.395
 5.400 	0.866 	-0.752
 5.175 	-0.092 	-0.457
 4.874 	-0.656 	-0.139
 5.098 	-0.003 	-0.028
 4.453 	-0.332 	0.243
 4.879 	-0.173 	-0.334
 5.289 	-0.005 	-0.701
 5.104 	-0.537 	-0.168
 5.498 	-0.013 	-0.473
 5.449 	0.194 	-0.353
 5.550 	0.819 	0.121
 5.384 	0.157 	-0.113
 5.153 	0.175 	-0.449
 5.296 	0.224 	-0.052
 4.956 	-0.002 	0.094
 4.719 	0.460 	0.015
 4.281 	0.307 	-0.059
 4.839 	0.091 	-0.206
 4.650 	-0.423 	-0.053
 4.895 	-0.155 	-0.269
 3.850 	-0.932 	0.122
 3.543 	-0.767 	0.092
 3.918 	0.074 	0.461
 4.611 	-1.068 	-0.285
 4.901 	0.051 	0.344
 5.150 	-0.068 	0.219
 4.979 	0.470 	-0.389
 4.828 	0.073 	-0.359
 4.932 	-0.218 	-0.495
 4.824 	-0.074 	-0.590
 4.771 	0.537 	0.271
 4.417 	0.313 	0.207
 4.404 	-0.358 	0.723
 4.492 	-0.424 	-0.031
 4.678 	-0.688 	-0.099
 5.370 	-0.850 	-0.676
 4.355 	-0.728 	0.468
 3.534 	-0.811 	0.351
 3.956 	-0.633 	0.251
 3.890 	-1.431 	-0.100
 4.161 	-0.026 	-0.022
 4.181 	0.292 	-0.205
 4.418 	-0.077 	-0.011
 4.698 	0.295 	0.404
 4.280 	0.202 	-0.188
 4.528 	0.372 	-0.681
 4.846 	0.666 	-0.433
 4.792 	0.175 	-0.284
 4.890 	0.046 	-0.070
 4.594 	-0.271 	0.075
 4.501 	-0.605 	-0.249
 4.597 	-0.397 	0.011
 4.829 	-0.325 	0.062
 4.492 	-0.026 	0.016
 4.048 	-0.607 	-0.156
 4.431 	-0.784 	-0.290
 4.114 	-0.293 	-0.153
 4.060 	0.229 	0.451
 4.118 	-0.331 	0.515
 3.997 	-0.459 	0.615
 4.265 	0.354 	0.478
 3.826 	0.188 	-0.187
 4.209 	0.626 	0.228
 4.485 	0.476 	-0.006
 4.931 	0.550 	-0.354
 5.028 	0.048 	-0.332
 4.771 	0.208 	-0.813
 4.795 	0.038 	0.012
 3.767 	-0.266 	-0.088
 4.186 	-0.159 	0.340
 4.392 	-0.590 	0.191
 3.911 	-0.980 	0.296
 3.978 	-0.202 	0.111
 3.570 	0.380 	0.257
 2.897 	-0.174 	0.247
 3.310 	-0.649 	0.127
 3.253 	0.038 	0.594
 3.260 	-0.170 	0.642
 3.677 	0.901 	0.083
 4.257 	0.662 	-0.448
 4.266 	0.277 	-0.482
 4.362 	0.213 	-0.042
 4.495 	0.584 	0.089
 4.568 	-0.087 	-0.017
 5.643 	0.826 	-0.940
 5.434 	0.188 	0.263
 5.375 	-0.880 	0.290
 4.599 	-0.911 	0.125
 3.719 	0.401 	0.143
 3.551 	0.518 	0.382
 3.599 	-0.229 	0.422
 3.943 	0.303 	0.075
 3.214 	-0.075 	0.327
 3.239 	0.064 	0.560
 3.587 	0.211 	-0.134
 3.862 	0.654 	-0.127
 4.224 	0.959 	-0.134
 4.394 	0.860 	-0.826
 4.643 	0.670 	-0.421
 4.797 	0.075 	0.057
 5.346 	0.671 	-0.186
 4.603 	-0.014 	0.156
 4.564 	0.071 	0.306
 3.965 	-0.293 	-0.043
 4.144 	-0.320 	-0.129
 4.481 	-0.066 	-0.246
 4.315 	-0.091 	-0.002
 4.530 	-0.319 	-0.006
 4.005 	-0.054 	0.312
 3.815 	-0.507 	0.116
 4.065 	-0.228 	0.146
 4.077 	0.547 	-0.187
 4.089 	1.005 	-0.254
 4.335 	0.769 	-0.564
 4.707 	0.366 	-0.114
 4.603 	0.325 	-0.082
 5.311 	0.801 	-0.008
 4.558 	0.364 	0.130
 4.332 	-0.079 	0.348
 4.213 	0.109 	0.102
 4.368 	-0.475 	0.008
 4.304 	-0.341 	-0.131
 4.227 	-0.205 	-0.048
 4.170 	-0.220 	-0.032
 4.014 	-0.093 	0.140
 3.633 	-0.536 	0.127
 3.531 	-0.603 	0.004
 3.567 	-0.354 	0.241
 3.900 	0.421 	0.263
 4.359 	0.158 	0.195
 4.532 	0.286 	0.162
 4.811 	0.354 	-0.176
 3.820 	0.095 	0.700
 4.164 	0.451 	0.534
 4.242 	-0.339 	0.179
 4.241 	-0.194 	-0.152
 4.082 	-0.814 	0.123
 4.322 	-0.365 	0.090
 4.223 	0.033 	-0.292
 3.838 	-0.023 	-0.183
 3.367 	-0.465 	0.263
 3.405 	-0.529 	0.170
 3.239 	-0.933 	0.425
 3.660 	-1.177 	0.353
 3.653 	-0.845 	0.209
 3.757 	-0.966 	-0.363
 4.330 	0.382 	-0.276
 4.681 	0.926 	-0.328
 5.903 	0.174 	0.620
 5.560 	-0.032 	0.243
 5.161 	1.354 	0.674
 5.883 	0.759 	0.109
 6.915 	0.289 	0.045
 6.919 	-0.315 	-0.118
 6.121 	-0.190 	-0.003
 5.877 	0.001 	0.572
 6.855 	0.993 	0.217
 6.621 	1.963 	0.750
 7.407 	0.925 	-0.058
 5.716 	1.405 	0.248
 5.576 	1.749 	-0.338
 5.760 	1.784 	-0.850
 6.379 	1.016 	-0.713
 6.419 	0.471 	-0.415
 6.731 	0.200 	0.272
 6.703 	0.947 	0.169
 7.049 	0.631 	-0.371
 6.715 	1.044 	-0.165
 6.969 	0.098 	-0.731
 6.949 	0.445 	-0.303
 6.887 	0.709 	0.408
 7.143 	-0.088 	0.314
 6.428 	0.739 	1.005
 6.670 	1.510 	0.505
 6.054 	1.130 	0.431
 6.370 	0.928 	0.242
 6.376 	0.795 	0.206
 6.363 	1.323 	-0.202
 6.498 	0.860 	-0.100
 6.269 	0.420 	-0.577
 5.824 	0.599 	0.544
 7.013 	0.598 	0.080
 7.492 	0.766 	-0.291
 7.031 	0.975 	0.100
 6.878 	0.653 	-0.225
 6.168 	0.041 	0.565
 6.442 	0.470 	0.743
 5.739 	0.109 	0.583
 5.078 	-0.284 	0.736
 5.269 	0.435 	0.049
 6.207 	1.495 	0.240
 5.795 	1.008 	0.227
 5.356 	1.119 	0.225
 5.219 	0.562 	0.667
 5.043 	0.326 	-0.591
 4.347 	0.162 	-0.204
 5.155 	1.067 	0.695
 5.392 	0.241 	0.582
 6.128 	0.902 	0.793
 6.365 	1.238 	-0.065
 5.819 	1.176 	0.231
 5.193 	0.140 	1.041
 4.753 	0.205 	0.464
 4.798 	-0.107 	0.255
 4.608 	-0.415 	0.448
 3.688 	0.363 	0.766
 3.975 	-0.196 	0.725
 5.237 	0.446 	-0.045
 4.805 	0.677 	0.386
 5.558 	0.961 	0.109
 5.247 	0.555 	-0.838
 5.057 	0.834 	-0.266
 5.990 	0.170 	0.841
 6.022 	0.325 	0.235
 5.446 	-0.097 	0.605
 5.480 	1.115 	-0.232
 5.890 	1.442 	0.582
 5.197 	0.339 	1.180
 4.980 	-0.161 	0.503
 4.825 	-0.136 	0.450
 4.628 	-0.031 	0.559
 4.944 	-0.054 	0.530
 4.548 	0.017 	0.322
 4.119 	-0.024 	0.642
 4.521 	0.320 	0.769
 4.336 	0.659 	0.698
 4.590 	0.573 	0.464
 4.951 	0.423 	-0.178
 5.936 	-0.040 	0.158
 5.830 	-0.007 	0.926
 6.030 	0.730 	0.510
 5.276 	0.728 	0.372
 5.407 	0.459 	0.411
 5.660 	0.206 	0.560
 5.897 	-0.265 	0.356
 5.130 	-0.135 	0.546
 5.442 	0.049 	0.023
 5.708 	-0.933 	0.152
 5.794 	-0.230 	-0.201
 5.775 	0.218 	-0.484
 4.856 	0.094 	0.366
 4.455 	0.858 	-0.158
 4.388 	0.350 	0.176
 4.141 	-0.216 	0.856
 6.411 	0.168 	-0.011
 5.822 	0.470 	0.193
 5.174 	0.661 	0.244
 5.500 	-0.213 	-0.222
 6.033 	0.030 	0.003
 6.208 	-0.185 	-0.462
 5.554 	0.164 	0.250
 5.586 	0.287 	0.429
 5.073 	-0.336 	0.255
 5.631 	-0.427 	0.098
 5.576 	-0.046 	-0.104
 5.302 	-0.132 	-0.136
 5.869 	0.151 	-0.310
 5.624 	0.460 	-0.044
 5.312 	0.719 	-0.432
 4.884 	0.408 	-0.652
 4.953 	0.137 	0.255
 5.577 	0.351 	0.196
 4.745 	-0.295 	0.298
 4.973 	-1.153 	0.246
 5.237 	-0.362 	-0.323
 5.431 	-0.252 	-0.249
 5.468 	0.214 	-0.067
 5.487 	0.128 	0.255
 5.633 	-0.045 	-0.275
 5.689 	0.195 	-0.140
 5.145 	0.141 	0.227
 5.233 	-0.202 	-0.251
 5.049 	0.115 	-0.128
 5.274 	0.787 	0.019
 5.095 	1.188 	-0.094
 5.467 	0.683 	-0.215
 4.393 	-1.187 	1.304
 4.115 	-1.157 	0.574
 4.263 	-0.616 	0.166
 5.057 	-0.933 	-0.430
 4.535 	-0.591 	0.395
 4.657 	-0.068 	0.079
 4.605 	0.007 	0.396
 5.209 	0.235 	0.114
 5.313 	0.234 	-0.236
 5.032 	0.121 	-0.322
 4.858 	0.074 	-0.029
 4.702 	0.339 	0.132
 4.446 	0.265 	0.522
 4.714 	0.775 	0.076
 5.104 	0.944 	-0.342
 5.025 	0.218 	-0.276
 5.323 	-1.160 	0.026
 5.476 	-0.720 	0.502
 5.802 	-1.025 	-0.076
 5.075 	-0.547 	-0.152
 4.379 	-1.004 	0.098
 4.124 	-0.440 	0.584
 3.796 	-0.603 	0.240
 4.202 	-0.635 	0.131
 4.884 	-0.816 	-0.623
 5.328 	-0.109 	-0.950
 5.053 	0.330 	-0.493
 5.022 	0.665 	-0.154
 4.593 	0.716 	-0.370
 4.439 	0.904 	-0.403
 5.126 	0.785 	-0.907
 5.589 	0.386 	-0.772
 6.246 	-0.537 	-0.126
 6.245 	-0.915 	0.219
 5.890 	-0.695 	-0.168
 5.567 	-0.457 	0.076
 4.854 	-0.674 	-0.344
 3.770 	-0.245 	0.759
 3.046 	-0.384 	0.563
 3.345 	-0.609 	0.348
 4.238 	-1.490 	0.300
 4.479 	-0.237 	-0.180
 4.622 	0.460 	-0.773
 5.014 	0.631 	-0.463
 5.067 	0.556 	-0.418
 5.329 	0.822 	-0.822
 5.406 	0.005 	-0.745
 5.381 	0.657 	-0.246
 6.100 	0.035 	-0.215
 5.324 	-0.351 	0.597
 5.242 	0.013 	0.196
 4.808 	-0.212 	0.635
 4.857 	-0.569 	0.491
 4.434 	-0.010 	0.325
 3.919 	-0.546 	0.355
 4.034 	-0.392 	0.164
 3.812 	-0.194 	0.066
 4.048 	-0.300 	1.281
 4.233 	0.136 	-0.218
 4.611 	1.035 	-0.575
 4.608 	0.346 	-0.535
 5.075 	0.695 	-0.600
 4.819 	-0.025 	-0.160
 4.426 	0.342 	0.419
 5.642 	-0.673 	-0.835
 6.470 	0.361 	-0.370
 6.420 	0.089 	-0.094
 6.232 	0.387 	-0.022
 5.614 	-0.337 	0.209
 4.943 	-0.413 	0.700
 4.987 	-0.853 	0.554
 4.475 	-0.578 	0.070
 4.780 	0.322 	0.331
 5.071 	-0.102 	-0.132
 4.872 	0.150 	0.334
 4.702 	0.702 	-0.282
 5.240 	0.351 	-0.785
 5.404 	0.326 	-0.941
 5.147 	0.540 	-0.576
 4.573 	0.299 	0.053
 5.069 	-0.745 	-0.025
 5.246 	0.264 	0.123
 5.841 	0.423 	0.552
 6.017 	0.572 	-0.138
 6.086 	0.321 	0.199
 5.867 	0.088 	0.618
 4.960 	-0.634 	-0.009
 4.056 	0.120 	0.307
 3.930 	0.199 	0.745
 4.693 	0.644 	0.589
 4.825 	0.164 	0.477
 4.757 	0.046 	0.257
 5.013 	0.394 	0.040
 5.175 	0.373 	-0.304
 5.031 	0.492 	-0.332
 5.326 	0.510 	-0.212
 4.625 	-0.211 	0.036
 4.506 	0.128 	0.715
 4.838 	0.176 	0.583
 4.984 	-0.096 	0.463
 5.086 	-0.238 	-0.033
 5.480 	-0.067 	-0.018
 4.683 	0.341 	-0.171
 4.424 	0.108 	-0.194
 4.215 	-0.011 	0.230
 4.343 	-0.232 	0.050
 4.408 	-0.031 	0.132
 4.149 	-0.218 	0.346
 4.241 	-0.001 	0.458
 4.625 	0.367 	0.259
 4.618 	0.840 	0.033
 5.018 	0.384 	0.047
 4.168 	-0.270 	0.145
 4.527 	0.403 	0.893
 4.337 	-0.273 	0.466
 4.192 	-0.492 	0.234
 4.420 	-0.388 	0.225
 4.671 	0.054 	0.260
 4.773 	0.596 	-0.283
 4.787 	0.380 	0.040
 4.966 	-0.097 	0.145
 4.366 	-0.364 	0.432
 4.452 	0.128 	0.181
 4.309 	0.208 	0.019
 3.831 	-0.223 	0.744
 4.077 	0.271 	0.524
 4.385 	0.120 	0.746
 5.273 	0.350 	-0.297
 5.828 	0.455 	0.357
 6.110 	0.562 	0.369
 6.213 	1.081 	0.470
 6.898 	0.728 	0.013
 7.004 	-0.616 	-0.908
 7.965 	0.248 	-0.143
 6.967 	-0.311 	-0.553
 7.029 	-0.103 	0.453
 7.640 	0.829 	0.467
 7.187 	1.128 	0.437
 7.383 	0.967 	0.013
 6.669 	0.952 	0.645
 6.436 	1.613 	0.735
 6.552 	1.380 	0.388
 7.090 	1.839 	-0.757
 6.942 	1.447 	-0.134
 6.809 	0.401 	0.014
 6.996 	0.401 	0.219
 7.389 	0.386 	-0.308
 7.212 	0.519 	-0.290
 6.497 	-0.049 	-0.697
 5.449 	0.070 	0.339
 5.588 	-0.095 	-0.174
 5.722 	-0.212 	0.996
 5.818 	0.700 	1.208
 6.468 	0.443 	0.654
 6.617 	1.260 	0.491
 6.090 	0.818 	0.793
 6.595 	0.623 	0.517
 6.252 	0.237 	-0.317
 6.159 	0.606 	-0.235
 6.741 	0.587 	-0.065
 6.768 	0.765 	-0.369
 6.843 	0.240 	-0.599
 7.154 	0.527 	-0.932
 6.793 	0.831 	-0.393
 7.328 	0.624 	-0.131
 6.362 	-0.087 	0.955
 5.486 	0.166 	1.109
 5.407 	-0.392 	0.917
 5.154 	0.210 	0.554
 5.343 	0.882 	0.644
 5.905 	0.678 	0.676
 5.514 	0.293 	0.934
 5.316 	-0.556 	0.609
 5.546 	0.561 	0.513
 5.888 	0.282 	0.364
 5.846 	0.604 	0.178
 6.681 	0.695 	0.761
 7.309 	1.275 	0.328
 7.274 	0.813 	0.570
 7.176 	0.982 	0.253
 7.218 	1.162 	0.651
 6.229 	0.568 	1.293
 5.117 	0.202 	0.830
 4.505 	0.148 	0.631
 4.176 	-0.050 	0.683
 4.499 	-0.020 	0.644
 4.632 	0.087 	0.838
 5.056 	-0.005 	0.083
 4.797 	-0.149 	0.628
 5.141 	-0.283 	0.251
 5.789 	0.083 	-0.282
 5.933 	0.955 	-0.275
 6.106 	-0.007 	0.345
 6.424 	1.154 	1.480
 6.725 	1.025 	0.771
 7.580 	1.125 	0.062
 6.715 	1.543 	1.503
 5.612 	0.702 	1.242
 5.664 	0.253 	0.995
 5.017 	-0.124 	0.848
 5.134 	0.318 	0.166
 5.114 	-0.010 	0.644
 4.779 	-0.318 	1.002
 4.870 	-0.255 	1.028
 4.955 	-0.232 	0.649
 5.489 	-0.783 	0.167
 5.545 	-0.370 	0.429
 5.453 	0.090 	-0.068
 6.157 	0.301 	-0.372
 6.274 	0.607 	0.105
 6.608 	-0.279 	-0.035
 6.248 	1.477 	0.576
 6.479 	1.627 	0.739
 6.876 	0.507 	0.594
 6.256 	0.235 	0.579
 5.920 	-0.115 	0.758
 5.603 	0.018 	0.549
 5.866 	-0.501 	-0.031
 5.823 	-0.252 	0.137
 5.503 	-0.603 	-0.178
 6.039 	-0.089 	0.156
 6.067 	-0.335 	-0.426
 5.551 	0.026 	0.690
 6.144 	0.049 	-0.075
 5.707 	0.160 	0.462
 6.107 	0.620 	0.195
 6.007 	0.449 	0.693
 5.479 	0.648 	0.556
 5.858 	0.615 	0.218
 6.554 	0.544 	-0.337
 6.330 	-0.034 	0.266
 6.274 	-0.181 	0.045
 6.483 	0.086 	-0.182
 6.225 	-0.167 	0.254
 6.095 	-0.138 	-0.407
 5.675 	-0.591 	-0.497
 5.960 	-0.139 	-0.318
 6.135 	0.015 	0.018
 6.157 	-0.137 	-0.801
 6.518 	0.245 	-1.016
 4.335 	-0.283 	1.207
 4.859 	0.007 	1.008
 5.609 	0.772 	1.041
 5.361 	-0.039 	0.484
 6.026 	-0.550 	-0.115
 5.901 	-0.592 	0.244
 6.089 	-0.085 	0.224
 6.077 	0.070 	0.130
 6.051 	0.101 	-0.352
 6.034 	0.186 	0.154
 5.557 	0.137 	0.124
 5.495 	-0.332 	-0.316
 5.379 	-0.390 	-0.263
 4.921 	-0.455 	-0.301
 5.687 	-0.423 	-0.156
 5.974 	0.558 	-0.148
 4.554 	-0.375 	0.165
 4.682 	-0.295 	0.196
 5.348 	0.154 	0.017
 5.254 	-0.313 	0.105
 5.509 	-1.317 	0.284
 6.417 	-0.533 	-0.295
 5.972 	-0.434 	0.103
 5.428 	0.037 	-0.233
 5.184 	0.023 	-0.329
 5.251 	0.150 	-0.202
 5.476 	-0.033 	0.303
 5.129 	0.259 	0.065
 5.031 	0.130 	0.025
 5.834 	0.059 	-0.436
 6.298 	-0.115 	-0.909
 5.787 	0.185 	-0.181
 4.818 	-0.051 	0.104
 5.228 	-0.206 	-0.347
 5.137 	-0.756 	0.189
 5.697 	-0.468 	0.043
 5.548 	-1.016 	-0.341
 4.523 	-1.096 	1.178
 4.567 	-0.279 	0.359
 4.802 	0.150 	-0.039
 5.137 	0.039 	-0.028
 5.050 	-0.244 	-0.048
 5.282 	-0.182 	-0.383
 5.515 	0.613 	0.011
 5.798 	0.528 	-0.369
 5.659 	-0.245 	-0.366
 5.867 	-0.103 	-0.557
 6.432 	0.449 	-0.631
 5.847 	-0.049 	0.076
 6.367 	0.236 	-0.758
 6.449 	-0.462 	0.235
 5.673 	-0.679 	0.211
 4.972 	0.048 	0.424
 5.012 	-0.466 	1.177
 4.769 	-0.612 	0.379
 5.207 	-0.323 	-0.272
 5.243 	0.117 	-0.467
 5.452 	-0.820 	-0.317
 5.113 	-0.325 	-0.380
 5.476 	0.084 	-0.340
 5.413 	0.127 	-0.385
 5.550 	-0.144 	-0.299
 4.903 	-0.356 	-0.132
 4.880 	-0.395 	-0.161
 6.628 	0.003 	0.117
 6.540 	-0.472 	0.041
 5.952 	-0.311 	0.353
 5.631 	0.069 	0.321
 5.504 	-0.294 	0.700
 5.539 	-0.323 	0.910
 4.828 	-0.464 	0.685
 4.825 	-0.158 	0.197
 5.339 	-0.378 	-0.091
 5.511 	-0.166 	0.100
 5.175 	-0.732 	0.604
 5.530 	-0.283 	-0.610
 5.623 	-0.155 	-0.302
 5.208 	-0.241 	-0.053
 5.395 	0.117 	-0.432
 4.564 	0.141 	0.018
 6.176 	-0.999 	0.011
 6.058 	-0.702 	-0.617
 5.777 	0.278 	-0.249
 6.565 	0.172 	-0.235
 5.833 	0.224 	0.188
 5.882 	-0.208 	0.822
 5.468 	-0.004 	0.840
 5.898 	-0.442 	-0.011
 5.974 	-0.566 	0.026
 6.002 	-0.623 	-0.561
 5.449 	-0.358 	0.365
 5.778 	0.000 	-0.206
 5.989 	0.078 	-0.855
 6.011 	-0.006 	-0.401
 5.474 	0.282 	-0.438
 5.389 	0.792 	-0.152
 5.149 	-0.603 	-0.115
 4.658 	-0.477 	-0.071
 5.036 	-0.594 	-0.158
 5.692 	-0.248 	-0.569
 6.316 	0.723 	0.321
 6.705 	0.192 	0.687
 6.242 	-0.095 	-0.012
 6.140 	-0.285 	-0.196
 5.680 	-0.572 	0.599
 4.968 	-0.165 	0.271
 5.121 	0.454 	0.121
 5.409 	-0.385 	-0.017
 5.490 	-0.221 	-0.112
 6.013 	0.145 	-0.543
 5.863 	0.330 	-0.282
 5.573 	0.543 	-0.237
 4.702 	-0.333 	0.123
 4.267 	-0.671 	0.453
 4.416 	-0.722 	0.987
 5.041 	-0.474 	1.212
 5.827 	0.532 	0.702
 5.829 	0.329 	0.320
 6.451 	0.267 	-0.261
 5.936 	0.449 	0.022
 4.983 	-0.205 	0.424
 4.408 	-0.371 	0.789
 4.513 	-0.314 	0.671
 4.851 	-0.833 	0.673
 4.833 	-0.103 	0.383
 4.918 	-0.168 	0.350
 4.892 	0.305 	-0.041
 5.494 	0.499 	-0.332
 4.614 	-0.221 	0.429
 4.665 	0.103 	0.217
 4.457 	0.037 	-0.021
 4.361 	-0.420 	0.064
 4.361 	-0.573 	-0.054
 4.983 	-0.330 	0.020
 4.704 	0.032 	-0.015
 4.789 	0.340 	0.079
 5.219 	0.037 	-0.007
 5.182 	-0.077 	0.167
 4.976 	-0.223 	0.189
 4.897 	-0.826 	-0.014
 4.316 	-0.163 	1.153
 4.451 	0.101 	0.443
 5.045 	0.146 	0.612
 5.201 	-0.128 	-0.532
 6.894 	0.483 	0.266
 6.653 	-0.096 	0.039
 7.433 	0.023 	0.139
 7.365 	0.506 	-0.004
 7.207 	0.104 	-0.450
 8.238 	0.170 	-0.481
 8.324 	1.171 	-0.403
 8.231 	0.347 	0.774
 7.887 	0.655 	0.589
 6.686 	0.873 	0.933
 7.002 	0.726 	0.374
 6.973 	0.873 	0.332
 7.312 	0.871 	0.528
 7.283 	0.806 	0.880
 7.623 	1.416 	-0.035
 7.068 	1.713 	-0.418
 6.787 	0.904 	0.303
 7.017 	-0.198 	-0.180
 6.605 	-0.197 	-0.175
 7.181 	0.714 	-0.270
 7.293 	-0.213 	0.165
 7.275 	-0.178 	0.115
 7.081 	1.078 	0.279
 6.316 	-0.331 	1.278
 6.182 	0.787 	0.837
 6.398 	0.891 	0.826
 5.724 	0.222 	0.262
 6.667 	1.151 	1.317
 6.590 	0.257 	1.074
 6.546 	0.575 	0.732
 6.659 	0.935 	0.697
 7.281 	1.642 	0.800
 7.088 	0.361 	-0.250
 6.511 	-0.441 	-0.728
 6.471 	-0.486 	-0.375
 6.460 	-0.633 	-0.532
 6.577 	0.444 	0.566
 5.629 	0.380 	1.289
 5.530 	0.234 	1.232
 5.219 	-0.420 	0.955
 5.605 	0.998 	1.027
 5.459 	0.550 	1.361
 5.717 	0.767 	1.400
 5.682 	0.139 	0.367
 6.479 	0.110 	0.843
 6.458 	0.268 	0.662
 6.720 	0.339 	0.258
 6.997 	0.403 	0.401
 6.517 	0.466 	1.202
 6.749 	-0.387 	0.436
 5.811 	-0.280 	0.129
 6.854 	-0.234 	0.220
 5.498 	0.516 	0.974
 5.402 	0.768 	1.206
 5.552 	0.291 	1.293
 5.048 	-0.263 	1.216
 4.830 	0.168 	0.564
 5.652 	-0.469 	0.579
 5.963 	1.033 	0.441
 5.559 	0.112 	0.858
 6.009 	-0.500 	0.449
 6.169 	-0.915 	0.605
 6.853 	0.369 	-0.152
 6.468 	0.899 	-0.051
 5.835 	-0.284 	-0.302
 6.633 	0.376 	0.509
 6.836 	-0.426 	0.193
 6.250 	0.525 	0.437
 6.173 	1.197 	1.094
 5.582 	0.763 	1.063
 6.086 	-0.089 	1.224
 5.857 	-0.109 	0.765
 5.049 	0.063 	0.592
 5.059 	-0.334 	0.756
 5.212 	0.859 	0.747
 5.442 	-0.048 	0.493
 6.011 	-0.994 	0.495
 5.889 	-0.854 	0.095
 5.894 	-0.028 	0.419
 6.743 	0.957 	0.178
 6.267 	-0.352 	0.045
 6.150 	0.379 	0.408
 5.290 	-0.636 	0.017
 5.867 	0.359 	1.129
 6.300 	1.405 	0.376
 6.558 	0.532 	1.114
 6.056 	-0.282 	1.142
 6.146 	0.524 	0.340
 6.248 	-0.088 	0.638
 6.126 	-0.339 	0.409
 6.219 	0.243 	0.070
 5.979 	-0.508 	-0.020
 5.992 	-0.771 	-0.020
 6.170 	-0.762 	-0.040
 6.365 	-0.150 	0.464
 6.567 	0.518 	-0.361
 6.556 	-0.605 	0.136
 5.663 	0.165 	0.346
 5.061 	0.149 	1.293
 4.949 	0.147 	1.093
 5.453 	-0.186 	0.868
 6.670 	-0.031 	0.503
 6.828 	0.038 	0.375
 6.963 	0.164 	0.189
 6.596 	0.065 	0.029
 6.374 	-0.448 	0.169
 6.219 	-0.154 	0.092
 6.364 	-0.292 	-0.217
 6.576 	-0.659 	-0.495
 5.912 	-0.905 	-0.279
 6.051 	-0.268 	-0.459
 6.372 	0.008 	-0.436
 5.679 	0.716 	1.420
 5.922 	0.816 	1.009
 6.090 	0.122 	1.052
 5.994 	0.514 	0.278
 5.557 	-0.983 	0.189
 5.907 	-0.659 	0.764
 6.368 	-0.350 	0.582
 6.268 	0.206 	0.111
 6.366 	-0.131 	-0.102
 5.950 	-0.510 	0.139
 5.702 	-0.810 	0.247
 6.085 	-0.969 	-0.300
 6.383 	-0.959 	-0.231
 6.961 	-0.431 	-0.697
 6.316 	-0.311 	-0.747
 6.400 	-1.080 	-0.328
 4.920 	0.498 	0.409
 5.178 	0.189 	0.353
 5.193 	0.320 	-0.007
 5.625 	-0.071 	0.073
 6.669 	-1.394 	0.301
 5.696 	-0.729 	0.111
 5.955 	-0.293 	0.426
 5.955 	0.151 	-0.151
 5.932 	0.178 	-0.028
 5.952 	-0.245 	0.132
 6.316 	-0.489 	-0.265
 6.328 	-0.870 	-0.297
 6.717 	-1.062 	-0.515
 6.606 	-0.403 	-0.837
 6.824 	-0.268 	-1.001
 6.391 	-0.333 	-0.300
 5.717 	0.241 	-0.060
 5.163 	0.200 	-0.448
 5.413 	0.048 	0.028
 6.506 	-0.698 	0.083
 6.071 	-0.588 	0.044
 6.067 	-0.901 	0.605
 5.497 	-0.288 	0.580
 5.275 	0.248 	0.022
 5.466 	-0.088 	-0.183
 5.799 	-0.572 	-0.205
 6.156 	-0.762 	-0.303
 6.413 	-0.423 	-0.526
 6.515 	-0.333 	-0.492
 5.857 	-0.535 	-0.048
 6.038 	-0.153 	-0.371
 5.972 	-0.320 	-0.811
 6.855 	-0.166 	0.141
 6.358 	0.413 	0.190
 6.524 	-0.419 	0.103
 5.948 	-0.499 	0.393
 5.587 	-0.012 	0.579
 5.956 	-0.394 	0.881
 6.364 	-0.182 	0.570
 5.603 	0.052 	-0.266
 5.881 	-0.069 	-0.504
 5.647 	-0.507 	-0.157
 5.550 	-0.704 	0.008
 6.001 	-0.017 	-0.260
 6.037 	0.071 	-0.408
 5.827 	-0.005 	-0.296
 5.502 	-0.431 	-0.206
 5.511 	-0.081 	-0.332
 6.174 	-0.450 	0.010
 6.493 	-0.081 	-0.067
 6.584 	-0.449 	0.027
 6.306 	-0.187 	0.085
 5.712 	0.236 	0.658
 5.987 	-0.047 	0.730
 6.135 	-0.054 	0.383
 5.646 	-0.067 	0.687
 6.166 	-0.456 	0.170
 6.454 	-0.271 	-0.295
 6.342 	-0.410 	0.005
 5.739 	-0.113 	-0.227
 5.933 	0.032 	0.090
 5.631 	-0.265 	-0.333
 5.459 	-0.089 	-0.028
 5.687 	0.164 	-0.382
 5.838 	-0.232 	0.276
 6.100 	-0.710 	-0.181
 6.237 	-0.311 	-0.086
 6.385 	-0.047 	-0.182
 6.407 	0.478 	0.027
 6.262 	0.420 	0.493
 6.350 	-0.054 	0.778
 6.225 	-0.520 	0.332
 6.204 	-0.681 	-0.048
 6.375 	0.018 	-0.288
 6.282 	-0.444 	-0.023
 5.729 	-0.519 	0.092
 5.936 	-0.288 	-0.500
 6.390 	-0.042 	-0.532
 5.903 	0.067 	-0.249
 5.676 	0.223 	-0.199
 5.909 	-0.365 	0.068
 5.168 	-0.993 	0.139
 5.815 	-0.867 	-0.105
 5.802 	-0.705 	-0.556
 5.778 	0.753 	0.052
 5.916 	0.563 	0.554
 6.336 	-0.159 	0.059
 5.995 	-0.128 	0.086
 5.202 	-0.420 	0.228
 5.118 	-0.302 	0.390
 4.827 	-0.897 	0.403
 5.157 	-0.922 	-0.424
 5.547 	-0.849 	-0.415
 5.581 	-0.618 	-0.377
 6.257 	0.072 	-0.409
 6.071 	0.260 	0.058
 5.301 	0.180 	0.102
 5.308 	-0.623 	-0.182
 5.468 	-0.651 	-0.282
 5.620 	-0.593 	0.504
 5.716 	0.531 	0.358
 5.378 	0.316 	0.281
 5.279 	-0.270 	0.283
 5.175 	0.076 	0.428
 4.990 	-0.030 	0.282
 4.607 	-0.379 	0.845
 4.821 	-0.788 	0.508
 5.000 	-0.578 	0.268
 5.277 	-0.552 	0.191
 5.089 	-0.501 	-0.104
 5.148 	-0.194 	-0.052
 5.689 	0.272 	-0.148
 5.761 	-0.988 	0.921
 5.813 	0.488 	0.349
 4.845 	-0.660 	-0.507
 5.317 	-0.171 	-0.051
 5.553 	-0.555 	-0.017
 5.891 	0.407 	0.682
 5.420 	-0.170 	0.206
 5.132 	-0.596 	0.066
 5.297 	-0.134 	0.012
 5.506 	-0.417 	-0.007
 5.281 	-0.090 	0.267
 4.725 	-0.454 	0.440
 5.116 	-0.356 	0.808
 4.770 	-0.189 	0.372
 4.814 	-0.211 	0.480
 5.365 	-0.431 	0.085
 6.582 	-0.010 	0.652
 6.867 	-0.400 	0.164
 7.176 	0.345 	0.681
 7.070 	0.176 	-0.035
 7.342 	-0.775 	-0.286
 7.438 	-0.498 	-0.581
 7.403 	0.707 	-0.245
 8.057 	0.119 	0.940
 8.270 	0.205 	1.197
 7.736 	0.823 	0.736
 7.237 	0.777 	0.963
 7.208 	0.922 	0.820
 7.283 	0.888 	0.318
 7.596 	0.827 	1.006
 7.545 	0.491 	0.382
 8.042 	1.368 	-0.281
 6.260 	-0.238 	-0.231
 6.287 	-0.538 	-0.381
 6.205 	0.584 	-0.057
 6.726 	-0.069 	0.305
 6.624 	-0.573 	-0.268
 6.837 	-0.451 	-0.271
 6.679 	-0.167 	1.127
 6.521 	-0.388 	1.710
 6.425 	0.143 	0.686
 7.039 	1.246 	0.677
 6.601 	1.076 	0.754
 6.395 	0.589 	0.721
 6.798 	0.940 	0.614
 6.461 	-0.132 	0.810
 7.006 	0.699 	0.292
 7.231 	0.981 	1.085
 6.595 	-0.261 	-0.115
 6.765 	0.125 	-0.656
 6.516 	-0.327 	0.394
 6.382 	-0.675 	-0.450
 6.236 	-0.156 	-0.671
 6.920 	-0.192 	0.384
 5.199 	-0.128 	1.584
 5.171 	-0.661 	1.319
 6.102 	0.509 	1.229
 5.751 	0.811 	1.705
 5.827 	0.513 	1.079
 5.977 	0.475 	0.690
 6.463 	0.584 	0.981
 7.615 	0.297 	0.383
 7.114 	0.292 	0.509
 7.040 	1.213 	0.521
 6.301 	-0.581 	1.133
 6.924 	0.137 	0.123
 6.663 	-0.345 	0.131
 6.206 	-0.401 	-0.202
 6.319 	0.621 	1.471
 6.096 	1.019 	1.271
 5.819 	0.394 	1.347
 5.962 	-0.520 	1.258
 5.830 	-0.157 	1.098
 5.596 	-0.317 	1.163
 6.108 	-0.221 	0.731
 6.447 	0.896 	0.505
 6.316 	0.392 	1.281
 7.183 	1.014 	0.183
 7.344 	0.541 	0.242
 7.198 	1.042 	0.202
 5.542 	-0.822 	-0.014
 5.976 	-0.507 	-0.308
 6.556 	-0.305 	0.435
 6.154 	0.352 	0.247
 5.429 	1.369 	1.314
 5.478 	1.023 	1.583
 6.337 	-0.280 	0.752
 6.553 	-0.512 	0.469
 6.921 	0.402 	0.983
 5.952 	-0.557 	0.529
 5.962 	-0.251 	0.589
 5.889 	0.487 	0.980
 6.181 	-0.431 	0.355
 6.775 	-0.364 	0.406
 7.242 	-0.243 	0.479
 7.240 	1.232 	0.522