# vtk DataFile Version 3.0
HighT1
ASCII
DATASET STRUCTURED_POINTS
DIMENSIONS 16 16 19
ORIGIN 929.001000000000 929.001000000000 5.001000000000
SPACING 10.000000000000 10.000000000000 10.000000000000
POINT_DATA 4864
 FIELD attributes 1
U 3 4864 float
2.000 	0.634 	0.905
 2.252 	0.934 	1.139
 2.339 	0.612 	0.616
 3.179 	-0.283 	0.235
 3.756 	-0.996 	-0.338
 3.117 	-0.714 	0.240
 2.980 	-0.228 	0.069
 3.173 	0.006 	0.268
 3.303 	0.195 	0.235
 3.459 	-0.050 	0.207
 3.321 	-0.427 	0.199
 3.343 	-0.612 	-0.036
 3.563 	-0.450 	-0.026
 3.657 	-0.543 	0.038
 3.884 	-0.345 	0.192
 4.084 	-0.477 	0.018
 3.946 	0.435 	-0.363
 3.338 	0.208 	-0.273
 3.273 	0.172 	-0.658
 4.276 	-0.645 	-0.496
 4.606 	-0.368 	-0.380
 4.722 	0.349 	-0.556
 4.450 	-0.065 	0.258
 4.546 	-0.367 	0.105
 3.427 	-0.007 	-0.017
 3.091 	-0.026 	0.019
 3.048 	-0.330 	-0.030
 3.440 	-0.302 	-0.264
 3.603 	-0.954 	0.036
 4.222 	-1.305 	-0.071
 5.101 	-0.506 	-0.349
 5.003 	-0.757 	-0.293
 3.800 	0.228 	0.045
 3.683 	0.479 	-0.227
 3.968 	0.434 	-0.282
 4.080 	0.387 	-0.260
 3.842 	0.121 	0.123
 4.033 	0.013 	0.102
 4.830 	1.155 	-0.030
 3.030 	0.100 	0.529
 3.078 	0.272 	0.337
 3.758 	-0.554 	0.453
 3.943 	-1.145 	0.307
 3.958 	-1.165 	0.012
 4.535 	-0.676 	0.073
 4.723 	-0.759 	-0.087
 3.503 	-0.962 	0.024
 2.957 	-0.157 	0.327
 4.415 	0.667 	0.274
 3.267 	0.100 	0.198
 3.364 	0.309 	0.089
 4.039 	0.407 	-0.243
 4.845 	0.487 	-0.489
 5.206 	0.074 	-0.439
 4.733 	0.256 	0.105
 5.267 	1.117 	-0.110
 5.158 	0.777 	-0.202
 5.232 	0.069 	-0.088
 5.278 	-0.742 	0.072
 5.432 	-1.049 	0.003
 3.932 	-1.067 	-0.028
 3.488 	-1.243 	-0.102
 3.692 	-0.163 	-0.176
 2.934 	-0.301 	0.765
 3.412 	0.594 	0.312
 3.388 	0.101 	0.211
 3.088 	-0.179 	0.205
 3.107 	0.072 	0.136
 3.484 	0.535 	0.003
 4.170 	0.774 	-0.424
 4.891 	0.722 	-0.210
 5.075 	0.917 	-0.047
 5.297 	0.465 	-0.075
 5.344 	-0.009 	-0.103
 4.684 	-0.211 	-0.120
 4.098 	-0.453 	0.031
 3.210 	-1.152 	0.072
 2.126 	0.095 	0.056
 2.660 	-0.136 	0.552
 4.260 	-1.369 	0.229
 3.639 	-0.172 	-0.058
 3.684 	-0.389 	-0.076
 3.585 	-0.143 	-0.100
 3.646 	-0.138 	-0.225
 3.780 	0.083 	-0.039
 3.945 	0.419 	0.040
 4.431 	0.618 	-0.025
 4.744 	0.782 	0.005
 4.935 	0.215 	0.029
 4.771 	-0.091 	-0.163
 4.682 	0.082 	-0.102
 4.322 	0.057 	0.089
 4.420 	0.165 	-0.039
 4.926 	0.161 	-0.453
 5.470 	-0.701 	-0.495
 5.891 	-1.029 	-0.490
 2.510 	-0.020 	0.161
 2.568 	-0.081 	0.303
 2.862 	-0.226 	0.285
 3.389 	-0.374 	0.283
 3.842 	-0.561 	0.334
 3.934 	-0.422 	0.385
 4.129 	0.095 	0.230
 4.316 	0.240 	0.101
 4.574 	0.063 	0.111
 4.663 	0.177 	0.094
 4.618 	-0.584 	0.170
 4.840 	-0.701 	0.179
 4.966 	-0.590 	0.196
 5.201 	-0.518 	-0.071
 5.692 	-0.110 	-0.422
 5.869 	-1.082 	-0.261
 3.827 	0.414 	-0.304
 4.088 	0.098 	-0.331
 4.442 	-0.181 	-0.295
 4.575 	-0.351 	-0.214
 4.923 	-0.188 	-0.195
 5.095 	-0.007 	-0.134
 5.313 	0.117 	-0.115
 5.796 	0.044 	-0.117
 5.479 	-0.254 	0.217
 5.345 	-0.254 	0.011
 5.530 	-0.717 	-0.240
 5.772 	-0.631 	-0.376
 6.268 	-0.248 	-0.450
 6.213 	-0.234 	-0.478
 5.440 	-0.175 	-0.055
 6.244 	-0.831 	-0.229
 4.015 	0.380 	0.066
 4.399 	0.608 	-0.201
 4.492 	0.156 	-0.205
 4.534 	-0.078 	-0.080
 4.591 	-0.361 	-0.042
 5.006 	-0.057 	-0.063
 5.375 	-0.127 	-0.065
 5.412 	0.146 	0.000
 5.076 	-0.045 	0.166
 4.969 	-0.505 	-0.161
 5.267 	-0.111 	-0.463
 5.350 	-0.079 	-0.224
 5.260 	-0.393 	-0.064
 5.456 	-0.025 	0.078
 5.748 	-0.597 	-0.245
 5.180 	0.582 	0.419
 3.250 	-0.426 	0.302
 3.595 	0.304 	-0.030
 4.333 	0.082 	-0.279
 5.043 	0.110 	-0.386
 4.484 	0.105 	-0.018
 5.000 	-0.296 	0.038
 5.692 	-0.181 	-0.157
 5.414 	-0.145 	0.049
 5.139 	-0.149 	0.077
 4.194 	-0.176 	-0.058
 4.090 	0.341 	-0.081
 4.107 	-0.176 	0.172
 4.782 	-0.218 	0.042
 5.369 	-0.138 	-0.222
 5.238 	0.279 	-0.370
 5.431 	1.486 	0.242
 4.882 	-0.233 	0.439
 3.264 	-0.033 	0.094
 3.843 	-0.264 	-0.040
 4.762 	0.104 	-0.300
 4.892 	0.431 	-0.049
 4.339 	0.049 	0.377
 3.992 	-0.481 	0.247
 3.947 	-0.061 	0.284
 3.741 	-0.653 	0.192
 3.951 	-0.456 	0.280
 4.029 	-0.490 	0.265
 4.900 	-0.475 	0.057
 5.827 	0.208 	-0.575
 5.150 	-0.009 	0.070
 4.981 	0.312 	0.201
 5.517 	0.166 	0.203
 4.498 	0.279 	0.404
 4.623 	-0.132 	0.077
 4.266 	0.084 	0.073
 3.788 	0.267 	-0.150
 3.388 	0.252 	0.219
 3.835 	0.122 	0.210
 3.275 	-1.163 	0.054
 3.936 	-0.730 	-0.442
 4.250 	-1.265 	-0.396
 4.886 	-0.880 	-0.990
 5.494 	-0.234 	-1.018
 5.745 	-0.163 	-0.519
 6.264 	0.482 	-0.617
 6.043 	0.498 	-0.185
 5.464 	0.573 	0.214
 5.331 	0.810 	0.028
 3.865 	0.134 	-0.046
 3.783 	-0.454 	0.138
 3.925 	0.528 	0.257
 3.317 	0.551 	0.252
 3.616 	0.720 	-0.153
 4.794 	0.148 	-0.192
 4.552 	-1.064 	0.195
 3.680 	-0.637 	-0.122
 3.114 	-0.988 	0.039
 3.437 	-0.540 	-0.232
 3.878 	0.301 	-0.128
 4.360 	0.648 	0.228
 4.886 	1.101 	0.219
 4.308 	1.062 	0.041
 3.525 	0.947 	0.235
 3.924 	0.513 	-0.113
 5.770 	0.307 	-0.366
 6.248 	0.393 	-0.816
 5.358 	0.645 	-0.132
 4.847 	0.653 	-0.020
 4.930 	0.224 	0.050
 5.784 	0.079 	-0.381
 5.325 	0.268 	0.321
 4.735 	0.066 	-0.142
 3.603 	-0.236 	-0.097
 3.121 	-0.052 	0.108
 3.193 	0.006 	0.164
 3.433 	0.301 	0.385
 3.573 	0.519 	-0.112
 3.805 	1.091 	0.015
 4.130 	1.188 	-0.250
 4.122 	0.237 	-0.091
 4.598 	0.514 	-0.030
 5.129 	0.246 	-0.053
 5.388 	0.806 	0.109
 5.523 	0.573 	-0.110
 5.933 	0.534 	0.033
 4.656 	0.511 	0.047
 4.160 	0.236 	0.159
 3.506 	-0.183 	0.147
 3.494 	0.098 	-0.086
 4.173 	-0.134 	-0.159
 3.792 	-0.174 	0.218
 4.318 	-0.401 	0.144
 3.612 	0.307 	0.290
 3.290 	0.888 	0.004
 3.278 	0.467 	0.305
 3.077 	0.270 	0.246
 2.619 	0.108 	0.355
 3.690 	0.297 	-0.104
 3.828 	0.831 	0.981
 4.421 	0.961 	0.118
 4.891 	0.565 	-0.109
 5.425 	1.181 	-0.104
 5.885 	1.425 	-0.380
 4.705 	-0.296 	0.399
 4.891 	0.359 	-0.445
 4.774 	-0.062 	0.040
 4.841 	-0.328 	-0.128
 4.768 	0.514 	-0.061
 4.445 	-0.377 	0.288
 3.773 	0.793 	0.354
 3.040 	0.860 	-0.013
 3.916 	0.333 	-0.463
 4.650 	0.015 	0.453
 4.325 	0.560 	-0.113
 4.823 	1.210 	-1.370
 4.097 	1.241 	0.768
 4.270 	-0.992 	-0.414
 4.773 	-0.298 	-0.450
 4.974 	0.714 	0.148
 4.477 	0.922 	0.567
 3.963 	0.597 	0.885
 4.006 	0.521 	0.965
 3.881 	0.737 	0.448
 3.844 	0.658 	0.031
 4.306 	0.241 	-0.019
 4.694 	-0.566 	0.036
 5.008 	-0.727 	-0.148
 5.280 	-0.700 	-0.186
 3.940 	0.459 	0.215
 3.623 	0.801 	-0.195
 3.663 	0.888 	-0.230
 5.164 	0.695 	-0.461
 5.007 	-0.041 	-0.630
 4.416 	-0.493 	-0.535
 4.987 	0.521 	-0.032
 4.749 	0.951 	0.312
 4.691 	0.427 	0.197
 4.491 	0.485 	0.106
 4.513 	0.694 	-0.333
 4.704 	0.053 	-0.448
 4.977 	0.053 	-0.451
 5.113 	0.258 	-0.028
 5.293 	-0.265 	0.197
 5.134 	-0.880 	0.863
 5.413 	0.805 	0.422
 5.255 	0.522 	0.128
 5.195 	0.457 	-0.540
 5.274 	0.057 	-0.508
 4.832 	0.509 	-0.076
 4.644 	-0.031 	0.092
 4.611 	-0.108 	-0.247
 5.303 	0.781 	-0.025
 5.449 	0.402 	-0.177
 4.590 	0.739 	0.438
 4.456 	0.405 	-0.402
 4.529 	0.601 	-0.311
 4.684 	0.203 	0.033
 5.180 	-0.534 	0.078
 5.914 	-0.648 	0.128
 5.471 	-0.851 	0.294
 4.615 	1.301 	1.217
 5.237 	0.596 	0.226
 5.933 	0.015 	-0.122
 6.184 	0.556 	-0.962
 6.202 	0.617 	-0.724
 5.460 	0.370 	-0.411
 5.207 	-0.045 	-0.131
 5.354 	0.526 	-0.375
 5.483 	1.149 	-0.144
 4.356 	0.867 	-0.016
 4.384 	1.168 	-0.388
 5.063 	0.575 	-0.348
 5.896 	-0.589 	0.173
 6.222 	-0.763 	0.243
 5.770 	-0.825 	0.038
 5.635 	0.017 	0.495
 5.411 	1.347 	0.254
 5.446 	0.887 	-0.027
 5.203 	0.628 	0.179
 5.579 	0.880 	-0.335
 6.211 	0.829 	-0.140
 6.526 	0.662 	-0.777
 5.782 	0.406 	0.312
 4.857 	0.886 	-0.464
 4.901 	1.059 	-0.129
 5.375 	1.026 	0.083
 5.857 	0.352 	-0.065
 6.320 	0.017 	-0.261
 6.745 	-0.294 	-0.304
 6.623 	-0.246 	-0.536
 6.632 	-0.528 	0.228
 6.418 	-0.539 	0.025
 4.767 	0.864 	0.359
 4.917 	1.203 	0.134
 5.512 	0.798 	-0.422
 5.828 	0.859 	-0.541
 6.068 	0.935 	-0.432
 6.012 	0.750 	-0.233
 6.053 	0.850 	-0.038
 5.758 	0.629 	0.003
 5.691 	0.854 	0.038
 6.079 	0.847 	-0.309
 6.201 	0.351 	0.042
 6.429 	0.331 	-0.057
 6.837 	0.263 	-0.243
 6.791 	0.349 	-0.659
 6.762 	0.124 	-0.540
 6.732 	-0.460 	-0.102
 4.540 	0.271 	0.157
 4.606 	0.271 	0.244
 4.404 	0.493 	0.162
 4.619 	0.817 	0.073
 4.555 	0.819 	0.262
 4.331 	0.620 	0.314
 4.435 	0.356 	0.362
 4.592 	0.394 	0.472
 4.957 	0.700 	0.235
 5.115 	0.834 	0.519
 5.355 	0.585 	0.572
 6.067 	0.844 	-0.063
 6.624 	0.914 	-0.689
 6.917 	0.744 	-0.783
 6.979 	0.412 	-0.367
 6.376 	-0.347 	-0.154
 5.090 	0.233 	-0.273
 5.062 	0.093 	-0.184
 4.944 	0.284 	-0.112
 5.215 	0.413 	-0.279
 5.636 	0.358 	-0.348
 5.828 	0.133 	-0.451
 6.237 	-0.168 	-0.511
 6.373 	0.336 	-0.577
 6.072 	0.584 	-0.076
 6.032 	0.286 	0.030
 5.921 	0.395 	-0.015
 6.198 	0.620 	-0.477
 6.343 	0.784 	-0.452
 6.479 	0.478 	-0.274
 6.561 	-0.246 	-0.086
 6.658 	-0.318 	-0.282
 5.368 	-0.246 	0.025
 5.715 	0.193 	-0.443
 5.716 	0.115 	-0.547
 5.470 	0.063 	-0.210
 5.500 	0.217 	-0.019
 5.885 	-0.198 	0.239
 5.855 	-0.226 	0.441
 6.057 	-0.018 	0.151
 6.611 	0.439 	-0.016
 6.713 	0.388 	-0.270
 6.565 	0.666 	-0.576
 6.969 	0.161 	-0.857
 7.014 	1.153 	-0.647
 6.715 	-0.017 	-0.410
 6.334 	-0.556 	-0.136
 7.006 	-0.391 	-0.324
 4.783 	-0.372 	0.507
 5.547 	0.162 	-0.266
 5.759 	0.254 	-0.591
 5.875 	0.308 	-0.266
 5.511 	-0.451 	0.047
 5.804 	-0.240 	0.010
 5.824 	-0.031 	0.030
 6.200 	0.145 	0.259
 6.157 	0.343 	0.151
 6.581 	0.529 	-0.349
 6.564 	0.690 	-0.239
 6.418 	0.073 	-0.319
 7.046 	0.360 	-0.187
 6.744 	0.000 	-0.042
 6.316 	-0.359 	-0.448
 6.104 	-0.467 	0.221
 5.423 	0.146 	0.162
 6.101 	0.615 	-0.911
 6.085 	0.362 	-0.362
 5.993 	-0.121 	0.116
 6.085 	-0.789 	-0.286
 5.565 	-0.199 	-0.041
 4.742 	-0.493 	0.639
 4.110 	-0.551 	1.287
 5.649 	0.611 	0.389
 6.300 	0.781 	-0.175
 6.492 	0.715 	-0.375
 6.581 	0.202 	-0.389
 6.485 	0.596 	-0.649
 6.326 	0.854 	0.198
 6.329 	0.474 	-0.062
 5.675 	-0.204 	-0.030
 5.009 	0.651 	0.295
 5.593 	0.266 	-0.357
 6.220 	-0.400 	0.034
 6.127 	-0.358 	0.079
 6.514 	-0.849 	-0.290
 5.769 	0.286 	0.398
 5.688 	-0.243 	0.060
 6.824 	0.082 	-0.143
 5.479 	0.580 	-0.065
 5.636 	0.131 	-0.523
 6.082 	0.089 	-0.464
 5.851 	0.000 	-0.426
 5.674 	0.164 	-0.323
 5.001 	0.613 	-0.144
 4.569 	0.197 	-0.173
 4.433 	-0.800 	-0.007
 6.064 	-0.179 	-0.112
 6.285 	-0.374 	-0.040
 6.517 	-0.226 	-0.082
 6.403 	-0.487 	-0.678
 6.632 	-0.294 	0.076
 6.558 	0.056 	-0.558
 6.320 	0.246 	-0.493
 5.580 	-0.301 	0.653
 6.087 	-0.303 	-0.016
 5.916 	-0.768 	0.203
 5.354 	-0.858 	0.046
 5.189 	-0.094 	-0.014
 5.040 	-0.232 	-0.224
 4.226 	0.566 	0.485
 4.216 	0.347 	-0.026
 4.926 	-0.022 	-0.245
 5.999 	-0.298 	-0.555
 6.139 	-0.406 	-0.296
 6.264 	-0.215 	-0.219
 6.199 	-0.276 	-0.017
 6.397 	-0.764 	-0.153
 6.180 	-0.252 	-0.466
 6.614 	0.099 	-0.052
 6.826 	0.173 	0.038
 6.389 	0.165 	0.236
 6.064 	0.180 	-0.250
 6.195 	-0.129 	0.266
 4.929 	-1.067 	0.322
 5.306 	-0.595 	0.042
 4.973 	0.244 	0.727
 4.003 	0.434 	0.361
 4.491 	-0.705 	-0.414
 5.340 	-0.767 	-0.445
 5.381 	-0.540 	-0.419
 5.883 	-0.144 	0.160
 6.010 	0.346 	-0.126
 5.075 	-0.582 	-0.548
 5.655 	-0.216 	-0.044
 6.136 	0.732 	-0.531
 5.836 	0.707 	0.868
 6.213 	0.089 	-0.163
 6.397 	0.821 	-0.200
 5.231 	0.437 	0.422
 5.376 	-0.566 	0.225
 5.479 	-0.362 	-0.084
 4.715 	0.536 	0.897
 4.153 	0.188 	0.792
 3.913 	-0.001 	-0.388
 4.551 	-0.871 	0.312
 4.788 	-0.557 	0.204
 4.798 	-0.787 	0.169
 5.008 	-0.379 	-0.255
 5.344 	-0.398 	-0.618
 5.204 	0.283 	-0.416
 4.967 	0.856 	-0.313
 5.780 	0.909 	0.308
 6.314 	0.749 	-0.914
 6.395 	1.003 	-0.300
 6.116 	0.781 	-0.265
 4.923 	0.070 	0.349
 4.977 	0.446 	0.023
 4.964 	-0.293 	0.732
 5.841 	-0.032 	-0.051
 5.129 	0.310 	-0.753
 4.637 	-1.269 	0.612
 5.139 	-1.335 	-0.388
 5.637 	-0.614 	-1.188
 6.076 	0.081 	-0.273
 6.420 	0.155 	-0.071
 5.431 	-0.474 	-0.435
 5.409 	0.028 	0.135
 4.752 	1.164 	1.093
 4.203 	0.998 	1.124
 4.041 	0.957 	0.941
 3.999 	0.805 	0.776
 4.857 	1.201 	-0.153
 5.069 	1.732 	0.162
 4.982 	0.880 	-0.096
 5.349 	0.383 	-0.455
 5.240 	-0.275 	-0.330
 5.549 	-0.872 	1.433
 6.039 	-0.796 	-0.156
 6.047 	-0.786 	0.210
 5.878 	0.070 	-0.354
 5.855 	0.169 	-0.313
 5.052 	-0.217 	-0.198
 4.983 	0.070 	-0.304
 5.442 	1.190 	0.616
 5.762 	1.351 	0.567
 5.445 	0.923 	0.578
 4.769 	0.311 	-0.070
 4.878 	1.029 	0.153
 5.255 	1.136 	-0.203
 5.582 	0.369 	-0.102
 5.717 	0.621 	-0.363
 5.171 	0.226 	0.668
 7.267 	-0.506 	-0.064
 7.256 	-0.032 	0.390
 7.114 	-0.111 	-0.256
 7.001 	-0.233 	-0.306
 6.089 	0.643 	-0.198
 5.567 	0.416 	-0.142
 4.836 	-0.001 	0.163
 5.237 	0.516 	0.264
 5.612 	0.972 	-0.397
 5.482 	0.868 	0.385
 5.427 	0.588 	-0.391
 4.762 	0.788 	-0.075
 4.497 	1.178 	-0.092
 5.077 	0.346 	0.377
 5.158 	0.569 	0.219
 5.288 	-0.157 	-0.033
 6.828 	-0.081 	0.177
 7.153 	0.185 	-0.281
 7.184 	0.220 	-0.910
 7.338 	0.155 	-0.359
 6.406 	0.654 	-0.334
 5.707 	0.489 	-0.306
 6.071 	-0.002 	-0.272
 5.974 	-0.425 	-0.359
 5.615 	0.624 	0.353
 5.832 	0.944 	-0.199
 5.647 	0.814 	-0.308
 5.370 	1.386 	-0.431
 5.544 	0.783 	-0.212
 5.591 	0.207 	0.082
 5.292 	-0.033 	0.296
 5.552 	0.162 	0.144
 6.490 	0.286 	0.499
 6.901 	0.669 	-0.213
 6.909 	0.444 	-0.799
 6.755 	0.210 	-0.456
 6.564 	0.672 	-0.261
 6.626 	0.456 	-0.026
 6.086 	0.252 	0.273
 6.055 	0.104 	-0.417
 5.612 	0.509 	0.218
 5.201 	1.240 	-0.043
 5.393 	1.147 	-0.493
 6.079 	1.006 	-0.665
 6.755 	0.300 	-0.694
 7.208 	-0.023 	-0.641
 7.123 	-0.119 	-0.132
 6.671 	-0.183 	0.249
 5.998 	0.348 	0.504
 6.604 	0.367 	0.041
 6.717 	0.562 	-0.547
 6.759 	0.735 	-0.671
 6.603 	0.259 	-0.182
 6.199 	0.209 	0.042
 6.040 	0.129 	0.238
 6.208 	0.109 	-0.003
 6.404 	0.323 	-0.283
 6.606 	0.813 	-0.034
 6.613 	0.632 	-0.039
 6.673 	0.132 	-0.351
 6.953 	-0.468 	-0.496
 7.014 	-0.062 	-0.733
 7.239 	0.218 	-0.496
 7.267 	0.075 	-0.172
 5.208 	0.150 	0.136
 5.302 	-0.122 	0.110
 5.472 	0.155 	0.025
 5.917 	0.483 	0.110
 5.714 	0.537 	0.178
 5.703 	0.423 	0.219
 5.975 	-0.008 	0.128
 6.152 	-0.168 	0.241
 6.510 	0.317 	0.070
 6.883 	0.507 	0.119
 6.748 	0.899 	0.098
 6.622 	0.236 	-0.361
 6.272 	-0.553 	-0.918
 6.224 	-0.472 	-1.043
 6.325 	-0.344 	-0.438
 6.919 	0.022 	-0.003
 5.747 	0.012 	-0.142
 5.674 	-0.033 	-0.211
 5.739 	0.052 	-0.050
 5.762 	0.045 	0.028
 6.160 	-0.016 	-0.001
 6.213 	0.236 	-0.055
 6.471 	-0.204 	-0.147
 6.473 	0.126 	-0.017
 6.514 	0.544 	0.255
 6.968 	0.673 	0.141
 7.031 	1.051 	-0.129
 7.061 	0.158 	-0.534
 6.575 	-0.290 	-0.072
 6.255 	-0.169 	0.041
 6.266 	-0.107 	-0.318
 6.645 	-0.693 	-0.368
 6.437 	0.323 	-0.097
 6.055 	0.425 	-0.526
 5.959 	0.444 	-0.418
 5.770 	-0.161 	-0.293
 5.875 	-0.499 	-0.014
 6.173 	-0.186 	-0.045
 6.587 	-0.533 	0.029
 6.764 	-0.222 	-0.086
 6.734 	0.220 	0.085
 6.704 	0.440 	-0.279
 7.027 	1.086 	-0.424
 6.795 	0.318 	-0.193
 6.969 	-0.405 	-0.217
 6.722 	0.194 	0.136
 6.648 	-0.409 	0.163
 6.373 	-0.502 	-0.307
 6.204 	0.476 	-0.083
 6.210 	0.605 	-0.259
 6.010 	0.324 	-0.406
 5.245 	-0.422 	0.083
 5.166 	-0.463 	0.298
 5.354 	-0.476 	0.341
 6.004 	-0.584 	0.357
 6.226 	-0.090 	0.009
 6.201 	0.083 	-0.009
 6.222 	0.465 	-0.055
 6.306 	0.298 	-0.041
 6.591 	-0.530 	-0.624
 7.143 	0.094 	-0.407
 7.002 	0.131 	-0.254
 6.231 	-0.236 	0.137
 6.192 	-0.679 	-0.222
 5.117 	0.144 	0.096
 5.551 	0.452 	-0.130
 5.520 	-0.310 	0.212
 6.002 	-0.743 	0.221
 6.252 	-0.897 	0.101
 6.049 	-0.692 	0.328
 5.910 	-0.225 	0.095
 6.105 	-0.384 	0.538
 6.475 	-0.705 	0.375
 6.423 	-0.109 	0.274
 6.447 	-0.353 	-0.197
 6.752 	-0.609 	-0.693
 5.999 	0.037 	-0.320
 6.130 	0.362 	0.168
 4.964 	-0.109 	0.346
 4.423 	-0.749 	-0.079
 5.670 	-0.244 	-0.296
 6.082 	-0.452 	-0.563
 6.469 	-0.768 	-0.220
 6.770 	-0.887 	-0.100
 6.704 	-0.321 	-0.165
 6.597 	-0.618 	0.247
 6.655 	-0.140 	-0.184
 6.018 	-0.160 	0.118
 6.350 	-0.345 	0.267
 6.190 	-0.610 	0.168
 6.445 	-0.563 	-0.255
 6.634 	0.166 	-0.555
 5.861 	-0.004 	0.164
 4.890 	0.176 	0.557
 4.970 	0.262 	0.109
 5.274 	-0.205 	-0.240
 6.202 	-0.575 	0.060
 6.236 	-0.833 	0.020
 5.980 	-0.761 	-0.082
 6.086 	-0.860 	-0.240
 6.558 	-0.805 	-0.271
 6.696 	-0.215 	0.043
 6.172 	0.430 	-0.033
 5.789 	0.168 	-0.098
 6.048 	-0.035 	0.282
 5.813 	-0.586 	-0.083
 5.953 	-0.422 	0.124
 5.666 	0.211 	0.274
 5.252 	0.201 	0.625
 5.400 	0.604 	0.457
 5.205 	0.396 	-0.035
 5.263 	0.360 	-0.522
 5.733 	-0.624 	-0.043
 5.591 	-1.011 	-0.142
 5.648 	-0.712 	-0.106
 5.538 	-0.988 	-0.490
 5.647 	-0.969 	-0.314
 6.045 	-0.153 	-0.245
 6.333 	0.244 	-0.151
 6.425 	0.006 	0.142
 5.845 	0.520 	0.063
 6.121 	-0.372 	0.144
 5.460 	0.422 	0.640
 5.071 	0.397 	-0.262
 4.393 	-0.067 	0.409
 4.924 	0.868 	0.898
 5.310 	0.350 	0.041
 5.403 	-0.310 	-0.197
 5.374 	-1.167 	-0.053
 5.422 	-0.969 	-0.226
 5.173 	-0.839 	-0.084
 5.566 	-0.724 	-0.169
 5.340 	-0.942 	-0.304
 5.358 	-0.353 	-0.462
 5.526 	0.079 	-0.487
 6.063 	-0.068 	-0.143
 6.460 	0.280 	-0.234
 6.358 	0.388 	-0.015
 5.785 	0.496 	0.017
 5.894 	0.795 	-0.115
 4.620 	0.060 	0.245
 4.338 	1.069 	1.794
 5.604 	0.083 	0.315
 6.058 	-0.029 	-0.017
 4.327 	-1.354 	0.216
 4.316 	-1.382 	0.258
 4.671 	-0.844 	0.191
 5.139 	-0.588 	-0.221
 4.983 	-0.573 	-0.606
 5.027 	-0.622 	-0.393
 4.868 	-0.462 	-0.444
 5.088 	-0.162 	-0.574
 5.569 	0.074 	-0.816
 6.034 	0.405 	-0.549
 6.504 	0.701 	-0.567
 6.764 	0.693 	-0.026
 6.668 	0.647 	-0.013
 6.999 	0.400 	0.262
 7.085 	-0.284 	-0.038
 6.268 	-0.023 	-0.100
 6.790 	-0.643 	-0.062
 5.843 	-0.844 	0.112
 6.144 	0.414 	-0.343
 6.212 	0.072 	0.042
 6.040 	-0.338 	0.267
 5.915 	-0.050 	-0.101
 5.387 	-0.159 	-0.276
 5.729 	0.041 	0.801
 5.733 	0.890 	0.951
 5.870 	1.683 	1.068
 5.611 	0.685 	0.685
 5.653 	1.369 	0.503
 5.818 	1.855 	0.013
 6.070 	1.372 	0.151
 5.817 	0.527 	-0.207
 5.651 	0.517 	-0.446
 7.088 	-0.418 	0.316
 6.971 	-0.058 	-0.198
 5.863 	-0.334 	-0.126
 6.550 	-0.442 	-0.287
 6.670 	0.001 	-0.294
 5.957 	0.305 	-0.133
 4.943 	-0.029 	-0.151
 5.261 	0.480 	0.556
 5.899 	0.889 	0.903
 6.536 	1.455 	0.652
 6.205 	0.674 	0.428
 5.431 	0.731 	0.547
 5.610 	1.595 	0.194
 5.653 	0.987 	-0.055
 5.533 	0.440 	-0.137
 5.734 	0.673 	0.326
 6.860 	-0.099 	-0.338
 6.873 	-0.179 	0.406
 6.942 	-0.338 	-0.662
 6.566 	-0.424 	-0.147
 6.201 	0.609 	-0.049
 5.417 	0.502 	0.032
 5.199 	0.532 	0.218
 5.598 	0.071 	0.445
 5.534 	0.334 	0.305
 5.912 	0.692 	0.473
 6.327 	0.828 	-0.012
 5.604 	0.486 	-0.004
 5.204 	1.318 	0.074
 5.095 	0.591 	0.659
 5.149 	0.027 	0.621
 4.908 	0.266 	0.574
 7.019 	0.092 	-0.431
 7.088 	-0.305 	-0.454
 6.699 	-0.103 	-0.673
 6.357 	0.419 	-0.212
 5.947 	0.814 	0.140
 5.719 	0.301 	-0.066
 6.245 	0.382 	-0.481
 6.670 	0.336 	-0.566
 6.477 	-0.262 	0.379
 6.169 	0.116 	-0.124
 5.561 	0.647 	-0.249
 5.925 	0.495 	0.011
 5.728 	0.890 	-0.048
 5.738 	0.469 	0.205
 6.079 	0.245 	0.261
 6.225 	-0.039 	0.588
 7.005 	-0.168 	-0.403
 7.065 	-0.130 	-0.390
 7.223 	-0.205 	-0.600
 6.618 	0.366 	-0.208
 6.618 	0.608 	0.008
 6.517 	0.268 	0.216
 6.530 	0.058 	0.169
 6.548 	-0.006 	-0.119
 6.643 	0.168 	0.067
 7.103 	-0.109 	-0.012
 6.925 	0.461 	-0.359
 6.648 	0.849 	-0.213
 6.848 	0.541 	-0.384
 6.625 	0.458 	-0.377
 6.393 	0.406 	-0.375
 6.749 	0.038 	0.279
 5.872 	-0.130 	0.523
 6.521 	0.002 	0.125
 7.159 	-0.035 	-0.464
 6.791 	0.204 	-0.709
 6.717 	0.467 	0.044
 6.654 	0.168 	0.575
 6.834 	-0.278 	0.266
 7.096 	-0.319 	-0.179
 7.648 	0.136 	-0.203
 7.258 	0.037 	-0.155
 6.877 	0.049 	0.044
 6.645 	0.457 	-0.295
 6.843 	-0.128 	-0.547
 6.926 	0.497 	-0.608
 7.088 	0.469 	-0.260
 7.077 	-0.273 	-0.171
 6.366 	-0.098 	0.149
 6.022 	-0.116 	0.166
 6.165 	0.114 	-0.054
 6.228 	0.648 	0.048
 6.674 	0.773 	0.143
 6.986 	0.245 	0.112
 7.041 	-0.147 	-0.331
 7.381 	-0.084 	-0.083
 7.482 	0.080 	-0.267
 6.889 	0.513 	-0.023
 6.693 	0.591 	-0.070
 6.619 	-0.018 	-0.101
 6.637 	-0.557 	-0.101
 6.706 	-0.331 	-0.002
 6.968 	-0.226 	0.007
 7.025 	-0.337 	-0.041
 7.085 	0.290 	-0.214
 6.861 	0.193 	-0.332
 6.530 	0.519 	-0.272
 6.369 	0.709 	-0.216
 6.712 	0.500 	-0.135
 6.989 	0.357 	-0.280
 6.883 	0.014 	-0.214
 6.600 	0.136 	0.328
 6.342 	0.468 	0.267
 6.353 	0.662 	-0.095
 6.812 	0.280 	-0.145
 6.959 	-0.282 	-0.451
 6.725 	-0.505 	-0.154
 6.828 	-0.580 	-0.213
 7.059 	-0.387 	-0.363
 7.194 	-0.607 	-0.391
 7.110 	0.433 	-0.137
 6.421 	0.343 	-0.375
 6.212 	0.286 	-0.507
 6.269 	0.530 	-0.200
 6.583 	0.397 	0.076
 6.585 	0.317 	-0.113
 6.721 	0.375 	0.165
 6.876 	0.168 	0.018
 6.923 	0.177 	0.247
 6.877 	0.191 	0.021
 6.703 	-0.063 	0.011
 6.814 	-0.128 	-0.411
 6.897 	-0.179 	-0.670
 6.969 	-0.247 	-0.190
 7.399 	-0.275 	-0.116
 7.329 	-0.190 	-0.537
 6.531 	0.706 	-0.520
 6.399 	0.640 	-0.187
 6.137 	0.561 	0.253
 5.992 	0.304 	0.584
 6.120 	0.168 	0.358
 6.098 	-0.151 	0.556
 5.960 	-0.424 	0.669
 6.213 	-0.089 	0.531
 6.301 	0.064 	0.257
 6.305 	0.081 	0.086
 6.474 	-0.067 	-0.023
 6.730 	-0.457 	-0.322
 7.155 	-0.524 	-0.637
 7.306 	-0.191 	-0.544
 7.394 	-0.036 	-0.311
 7.058 	-0.039 	0.173
 4.520 	-0.441 	0.549
 5.158 	0.267 	0.757
 5.453 	0.368 	0.603
 5.558 	0.230 	0.048
 6.124 	-0.457 	-0.125
 6.853 	-0.630 	-0.004
 7.125 	-0.533 	-0.117
 6.157 	-0.394 	0.126
 6.003 	-0.092 	0.518
 6.344 	-0.051 	0.236
 7.015 	-0.485 	-0.078
 7.120 	-0.841 	-0.664
 6.455 	-0.405 	-0.145
 5.914 	0.115 	0.533
 5.377 	0.105 	0.558
 5.293 	-0.196 	0.328
 6.163 	-0.646 	-0.124
 6.167 	-0.364 	0.109
 6.441 	-0.187 	0.045
 6.805 	-0.685 	0.152
 6.845 	-1.048 	-0.249
 6.827 	-0.814 	-0.329
 6.997 	-0.512 	-0.552
 7.147 	-0.272 	-0.118
 7.025 	-0.009 	0.070
 7.298 	-0.243 	0.333
 6.964 	-0.612 	-0.361
 6.337 	0.104 	-0.425
 5.524 	0.120 	0.648
 5.140 	0.113 	0.553
 5.617 	0.221 	-0.068
 5.475 	-0.222 	-0.200
 6.718 	-0.765 	-0.278
 6.716 	-0.632 	-0.173
 6.726 	-0.788 	-0.034
 6.652 	-0.855 	-0.320
 6.742 	-0.989 	-0.349
 6.684 	-0.737 	-0.246
 6.625 	-0.231 	0.139
 6.815 	0.136 	0.109
 7.026 	-0.098 	0.324
 6.228 	-0.173 	-0.042
 5.877 	-0.167 	-0.244
 5.685 	0.300 	0.887
 5.677 	0.016 	0.490
 6.401 	-0.259 	0.038
 6.821 	-0.053 	-0.390
 6.276 	-0.088 	-0.334
 6.492 	-0.567 	0.024
 6.636 	-0.517 	-0.199
 6.677 	-0.903 	-0.175
 6.772 	-0.678 	-0.463
 6.761 	-0.878 	-0.125
 5.995 	-0.575 	-0.356
 5.862 	-0.362 	-0.034
 6.907 	-0.111 	0.154
 6.828 	0.074 	0.447
 6.240 	-0.074 	0.031
 6.202 	-0.473 	-0.415
 6.329 	0.681 	0.678
 6.061 	0.244 	-0.009
 6.065 	-0.197 	0.750
 6.596 	-0.017 	-0.004
 6.507 	-0.179 	0.003
 6.529 	-0.523 	0.174
 6.561 	-0.689 	0.146
 6.342 	-0.444 	-0.147
 6.308 	-0.323 	-0.254
 6.334 	-1.026 	-0.029
 6.228 	-0.713 	0.011
 5.996 	-0.138 	-0.506
 5.542 	-0.225 	-0.610
 5.952 	0.247 	-0.163
 6.117 	-0.264 	-0.359
 6.326 	0.007 	-0.359
 6.603 	0.660 	0.016
 6.812 	0.390 	0.144
 7.034 	-0.101 	0.627
 7.361 	-0.050 	0.156
 6.894 	-0.081 	0.275
 6.549 	-0.605 	-0.024
 6.595 	-0.620 	0.164
 6.573 	-0.202 	0.035
 6.704 	-0.391 	-0.362
 6.976 	-0.179 	-0.470
 7.282 	-0.619 	-0.367
 6.175 	-0.373 	0.040
 6.120 	-0.087 	-0.483
 6.220 	-0.159 	-0.644
 6.832 	-0.105 	-0.694
 6.464 	-0.634 	-0.666
 6.700 	-0.106 	-0.323
 6.875 	0.678 	0.337
 6.473 	-0.098 	0.532
 6.155 	-0.416 	0.204
 6.037 	-0.420 	0.075
 5.981 	0.106 	0.162
 6.131 	0.102 	0.016
 6.284 	-0.353 	-0.035
 6.780 	-0.062 	-0.116
 6.842 	0.208 	0.317
 7.418 	0.626 	-0.135
 6.259 	0.096 	0.093
 5.714 	-0.346 	-0.083
 6.318 	0.018 	0.337
 6.372 	0.737 	0.334
 6.439 	0.862 	0.846
 6.445 	0.900 	0.716
 6.546 	1.516 	0.503
 6.155 	1.459 	0.629
 6.310 	1.153 	0.099
 6.383 	0.776 	-0.298
 6.401 	-0.024 	0.269
 6.571 	0.176 	0.021
 6.905 	0.160 	-0.546
 6.803 	-0.244 	-0.064
 6.761 	-0.083 	-0.223
 6.604 	0.393 	0.048
 6.093 	0.474 	0.202
 5.518 	0.092 	0.238
 5.878 	0.315 	0.926
 5.918 	0.944 	1.057
 6.194 	0.631 	1.019
 5.910 	0.631 	0.568
 6.069 	1.456 	0.481
 5.989 	1.421 	0.304
 5.792 	0.674 	0.097
 6.067 	0.347 	0.368
 7.052 	-0.088 	-0.257
 6.927 	0.138 	-0.259
 6.881 	0.250 	-0.687
 6.930 	-0.007 	-0.102
 6.560 	0.143 	-0.195
 6.718 	0.826 	0.340
 6.259 	0.615 	-0.019
 5.550 	0.750 	0.037
 5.479 	0.189 	0.349
 5.812 	0.378 	0.479
 6.058 	0.274 	0.380
 5.776 	0.538 	0.436
 5.566 	1.021 	0.083
 5.298 	1.318 	0.647
 5.305 	0.541 	0.722
 5.274 	-0.076 	1.089
 7.536 	-0.197 	-0.652
 7.384 	0.242 	-0.376
 7.143 	0.334 	-0.592
 6.605 	0.230 	0.312
 6.212 	0.337 	0.014
 6.417 	1.022 	-0.006
 6.617 	0.829 	-0.126
 6.173 	0.888 	-0.082
 6.358 	0.468 	0.204
 6.475 	0.230 	0.037
 6.315 	0.077 	0.086
 5.750 	0.681 	0.172
 5.292 	1.285 	0.302
 6.095 	0.900 	0.466
 5.699 	0.680 	-0.134
 5.827 	0.083 	0.144
 7.178 	-0.072 	-0.366
 7.208 	0.477 	-0.310
 6.913 	0.494 	-0.306
 6.487 	0.754 	0.334
 6.342 	0.646 	0.382
 6.311 	0.488 	0.324
 6.414 	0.318 	0.297
 6.647 	0.325 	0.130
 6.944 	0.291 	-0.023
 6.791 	0.064 	0.114
 7.161 	0.406 	0.002
 6.721 	0.726 	-0.070
 6.774 	0.793 	-0.004
 6.511 	0.826 	-0.038
 6.074 	0.875 	-0.478
 6.391 	0.146 	-0.157
 6.761 	-0.137 	0.173
 6.703 	0.080 	-0.114
 7.289 	0.622 	-0.491
 6.964 	0.516 	-0.201
 6.904 	0.652 	0.197
 7.122 	0.412 	0.543
 7.221 	0.262 	0.048
 7.160 	0.169 	-0.371
 7.329 	0.307 	-0.100
 7.175 	0.146 	-0.062
 6.841 	0.138 	0.231
 7.222 	0.768 	-0.000
 7.196 	0.878 	-0.073
 6.657 	1.023 	-0.354
 6.598 	0.867 	-0.492
 6.904 	0.186 	-0.159
 6.838 	-0.292 	0.165
 7.070 	-0.164 	0.113
 6.713 	-0.043 	-0.070
 6.830 	0.078 	-0.367
 7.062 	0.209 	-0.339
 7.511 	0.274 	-0.216
 7.483 	0.217 	-0.457
 7.412 	-0.009 	-0.331
 7.374 	0.166 	-0.219
 7.123 	0.352 	-0.010
 6.983 	0.364 	0.051
 6.831 	0.650 	-0.095
 6.872 	0.878 	-0.165
 6.844 	1.087 	-0.152
 7.043 	0.747 	-0.049
 7.189 	0.211 	-0.422
 6.079 	-0.343 	-0.194
 6.484 	-0.147 	-0.332
 6.467 	-0.309 	-0.330
 6.529 	-0.110 	-0.216
 6.563 	0.036 	-0.244
 6.842 	0.212 	-0.305
 6.801 	0.111 	-0.194
 6.579 	0.116 	0.320
 6.497 	-0.017 	0.313
 6.766 	0.344 	-0.048
 6.818 	0.335 	0.028
 6.665 	0.722 	-0.044
 6.608 	0.902 	-0.301
 6.640 	0.972 	-0.353
 7.028 	0.348 	-0.442
 7.259 	-0.307 	-0.190
 5.516 	-0.836 	-0.265
 5.976 	-0.152 	-0.287
 6.009 	-0.021 	-0.669
 6.087 	0.049 	-0.165
 6.266 	0.287 	0.032
 6.134 	0.144 	0.004
 6.350 	0.365 	0.158
 6.564 	-0.162 	0.303
 6.808 	-0.452 	0.442
 6.872 	-0.087 	0.388
 6.834 	0.191 	0.154
 6.745 	0.150 	-0.023
 6.838 	0.161 	0.051
 7.094 	0.258 	0.113
 7.433 	-0.135 	-0.051
 7.472 	-0.640 	-0.163
 5.607 	-0.544 	0.172
 5.163 	-0.198 	0.185
 5.157 	-0.167 	0.541
 5.640 	-0.031 	0.756
 5.766 	0.080 	0.777
 5.864 	0.068 	0.887
 5.970 	-0.379 	1.084
 6.210 	-0.781 	0.936
 6.586 	-0.851 	0.576
 6.825 	-0.529 	0.177
 7.016 	-0.159 	-0.042
 7.015 	-0.534 	-0.067
 7.413 	-0.687 	-0.156
 7.517 	-0.572 	-0.120
 7.123 	-0.431 	-0.143
 6.863 	-0.452 	-0.140
 4.693 	-0.432 	0.703
 4.935 	-0.099 	0.422
 5.510 	-0.143 	0.133
 6.084 	-0.366 	0.072
 6.677 	-0.435 	0.162
 7.114 	-0.424 	0.002
 6.925 	-0.498 	-0.017
 6.811 	-0.510 	0.125
 6.933 	-0.702 	0.114
 7.038 	-0.552 	-0.264
 7.038 	-0.765 	-0.358
 7.355 	-0.607 	-0.343
 6.729 	-0.662 	0.323
 6.060 	-0.220 	0.573
 6.157 	-0.123 	0.281
 6.537 	-0.571 	0.121
 5.823 	-0.370 	0.373
 5.866 	-0.178 	0.793
 6.615 	-0.546 	0.803
 7.127 	-0.995 	0.277
 7.023 	-0.927 	-0.153
 6.685 	-0.503 	-0.311
 6.751 	-0.169 	-0.384
 6.846 	-0.170 	-0.337
 7.019 	-0.173 	-0.094
 7.205 	-0.376 	-0.046
 7.129 	-0.590 	0.260
 6.690 	-0.352 	-0.068
 6.027 	0.120 	0.560
 5.898 	0.064 	0.547
 6.759 	-0.546 	0.176
 6.521 	-0.819 	-0.061
 6.589 	-0.669 	-0.044
 6.651 	-0.860 	-0.032
 7.088 	-1.037 	0.040
 7.057 	-0.800 	-0.214
 6.716 	-0.922 	-0.140
 6.701 	-0.673 	-0.110
 6.606 	-0.694 	0.014
 6.651 	-0.430 	-0.159
 6.893 	-0.319 	0.092
 6.985 	0.002 	0.237
 6.528 	-0.339 	0.367
 6.032 	0.184 	0.357
 6.571 	0.206 	0.125
 7.024 	-0.310 	-0.079
 6.558 	-0.808 	-0.127
 6.247 	-0.689 	-0.026
 6.781 	-0.975 	-0.343
 7.089 	-1.133 	-0.195
 7.023 	-1.436 	-0.211
 6.758 	-0.831 	-0.380
 6.430 	-0.865 	0.144
 6.568 	-0.871 	-0.080
 6.179 	-0.766 	-0.047
 6.058 	-0.525 	-0.141
 6.398 	-0.412 	0.444
 6.718 	-0.053 	0.199
 6.408 	0.030 	0.278
 6.778 	-0.058 	0.586
 7.061 	-0.352 	-0.011
 6.980 	-0.450 	-0.067
 6.718 	-0.254 	0.192
 6.334 	-0.887 	0.192
 7.245 	-1.063 	-0.191
 7.126 	-1.188 	-0.010
 7.238 	-1.123 	-0.193
 6.636 	-0.574 	-0.274
 6.530 	-0.497 	-0.014
 6.516 	-1.331 	0.170
 7.243 	-0.755 	-0.132
 7.346 	-0.809 	-0.480
 7.514 	-0.657 	-0.557
 6.857 	-0.277 	-0.337
 6.473 	-0.237 	-0.062
 6.527 	-0.668 	-0.197
 6.457 	-0.540 	0.029
 6.533 	-0.678 	0.525
 6.624 	-0.256 	0.688
 6.644 	-0.820 	0.701
 7.258 	-1.051 	0.058
 7.411 	-0.718 	-0.247
 7.262 	-0.816 	-0.084
 6.805 	-1.200 	-0.392
 7.118 	-1.069 	-0.043
 7.588 	-1.046 	-0.346
 7.153 	-0.760 	0.501
 7.116 	-0.887 	-0.447
 7.270 	-0.693 	-0.414
 7.493 	-0.718 	-0.310
 7.283 	0.004 	-0.352
 6.712 	-0.693 	0.027
 5.988 	-0.859 	0.358
 6.128 	-0.387 	0.515
 6.654 	-0.616 	0.238
 7.630 	-1.058 	-0.256
 6.316 	-0.089 	0.310
 6.537 	-0.207 	-0.055
 6.740 	-0.429 	-0.057
 6.746 	-0.140 	0.286
 7.132 	-0.090 	0.386
 7.622 	0.773 	0.104
 7.499 	0.590 	0.646
 6.740 	0.249 	0.105
 6.812 	-0.023 	-0.004
 6.993 	0.024 	-0.109
 6.448 	0.735 	0.822
 6.515 	1.094 	0.810
 6.414 	1.532 	0.451
 6.735 	1.584 	0.425
 7.169 	1.149 	-0.018
 6.914 	0.893 	0.119
 6.764 	-0.371 	0.276
 7.337 	-0.498 	-0.191
 7.598 	-0.694 	-0.538
 7.410 	-0.024 	-0.049
 7.222 	-0.185 	0.134
 6.638 	0.555 	0.786
 6.504 	0.439 	0.186
 5.625 	0.299 	0.220
 5.578 	-0.106 	0.374
 5.825 	0.465 	0.972
 6.050 	0.711 	1.273
 6.321 	0.819 	0.785
 5.947 	1.142 	0.578
 5.881 	1.243 	0.621
 5.843 	1.070 	0.611
 5.614 	0.731 	0.681
 7.643 	-0.475 	-0.395
 8.052 	-0.397 	-0.153
 7.987 	-0.309 	-0.698
 7.765 	0.405 	-0.363
 7.277 	-0.145 	-0.070
 6.894 	0.446 	0.375
 7.105 	0.297 	0.291
 6.081 	0.763 	0.143
 5.200 	0.456 	0.335
 5.221 	0.237 	0.638
 5.583 	0.310 	0.635
 5.944 	0.647 	0.705
 5.630 	0.892 	0.712
 5.425 	1.164 	0.815
 5.244 	1.405 	0.757
 5.167 	0.888 	0.609
 7.681 	-0.315 	-0.689
 7.795 	-0.264 	-0.262
 7.426 	0.205 	-0.634
 7.366 	0.220 	0.183
 7.457 	0.532 	0.337
 6.871 	0.370 	0.197
 6.677 	0.157 	0.286
 6.414 	0.898 	0.104
 6.426 	0.817 	-0.068
 6.670 	0.401 	-0.125
 6.327 	0.200 	0.225
 5.780 	0.540 	0.415
 5.927 	0.809 	0.381
 5.899 	1.199 	0.484
 5.947 	1.113 	0.310
 5.401 	1.030 	-0.239
 7.450 	-0.141 	-0.381
 6.995 	0.032 	-0.418
 7.076 	0.395 	-0.300
 7.165 	0.452 	0.277
 7.007 	0.543 	0.415
 6.517 	0.602 	0.512
 6.457 	0.263 	0.383
 6.761 	0.238 	0.245