# vtk DataFile Version 3.0
HighT1
ASCII
DATASET STRUCTURED_POINTS
DIMENSIONS 16 16 19
ORIGIN 929.001000000000 929.001000000000 5.001000000000
SPACING 10.000000000000 10.000000000000 10.000000000000
POINT_DATA 4864
FIELD attributes 1
U 3 4864 float
4.660 	0.135 	-0.828
 5.676 	-0.191 	-1.017
 4.977 	-0.166 	-0.329
 3.949 	0.249 	0.041
 3.341 	0.718 	-0.217
 2.878 	-0.465 	0.249
 3.661 	0.633 	0.387
 3.835 	0.954 	-0.006
 4.636 	0.498 	-0.799
 4.869 	0.524 	-0.396
 5.086 	1.014 	-0.273
 4.005 	0.697 	-0.233
 3.723 	0.852 	0.162
 4.678 	-0.485 	-0.110
 4.905 	-0.493 	-0.075
 4.224 	-0.602 	0.191
 4.137 	0.595 	-0.310
 3.928 	0.650 	-0.079
 4.063 	0.566 	-0.310
 3.387 	0.688 	0.240
 3.641 	-0.235 	-0.317
 4.906 	-0.742 	-1.026
 5.667 	0.928 	-0.890
 4.899 	0.155 	0.436
 4.689 	1.201 	-0.993
 2.975 	1.188 	0.722
 3.050 	0.643 	-0.073
 3.943 	0.035 	-0.173
 4.568 	-0.099 	0.190
 4.990 	-0.052 	-0.089
 4.564 	-0.716 	0.254
 4.923 	-0.856 	0.013
 1.940 	0.598 	0.221
 2.878 	0.978 	0.029
 2.766 	1.135 	0.106
 2.935 	0.031 	0.145
 2.948 	0.233 	-0.055
 2.942 	0.390 	0.513
 3.421 	0.773 	0.345
 4.631 	1.737 	0.209
 3.410 	1.432 	0.297
 4.278 	0.908 	-0.453
 4.083 	0.463 	-0.203
 4.356 	0.046 	-0.043
 4.758 	-0.263 	-0.196
 4.805 	-0.089 	0.094
 5.055 	-1.633 	-0.033
 4.559 	-0.774 	-0.278
 3.233 	0.107 	-0.258
 3.528 	0.486 	-0.094
 4.188 	0.057 	-0.016
 3.532 	0.156 	-0.255
 2.750 	-0.296 	0.484
 2.387 	-0.033 	0.547
 2.381 	-0.529 	0.619
 3.326 	-0.012 	-0.300
 3.338 	0.027 	0.329
 3.652 	0.000 	0.637
 4.091 	-0.254 	0.597
 4.175 	-0.538 	0.079
 4.248 	0.072 	-0.192
 4.717 	-0.615 	-0.608
 4.885 	-0.373 	0.263
 4.758 	-1.079 	-0.226
 2.459 	-0.119 	0.137
 2.402 	0.151 	0.123
 2.776 	0.447 	-0.093
 3.313 	0.186 	0.157
 3.734 	-0.753 	0.148
 3.672 	-0.842 	-0.341
 3.967 	-0.179 	-0.434
 4.329 	0.663 	-0.198
 4.713 	0.587 	-0.779
 3.293 	-0.689 	0.761
 3.149 	-1.619 	0.631
 3.633 	-0.858 	0.288
 3.571 	-0.346 	0.195
 3.627 	-0.530 	-0.524
 3.424 	-0.180 	-0.228
 3.759 	-0.192 	0.179
 3.962 	-0.520 	-0.153
 3.834 	-0.098 	-0.036
 3.372 	-0.415 	0.145
 3.636 	0.027 	-0.345
 3.897 	0.095 	0.032
 3.541 	0.118 	0.072
 3.007 	-0.612 	0.421
 2.893 	-0.002 	0.302
 4.070 	0.080 	0.322
 4.096 	-0.571 	-0.097
 4.430 	-1.050 	0.236
 2.981 	-0.097 	0.109
 2.634 	-0.077 	0.289
 2.698 	0.628 	-0.145
 3.468 	0.135 	-0.128
 4.169 	0.000 	-0.489
 4.480 	-0.059 	-0.101
 4.479 	0.190 	0.055
 4.008 	-0.022 	-0.211
 3.841 	0.110 	0.191
 3.851 	0.001 	0.131
 3.394 	-0.506 	-0.070
 3.724 	-0.914 	-0.249
 4.438 	-0.753 	-0.363
 4.623 	-0.586 	-0.323
 4.547 	-0.608 	-0.375
 4.642 	0.069 	-0.008
 4.183 	0.058 	0.157
 3.441 	-0.340 	0.058
 3.008 	-0.311 	0.408
 2.741 	-0.280 	0.322
 2.747 	0.170 	0.299
 3.139 	0.423 	-0.005
 2.974 	0.184 	0.181
 2.457 	-0.067 	0.252
 2.436 	0.089 	0.342
 3.249 	0.451 	-0.066
 3.467 	0.005 	-0.260
 4.092 	-1.171 	-0.116
 3.300 	-1.381 	0.575
 4.096 	-0.419 	-0.504
 4.780 	0.157 	-0.573
 4.494 	0.554 	-0.225
 4.696 	0.784 	-0.419
 4.648 	0.101 	-0.123
 4.862 	0.126 	-0.347
 4.586 	-0.232 	-0.069
 4.609 	-0.365 	-0.176
 2.993 	0.295 	-0.359
 3.790 	0.112 	-0.185
 4.437 	-0.498 	0.005
 4.286 	0.050 	-0.189
 3.881 	0.220 	-0.313
 4.332 	-0.018 	-0.161
 4.587 	-0.513 	0.090
 4.525 	-0.169 	-0.421
 4.867 	-0.273 	0.272
 3.172 	0.687 	0.333
 3.571 	0.571 	0.071
 3.931 	0.532 	0.183
 4.142 	0.608 	0.168
 3.792 	0.288 	0.038
 4.200 	-0.244 	-0.263
 4.370 	-0.148 	-0.038
 4.177 	0.309 	-0.434
 4.282 	0.277 	-0.342
 4.597 	0.147 	-0.483
 4.622 	0.412 	-0.285
 4.241 	0.359 	-0.271
 4.511 	-0.094 	-0.406
 4.631 	0.124 	-0.379
 3.929 	-0.404 	0.472
 4.187 	0.630 	0.007
 3.553 	0.211 	0.207
 4.023 	0.522 	-0.205
 4.268 	0.635 	-0.170
 4.061 	0.437 	-0.107
 4.131 	0.455 	-0.310
 4.013 	-0.289 	0.050
 3.663 	-0.173 	-0.003
 3.993 	0.405 	0.214
 3.855 	0.800 	0.128
 3.910 	0.789 	0.122
 3.792 	0.706 	0.096
 3.822 	0.563 	-0.195
 3.991 	0.673 	-0.129
 3.606 	-0.340 	-0.028
 3.708 	0.112 	0.359
 3.409 	0.669 	-0.023
 3.605 	0.457 	-0.376
 3.575 	0.320 	-0.387
 3.263 	0.274 	-0.036
 3.777 	0.753 	-0.067
 4.072 	0.457 	-0.354
 4.619 	0.345 	-0.260
 4.577 	-0.220 	-0.283
 2.571 	-0.476 	0.170
 2.563 	-0.306 	0.195
 2.926 	-0.065 	0.264
 3.187 	0.611 	0.151
 3.617 	0.340 	0.165
 4.189 	0.352 	0.446
 4.078 	-0.659 	0.045
 3.747 	-0.408 	-0.103
 4.124 	0.596 	0.019
 4.016 	0.748 	-0.102
 3.976 	0.778 	0.008
 4.102 	0.705 	-0.160
 4.640 	0.600 	-0.124
 4.369 	0.670 	-0.169
 4.134 	0.419 	-0.232
 4.050 	0.282 	0.243
 3.673 	-0.413 	0.316
 3.731 	-0.794 	-0.072
 3.543 	-0.294 	0.025
 3.602 	-0.399 	-0.026
 3.869 	-0.385 	0.043
 3.751 	-0.213 	0.284
 4.156 	-0.852 	0.076
 3.875 	-0.094 	0.064
 3.576 	0.343 	0.134
 3.776 	0.432 	-0.003
 4.388 	-0.076 	0.158
 4.325 	0.197 	0.090
 4.391 	0.846 	-0.032
 4.297 	0.619 	-0.036
 3.972 	0.862 	-0.037
 3.574 	0.366 	0.329
 3.908 	-0.443 	0.324
 3.639 	-0.413 	-0.053
 3.364 	-0.296 	-0.055
 3.804 	0.132 	-0.291
 3.820 	0.122 	-0.161
 4.600 	0.355 	-0.174
 4.336 	-0.262 	-0.138
 4.013 	-0.154 	0.185
 4.379 	-0.386 	-0.222
 4.621 	-0.257 	0.085
 4.744 	0.032 	-0.204
 4.489 	0.273 	-0.169
 4.315 	0.642 	0.181
 3.963 	0.261 	-0.209
 4.187 	1.053 	0.005
 3.860 	0.570 	-0.161
 3.890 	-0.128 	-0.142
 3.609 	-0.012 	0.055
 3.102 	-0.485 	0.054
 3.136 	-0.270 	0.201
 3.572 	0.177 	0.014
 3.996 	0.016 	-0.262
 4.311 	0.291 	-0.181
 4.241 	0.080 	0.011
 3.951 	-0.533 	-0.293
 3.969 	-0.121 	0.246
 3.786 	0.487 	0.301
 3.705 	0.579 	0.098
 3.698 	0.492 	-0.191
 4.104 	0.845 	0.041
 3.909 	0.501 	0.395
 4.421 	0.251 	0.236
 3.281 	0.175 	-0.207
 3.647 	0.075 	-0.394
 3.454 	-0.336 	-0.093
 3.114 	-0.072 	0.104
 2.333 	0.443 	0.134
 2.360 	-0.349 	0.258
 2.644 	0.140 	0.031
 2.988 	-0.075 	-0.153
 3.446 	0.580 	0.340
 2.237 	-0.390 	0.115
 2.161 	-0.037 	0.263
 2.457 	0.211 	0.170
 3.060 	0.361 	0.068
 2.951 	-0.781 	0.079
 2.667 	-0.107 	0.544
 2.044 	-0.370 	0.309
 5.384 	0.914 	-0.531
 6.214 	0.146 	-1.443
 6.268 	0.044 	-1.108
 6.290 	-0.586 	-0.253
 5.098 	0.323 	0.438
 5.048 	0.272 	-0.590
 5.918 	-0.140 	-0.771
 5.961 	0.155 	-0.591
 6.501 	0.050 	-0.736
 7.173 	0.249 	-0.869
 7.049 	1.001 	-0.301
 6.398 	1.001 	-0.256
 6.142 	1.252 	-0.211
 5.634 	0.263 	0.694
 5.406 	0.357 	0.126
 5.484 	-0.670 	0.275
 6.297 	0.733 	-0.236
 5.481 	-0.141 	-0.963
 5.495 	1.015 	0.186
 4.896 	0.068 	1.174
 5.464 	0.392 	-0.383
 5.123 	-0.110 	-1.070
 4.684 	-0.317 	-1.194
 5.509 	0.681 	-0.137
 5.473 	0.708 	-0.899
 5.680 	0.823 	-0.011
 5.282 	1.369 	0.578
 5.380 	1.299 	-0.071
 5.820 	2.175 	0.447
 5.860 	-0.035 	0.510
 5.553 	-0.061 	0.603
 5.183 	-0.588 	0.194
 4.779 	-0.266 	-0.237
 4.792 	0.713 	-0.665
 4.501 	0.994 	0.603
 4.819 	-0.359 	0.612
 5.145 	0.242 	-1.595
 4.543 	0.198 	0.209
 3.880 	-0.775 	0.200
 3.769 	-0.156 	0.551
 3.584 	0.409 	0.625
 4.156 	0.012 	1.330
 5.169 	0.614 	1.011
 5.398 	0.509 	0.790
 5.581 	0.959 	0.373
 5.819 	-0.230 	0.290
 5.212 	0.704 	0.256
 5.097 	-0.351 	-0.409
 3.884 	-0.241 	0.213
 3.922 	0.746 	0.479
 4.707 	1.547 	-0.116
 3.442 	0.202 	0.693
 3.180 	0.609 	0.722
 3.534 	0.511 	1.186
 4.117 	-0.192 	0.151
 4.272 	0.602 	-0.165
 4.951 	-0.257 	0.657
 5.302 	-0.583 	1.222
 4.720 	-0.194 	0.026
 5.575 	-0.504 	0.201
 5.699 	-0.850 	0.035
 5.503 	-0.347 	0.299
 4.912 	-0.418 	-0.067
 5.126 	0.128 	-0.789
 4.380 	0.058 	-0.194
 4.652 	-0.244 	0.157
 4.302 	0.317 	0.562
 4.703 	-0.008 	0.084
 4.868 	0.045 	-0.011
 4.921 	0.268 	-0.014
 5.065 	-0.475 	-0.040
 5.688 	0.153 	-0.213
 5.893 	-0.160 	-0.505
 5.748 	0.135 	0.086
 5.634 	0.463 	-1.194
 5.290 	-0.324 	0.034
 5.028 	-0.772 	-0.205
 5.742 	-0.912 	-0.313
 5.720 	-0.482 	-0.434
 5.836 	-0.222 	-0.334
 4.750 	0.363 	-0.322
 4.952 	0.368 	-0.375
 5.219 	-0.129 	0.198
 5.079 	-0.269 	-0.099
 4.911 	-0.467 	0.291
 4.950 	-0.603 	-0.029
 4.789 	-0.092 	0.156
 3.997 	-0.392 	0.937
 4.542 	-0.060 	0.145
 5.109 	0.861 	-0.464
 5.127 	0.630 	-0.499
 5.506 	-0.485 	0.299
 5.220 	-0.479 	-0.148
 5.220 	-1.090 	-0.247
 6.181 	-0.285 	-0.677
 6.372 	0.019 	-0.715
 4.746 	-0.124 	0.206
 4.696 	0.596 	0.387
 4.798 	0.455 	-0.059
 4.790 	0.125 	-0.439
 4.870 	-0.122 	-0.427
 4.851 	-0.329 	-0.437
 4.901 	0.302 	-0.384
 5.419 	-0.048 	0.011
 4.522 	0.066 	0.184
 4.278 	0.416 	0.140
 4.914 	0.504 	0.208
 5.470 	0.321 	0.116
 5.525 	-0.559 	0.114
 5.997 	0.444 	-0.165
 4.411 	-0.563 	1.040
 5.725 	-0.694 	-0.664
 5.222 	-0.049 	-0.431
 4.766 	0.294 	-0.112
 4.453 	0.520 	0.001
 4.187 	-0.084 	0.276
 4.528 	0.478 	0.065
 4.659 	-0.240 	0.135
 4.919 	0.011 	-0.212
 5.399 	-0.473 	-0.820
 5.678 	-0.062 	-0.315
 5.520 	-0.497 	-0.480
 5.121 	0.308 	-0.364
 5.528 	-0.249 	-0.317
 5.520 	-0.596 	-0.342
 5.930 	0.224 	0.018
 5.479 	0.056 	0.053
 5.617 	-0.289 	-0.030
 4.883 	0.425 	-0.627
 4.739 	0.576 	-0.127
 4.649 	0.678 	0.125
 4.647 	0.198 	0.126
 4.646 	-0.352 	-0.021
 4.750 	-0.694 	-0.037
 5.017 	-0.573 	-0.376
 5.140 	-0.311 	-0.366
 5.114 	-0.027 	0.180
 5.545 	-0.310 	-0.472
 5.286 	0.005 	-0.239
 5.707 	0.062 	-0.770
 5.174 	0.180 	0.465
 5.580 	-0.450 	-0.242
 5.370 	-0.166 	-0.350
 5.002 	0.082 	0.230
 4.366 	0.451 	-0.512
 5.108 	0.806 	-0.748
 4.940 	0.805 	-0.630
 4.994 	0.207 	-0.681
 4.980 	-0.185 	-0.363
 4.395 	-0.722 	-0.679
 4.759 	-0.389 	-0.048
 5.362 	0.375 	0.238
 4.849 	0.529 	0.038
 5.429 	0.212 	-0.267
 4.852 	-0.042 	-0.319
 4.833 	-0.374 	-0.392
 5.356 	0.226 	-0.298
 5.294 	0.631 	-0.034
 4.574 	-0.160 	0.173
 4.630 	-0.161 	-0.054
 2.995 	-0.165 	0.362
 3.492 	-0.055 	0.242
 4.049 	0.512 	-0.107
 3.865 	0.427 	-0.027
 4.439 	-0.234 	-0.988
 4.645 	0.014 	-0.691
 4.749 	0.301 	-0.047
 4.296 	-0.245 	0.540
 4.805 	0.649 	0.159
 4.497 	0.338 	0.085
 4.410 	0.229 	0.076
 4.964 	-0.504 	0.039
 5.180 	0.472 	-0.227
 4.960 	0.562 	0.022
 4.747 	0.180 	-0.181
 4.667 	-0.847 	-0.100
 2.992 	-0.027 	0.368
 2.782 	-0.311 	0.597
 3.065 	0.053 	1.047
 3.041 	-0.108 	-0.188
 3.532 	0.182 	-0.401
 3.707 	0.641 	0.029
 4.041 	0.468 	-0.100
 4.173 	0.019 	0.199
 4.665 	0.062 	0.259
 4.237 	-0.102 	0.504
 4.756 	-0.530 	0.114
 4.845 	-0.633 	-0.343
 4.793 	0.332 	0.030
 5.022 	0.641 	0.142
 4.601 	-0.270 	0.065
 4.703 	-0.317 	-0.241
 3.562 	0.172 	0.029
 3.442 	-0.313 	0.331
 3.188 	0.014 	0.565
 3.560 	0.141 	-0.333
 4.351 	0.533 	-0.626
 4.386 	0.873 	-0.349
 4.732 	0.664 	-0.651
 4.359 	-0.044 	-0.178
 4.303 	-0.331 	0.074
 4.612 	-0.130 	0.308
 4.801 	-0.625 	0.149
 4.751 	-0.111 	-0.364
 4.202 	-0.061 	0.052
 3.962 	0.179 	0.764
 4.467 	-0.382 	-0.366
 4.182 	0.226 	0.543
 4.244 	0.310 	0.111
 3.758 	-0.110 	0.196
 3.766 	-0.426 	0.091
 4.151 	0.110 	-0.229
 4.711 	0.404 	-0.474
 4.726 	0.561 	-0.458
 4.714 	0.709 	-0.123
 4.855 	0.629 	-0.412
 4.604 	0.011 	-0.052
 5.022 	-0.264 	-0.076
 4.781 	-0.685 	0.262
 4.358 	0.291 	-0.013
 4.444 	-0.005 	0.195
 4.440 	-0.246 	0.096
 3.843 	-0.394 	0.321
 4.300 	0.081 	0.228
 4.230 	0.496 	-0.099
 3.991 	0.143 	-0.051
 3.737 	-0.026 	0.071
 3.835 	-0.293 	-0.014
 4.124 	0.076 	-0.018
 4.443 	0.508 	-0.049
 4.741 	0.296 	-0.399
 5.167 	0.857 	-0.412
 5.116 	-0.015 	0.130
 4.801 	-0.427 	0.442
 4.027 	-0.282 	0.346
 4.099 	0.276 	0.070
 3.771 	0.522 	0.195
 3.439 	-0.093 	0.633
 4.117 	-0.635 	1.102
 4.362 	-1.191 	0.646
 3.839 	0.257 	-0.079
 3.690 	0.081 	-0.141
 3.858 	-0.135 	-0.080
 3.656 	-0.656 	0.194
 3.786 	-0.201 	-0.058
 4.012 	-0.115 	0.007
 4.603 	0.076 	-0.103
 4.890 	0.301 	0.020
 4.835 	0.005 	0.386
 4.819 	-0.248 	0.097
 3.773 	0.154 	0.344
 3.087 	0.140 	0.089
 3.498 	0.549 	0.901
 4.170 	0.402 	0.342
 4.034 	-0.850 	0.239
 4.348 	-1.314 	-0.276
 6.193 	1.721 	0.423
 6.789 	1.102 	0.031
 6.489 	0.199 	-0.787
 6.731 	0.294 	-0.742
 7.375 	0.789 	-0.527
 6.430 	-0.417 	-0.367
 6.546 	0.133 	-1.168
 6.405 	-0.125 	-1.119
 6.817 	0.143 	-0.854
 6.737 	0.228 	-0.726
 6.726 	-0.151 	-0.672
 7.083 	0.662 	-0.135
 6.778 	0.866 	-0.355
 5.665 	0.498 	1.122
 5.452 	1.004 	-0.046
 5.079 	0.373 	0.286
 6.132 	0.585 	0.458
 5.299 	-0.371 	-0.136
 4.858 	0.363 	0.435
 5.357 	0.332 	-0.182
 5.983 	0.772 	-0.058
 5.702 	-0.204 	-0.404
 5.855 	-0.357 	-1.018
 5.895 	-0.239 	-0.402
 6.651 	0.334 	-0.719
 6.139 	0.402 	0.118
 5.768 	-0.649 	0.541
 5.617 	0.333 	-0.353
 5.115 	1.366 	0.168
 4.961 	1.180 	0.667
 4.880 	1.329 	0.759
 5.764 	0.674 	0.197
 4.843 	-0.437 	-0.066
 5.085 	-0.544 	-0.142
 4.931 	0.842 	0.218
 4.963 	0.756 	-0.407
 5.151 	0.625 	-0.581
 5.795 	0.106 	-0.641
 4.941 	0.601 	-0.499
 4.711 	-0.368 	0.669
 4.532 	0.006 	0.900
 4.763 	0.657 	0.944
 5.709 	0.626 	0.180
 5.177 	1.455 	0.916
 4.752 	1.122 	0.949
 5.900 	0.579 	0.510
 6.539 	0.964 	0.645
 5.445 	0.648 	0.694
 4.413 	0.317 	0.318
 4.630 	-0.722 	0.838
 4.048 	0.261 	0.989
 4.479 	0.092 	0.763
 4.263 	0.471 	-0.236
 4.747 	1.101 	0.575
 5.086 	1.007 	-0.457
 5.745 	0.675 	-0.564
 4.632 	0.717 	0.837
 5.125 	1.611 	0.726
 4.780 	0.940 	0.890
 4.935 	1.340 	0.791
 6.180 	0.573 	0.828
 5.472 	0.273 	0.519
 5.812 	1.121 	0.200
 5.497 	0.402 	0.284
 4.247 	0.643 	-0.064
 3.969 	-0.295 	0.577
 4.050 	-0.223 	0.387
 4.768 	-0.078 	0.539
 4.319 	1.106 	0.231
 4.812 	1.271 	0.113
 4.762 	0.467 	0.127
 5.689 	0.130 	0.111
 5.031 	1.077 	-0.052
 5.596 	0.519 	-0.526
 5.984 	0.554 	-0.928
 6.151 	0.240 	-0.871
 5.640 	0.224 	-0.343
 4.934 	0.723 	-0.204
 5.233 	0.726 	-0.288
 5.649 	0.504 	-0.442
 5.896 	-0.508 	-0.179
 5.846 	-0.390 	-0.358
 5.620 	0.218 	0.571
 5.559 	-0.317 	-0.179
 4.433 	1.598 	-0.246
 4.892 	1.107 	0.216
 5.305 	0.952 	-0.128
 5.452 	0.112 	0.242
 5.546 	0.148 	-0.444
 5.645 	0.338 	-0.426
 5.826 	0.256 	-0.399
 5.873 	1.208 	-0.461
 5.780 	0.920 	-0.650
 5.692 	0.545 	-0.622
 5.723 	0.369 	-0.552
 6.143 	0.773 	-0.725
 5.465 	-0.300 	-0.167
 5.128 	-0.394 	0.004
 5.425 	-0.218 	-0.360
 5.366 	0.034 	-0.924
 5.489 	1.522 	-0.408
 5.382 	0.838 	-0.632
 5.836 	1.159 	-0.388
 6.299 	1.128 	-0.773
 5.915 	0.233 	-0.092
 5.660 	0.166 	0.144
 5.775 	0.618 	-0.251
 5.619 	1.484 	-0.307
 5.650 	1.162 	-0.263
 5.912 	0.618 	0.028
 6.135 	0.153 	0.465
 6.224 	-0.377 	0.070
 5.317 	-0.169 	-0.299
 4.784 	-0.055 	0.381
 5.010 	0.323 	-0.048
 4.703 	0.586 	0.310
 4.530 	0.457 	0.384
 5.212 	0.665 	-0.165
 5.698 	0.725 	-0.136
 5.709 	0.794 	0.092
 5.627 	0.364 	0.117
 5.782 	-0.140 	-0.064
 6.255 	0.781 	-0.293
 5.576 	1.247 	-0.315
 6.247 	0.786 	-0.006
 5.854 	-0.019 	0.432
 6.272 	-0.355 	0.108
 6.024 	-0.247 	-0.193
 4.751 	-0.885 	-0.357
 5.025 	0.257 	-0.092
 4.676 	0.641 	0.058
 4.917 	0.959 	0.069
 4.595 	0.776 	-0.111
 4.775 	0.500 	-0.178
 5.183 	-0.274 	-0.487
 5.574 	-0.502 	-0.583
 5.874 	-0.271 	-0.475
 5.865 	-0.213 	-0.333
 5.716 	0.197 	0.206
 6.015 	0.764 	0.408
 5.872 	0.191 	0.076
 6.499 	0.018 	-0.986
 6.305 	0.136 	-0.106
 5.726 	0.196 	0.100
 5.139 	-0.925 	-0.552
 5.043 	-0.201 	-0.473
 5.158 	0.328 	-0.236
 5.294 	1.009 	-0.413
 5.183 	0.680 	-0.444
 5.485 	0.093 	-0.564
 5.870 	-0.259 	-0.785
 5.064 	-0.401 	0.150
 5.051 	-0.104 	-0.335
 5.732 	0.363 	-0.469
 5.224 	0.101 	-0.126
 5.361 	0.461 	-0.625
 5.649 	0.061 	-0.392
 5.410 	-0.047 	0.123
 4.922 	0.292 	0.311
 4.941 	0.391 	0.306
 3.787 	-0.986 	0.308
 4.237 	-0.064 	-0.415
 4.632 	-0.341 	-0.559
 5.325 	0.577 	-0.434
 5.414 	0.536 	-0.872
 5.113 	-0.248 	-0.995
 5.029 	0.461 	-0.205
 5.344 	0.195 	-0.221
 4.404 	0.335 	0.003
 4.188 	0.133 	0.279
 4.800 	0.529 	-0.180
 4.777 	-0.256 	0.056
 4.897 	-0.359 	0.519
 4.621 	0.007 	0.344
 5.176 	-0.138 	0.107
 5.086 	-0.606 	0.350
 4.752 	0.165 	-0.005
 3.757 	-0.217 	0.245
 3.986 	0.590 	0.652
 5.159 	0.448 	-1.279
 4.783 	0.588 	-0.768
 4.632 	0.363 	-0.582
 4.288 	0.480 	-0.202
 3.871 	0.098 	0.516
 4.083 	0.247 	0.795
 4.696 	-0.268 	0.696
 4.839 	-0.439 	0.405
 5.094 	-0.450 	-0.154
 4.980 	-0.631 	-0.108
 5.292 	-0.298 	0.174
 5.842 	-0.595 	-0.148
 5.399 	-0.707 	-0.027
 5.785 	0.335 	-0.027
 5.234 	0.530 	-0.288
 3.802 	1.045 	0.667
 5.186 	0.351 	-1.029
 4.722 	0.614 	-0.594
 4.609 	0.678 	-0.859
 4.716 	0.705 	-0.433
 4.831 	0.739 	-0.340
 4.868 	0.389 	-0.488
 5.161 	-0.107 	-0.240
 5.183 	-0.459 	0.151
 4.963 	-0.528 	-0.088
 5.029 	0.077 	-0.162
 5.309 	-0.180 	0.059
 5.430 	-0.279 	-0.122
 5.158 	-0.301 	-0.271
 4.227 	0.816 	0.649
 4.404 	1.237 	0.122
 5.191 	0.963 	-0.279
 4.858 	0.368 	-0.253
 4.857 	0.311 	-0.450
 5.387 	0.911 	-0.584
 4.769 	0.564 	-0.361
 4.682 	0.545 	0.028
 4.923 	0.845 	-0.496
 5.188 	0.177 	0.119
 5.443 	-0.675 	0.314
 4.780 	-0.201 	0.443
 4.949 	0.120 	0.182
 5.323 	-0.080 	0.220
 4.595 	-0.122 	0.005
 4.493 	-0.050 	0.100
 4.423 	-0.179 	0.526
 4.534 	0.069 	0.140
 4.512 	0.317 	0.492
 4.605 	0.573 	-0.156
 4.430 	0.432 	0.007
 4.761 	0.328 	-0.096
 5.277 	0.680 	-0.531
 4.995 	0.590 	-0.334
 5.012 	0.451 	0.153
 5.214 	-0.013 	0.191
 5.311 	-0.173 	0.193
 5.454 	-0.008 	-0.024
 4.934 	0.343 	0.295
 4.987 	0.511 	-0.034
 4.394 	0.677 	0.527
 4.741 	0.634 	-0.052
 4.909 	-0.260 	0.098
 4.620 	-0.504 	-0.092
 4.638 	-0.345 	0.221
 4.525 	0.486 	0.235
 4.606 	0.530 	0.036
 4.438 	0.521 	0.563
 5.077 	0.814 	-0.413
 5.169 	0.572 	0.195
 5.593 	0.741 	0.330
 5.298 	0.528 	0.014
 5.363 	-0.124 	0.096
 4.980 	-0.168 	0.584
 5.274 	0.746 	0.429
 5.133 	0.868 	0.127
 4.804 	0.840 	0.461
 5.216 	0.907 	-0.252
 5.781 	0.640 	0.732
 6.667 	1.238 	0.533
 6.711 	0.330 	-0.026
 7.134 	0.691 	0.029
 7.588 	0.995 	-0.091
 7.137 	0.573 	-0.302
 7.234 	0.635 	-0.528
 6.974 	0.613 	-0.657
 6.971 	-0.071 	-0.865
 6.913 	-0.047 	-0.701
 6.701 	-0.009 	-0.144
 7.555 	0.505 	-0.021
 6.553 	0.549 	0.009
 6.862 	0.853 	0.568
 7.141 	1.416 	0.436
 6.865 	1.118 	0.356
 6.093 	0.436 	0.938
 6.303 	0.196 	0.458
 6.254 	-0.430 	0.713
 5.945 	-0.474 	-0.264
 6.177 	0.382 	-0.245
 6.537 	0.601 	-0.226
 5.881 	-0.079 	-0.573
 6.403 	0.029 	-0.255
 6.249 	-0.760 	-0.165
 6.405 	0.524 	-0.643
 6.940 	0.649 	-0.169
 7.025 	0.628 	-0.256
 6.387 	1.141 	-0.589
 6.462 	1.366 	0.600
 6.587 	0.999 	0.424
 7.032 	1.477 	-0.379
 6.669 	0.616 	-0.517
 6.732 	-0.253 	-0.051
 6.355 	0.137 	0.478
 5.582 	-0.761 	-0.179
 5.682 	0.307 	-0.887
 6.204 	0.917 	-0.723
 6.053 	0.575 	0.183
 5.591 	-0.798 	0.519
 5.429 	-0.666 	-0.090
 5.519 	0.659 	-0.405
 5.525 	0.788 	0.474
 5.771 	0.842 	0.436
 5.589 	1.321 	0.778
 5.971 	1.772 	0.110
 5.954 	1.055 	0.643
 6.355 	1.354 	0.733
 5.346 	0.280 	0.160
 5.120 	0.461 	0.600
 4.363 	0.243 	1.118
 5.237 	-0.188 	0.155
 6.387 	-0.563 	-0.673
 6.444 	0.224 	-0.771
 6.379 	0.071 	-0.527
 5.681 	0.603 	-0.251
 5.054 	0.373 	0.246
 4.864 	0.732 	-0.015
 5.195 	1.044 	0.721
 5.028 	1.306 	0.722
 5.408 	1.365 	0.843
 5.682 	1.826 	0.482
 5.827 	1.320 	0.769
 6.065 	1.631 	0.225
 4.965 	0.145 	0.420
 4.704 	0.348 	1.153
 4.734 	-0.151 	-0.109
 5.263 	0.145 	0.054
 5.737 	-0.253 	0.124
 5.541 	0.655 	0.140
 6.937 	0.981 	-0.962
 6.515 	1.081 	-0.409
 6.100 	0.102 	0.708
 5.954 	0.724 	-0.424
 5.614 	1.244 	-0.136
 6.336 	0.567 	-0.194
 6.149 	1.142 	-0.574
 5.897 	1.455 	-0.300
 6.078 	1.939 	-0.564
 6.386 	1.289 	-0.696
 6.129 	0.103 	-0.483
 6.001 	-0.180 	0.338
 5.905 	0.272 	-0.065
 6.179 	0.825 	-0.653
 6.068 	0.011 	-0.233
 5.750 	0.076 	-0.241
 5.760 	0.518 	0.523
 6.206 	1.454 	-0.030
 6.508 	0.832 	0.054
 6.612 	0.136 	-0.272
 7.114 	0.569 	-0.774
 7.119 	0.502 	-0.324
 6.800 	0.627 	-0.471
 7.441 	0.339 	-0.755
 7.015 	0.718 	0.308
 6.758 	0.902 	0.007
 5.836 	-0.452 	-0.243
 5.955 	-0.124 	-0.264
 6.211 	-0.068 	-0.114
 6.422 	0.610 	-0.183
 6.719 	1.199 	-0.727
 6.574 	0.839 	-0.231
 6.168 	0.194 	-0.617
 6.695 	0.423 	-0.635
 6.857 	0.494 	-0.344
 6.692 	-0.064 	-0.170
 6.897 	0.374 	-0.063
 7.158 	0.739 	-0.338
 6.938 	0.666 	-0.399
 6.096 	0.988 	0.182
 6.271 	-0.038 	0.743
 6.339 	0.992 	0.505
 5.447 	-0.098 	-0.151
 5.810 	0.064 	0.033
 5.671 	-0.087 	-0.005
 5.098 	0.072 	0.331
 5.645 	0.752 	0.173
 6.179 	0.767 	-0.377
 5.408 	0.415 	0.135
 5.094 	0.334 	0.449
 5.486 	0.447 	0.178
 6.123 	0.266 	0.098
 6.011 	-0.282 	0.010
 6.072 	0.590 	-0.006
 6.042 	1.693 	0.019
 6.272 	1.323 	0.288
 6.442 	0.339 	-0.128
 6.673 	0.147 	-0.172
 5.243 	0.090 	0.135
 5.501 	0.442 	-0.114
 5.462 	0.525 	-0.019
 5.169 	0.326 	-0.230
 4.733 	0.686 	-0.095
 5.059 	0.875 	-0.283
 5.484 	0.024 	-0.418
 5.552 	0.180 	-0.264
 5.815 	0.312 	-0.334
 6.101 	-0.214 	-0.387
 6.109 	0.032 	0.082
 5.775 	0.758 	0.080
 6.104 	1.164 	0.036
 6.647 	0.784 	-0.219
 7.135 	0.399 	0.021
 6.631 	0.483 	-0.061
 5.233 	-0.228 	-0.408
 5.438 	0.030 	-0.034
 5.625 	0.904 	-0.150
 5.647 	0.765 	-0.582
 5.816 	0.869 	-0.767
 6.205 	0.498 	-0.903
 6.230 	-0.031 	-0.690
 6.377 	0.064 	-0.404
 5.740 	-0.428 	-0.641
 5.813 	0.114 	-0.707
 5.387 	0.273 	-0.275
 5.585 	0.737 	0.087
 5.286 	0.192 	0.579
 5.332 	0.278 	0.480
 5.513 	0.027 	0.571
 5.784 	0.591 	0.228
 5.600 	-0.461 	0.205
 5.405 	-0.374 	-0.615
 5.200 	0.369 	-0.155
 5.744 	0.750 	-0.351
 5.531 	0.513 	-0.537
 5.343 	-0.023 	-0.568
 4.665 	-0.265 	0.185
 4.850 	0.153 	0.290
 5.002 	-0.018 	0.303
 5.259 	0.475 	0.385
 5.547 	1.110 	-0.127
 5.361 	0.524 	0.264
 5.315 	0.395 	0.147
 5.275 	-0.013 	0.403
 4.987 	0.048 	0.492
 5.113 	0.562 	0.596
 5.588 	-0.691 	-0.057
 5.994 	-0.573 	0.078
 5.959 	-0.235 	-0.693
 5.742 	0.583 	-0.616
 5.366 	-0.040 	-0.927
 4.807 	0.688 	-0.230
 4.706 	0.144 	-0.265
 4.413 	0.373 	0.082
 4.572 	0.420 	0.481
 4.474 	0.701 	0.284
 4.911 	1.023 	0.372
 5.233 	1.153 	0.078
 5.134 	0.775 	-0.274
 5.076 	0.289 	-0.014
 4.714 	0.345 	-0.299
 4.694 	0.606 	-0.043
 6.210 	-0.545 	0.089
 5.596 	-0.271 	0.101
 6.140 	-0.302 	0.095
 5.685 	0.280 	-0.617
 5.891 	0.161 	-0.779
 5.931 	0.090 	-0.708
 5.899 	0.635 	-0.100
 5.084 	0.593 	-0.604
 5.308 	0.818 	-0.351
 4.872 	0.442 	-0.186
 4.586 	0.203 	-0.043
 4.824 	0.264 	0.064
 5.092 	0.493 	-0.011
 5.199 	0.360 	0.005
 5.122 	0.225 	-0.216
 5.351 	0.362 	-0.627
 5.359 	-0.514 	0.544
 5.444 	-0.391 	0.021
 5.682 	-0.005 	-0.069
 5.998 	-0.006 	0.093
 5.487 	0.335 	-0.512
 5.672 	0.175 	-0.347
 5.647 	1.155 	-0.608
 6.025 	0.408 	-0.351
 5.493 	0.812 	-0.760
 4.660 	0.205 	0.062
 4.852 	0.002 	0.089
 5.154 	-0.219 	0.119
 5.660 	0.049 	-0.074
 5.745 	0.429 	-0.220
 5.733 	0.180 	-0.176
 5.856 	0.118 	-0.217
 4.539 	-0.455 	0.730
 4.933 	-0.188 	0.789
 5.461 	0.189 	0.634
 5.192 	0.171 	0.422
 5.172 	0.067 	-0.200
 5.310 	0.511 	-0.236
 5.820 	0.585 	-0.808
 5.621 	0.718 	0.081
 5.021 	1.200 	-0.006
 5.206 	0.660 	-0.404
 5.183 	-0.038 	-0.222
 5.268 	-0.266 	0.163
 5.474 	0.072 	0.311
 5.519 	0.504 	-0.116
 5.972 	0.648 	-0.232
 5.784 	0.546 	-0.122
 5.266 	-0.239 	-0.038
 4.693 	-0.443 	0.419
 4.698 	-0.052 	0.744
 4.915 	-0.008 	0.680
 4.941 	0.044 	0.147
 5.286 	0.422 	-0.282
 5.320 	0.503 	-0.306
 4.902 	1.377 	-0.097
 5.112 	1.205 	0.179
 5.208 	0.803 	-0.192
 5.294 	0.091 	0.088
 5.431 	0.014 	0.284
 5.242 	0.103 	0.456
 5.145 	0.520 	0.243
 5.641 	0.704 	0.082
 5.766 	0.742 	-0.040
 5.964 	0.497 	0.286
 5.926 	0.515 	0.192
 6.551 	0.466 	0.611
 7.367 	1.927 	0.733
 7.268 	1.269 	0.522
 7.443 	1.372 	-0.286
 7.453 	1.047 	-0.397
 7.280 	0.813 	-0.499
 7.062 	0.349 	-0.302
 7.265 	0.179 	-0.335
 7.159 	0.081 	-0.499
 7.407 	0.093 	-0.149
 7.414 	-0.224 	-0.490
 7.379 	-0.112 	0.085
 6.783 	0.397 	0.434
 7.088 	0.963 	-0.019
 6.470 	1.278 	0.343
 6.235 	1.031 	0.767
 6.617 	-0.313 	0.558
 6.689 	0.787 	0.344
 7.091 	1.652 	0.078
 6.901 	0.825 	-0.123
 7.114 	0.825 	-0.095
 6.877 	1.063 	-0.182
 6.735 	-0.107 	0.185
 6.787 	-0.270 	-0.665
 6.203 	0.267 	-0.388
 6.596 	0.759 	-0.249
 6.328 	0.205 	-0.075
 6.445 	-0.190 	0.273
 7.220 	-0.004 	0.638
 7.063 	0.267 	-0.069
 6.395 	1.414 	0.076
 7.065 	0.815 	-0.178
 7.614 	-0.156 	-0.007
 6.820 	0.511 	-0.024
 6.809 	1.122 	-0.287
 6.611 	0.966 	-0.432
 6.502 	0.576 	-0.014
 6.465 	1.024 	-0.439
 6.543 	0.498 	0.304
 5.571 	0.370 	-0.133
 5.443 	-0.282 	0.602
 5.513 	0.271 	0.606
 6.283 	-0.078 	0.607
 7.170 	-0.375 	-0.063
 6.879 	-0.402 	0.264
 6.886 	-0.382 	0.859
 6.143 	0.252 	0.662
 6.373 	0.435 	0.841
 7.187 	0.727 	0.415
 7.008 	0.707 	-0.356
 6.699 	0.730 	-0.398
 6.841 	0.884 	-0.040
 6.755 	0.906 	-0.218
 6.525 	0.324 	-0.807
 7.023 	0.772 	0.358
 5.737 	0.950 	0.213
 6.097 	0.655 	0.018
 6.399 	0.763 	-0.036
 6.907 	0.442 	0.520
 6.810 	-0.022 	0.047
 6.812 	0.119 	0.143
 7.272 	0.114 	0.061
 5.863 	-0.578 	0.573
 5.940 	0.347 	1.019
 6.754 	0.041 	-0.027
 6.191 	0.677 	-0.490
 6.382 	0.908 	-0.194
 7.296 	0.754 	-0.655
 7.462 	0.845 	-0.954
 6.871 	0.726 	-0.838
 6.912 	1.373 	0.288
 6.891 	1.059 	0.100
 7.190 	0.979 	-0.510
 7.524 	1.226 	-0.402
 7.281 	1.284 	-0.385
 7.273 	0.555 	0.096
 7.578 	-0.024 	0.382
 7.548 	0.160 	-0.034
 6.003 	-0.287 	0.259
 6.518 	-0.162 	0.376
 6.236 	-0.583 	-0.001
 6.653 	0.309 	-0.370
 6.982 	1.150 	-0.927
 6.662 	0.781 	-0.448
 6.720 	0.278 	-0.001
 7.545 	0.892 	-0.929
 7.327 	1.296 	-0.432
 7.721 	0.954 	-0.246
 7.720 	1.092 	-0.344
 7.228 	1.076 	-0.184
 7.424 	1.409 	-0.531
 7.418 	1.134 	-0.572
 7.329 	0.286 	0.243
 6.512 	0.089 	0.246
 6.136 	-0.323 	-0.442
 5.986 	-0.883 	0.102
 5.933 	-0.490 	-0.273
 6.143 	-0.373 	-0.427
 6.814 	0.519 	-0.652
 7.352 	1.476 	-0.608
 6.893 	0.390 	-0.079
 6.673 	0.733 	0.133
 6.442 	1.399 	-0.065
 6.386 	0.558 	-0.166
 7.170 	0.578 	0.267
 7.432 	0.818 	0.004
 7.204 	1.025 	-0.631
 6.803 	1.041 	0.269
 6.813 	0.706 	0.521
 6.813 	0.379 	0.443
 5.880 	-0.674 	-0.289
 6.022 	-0.665 	-0.437
 5.544 	-0.428 	-0.039
 5.447 	-0.340 	0.229
 6.159 	0.064 	0.293
 6.466 	1.005 	0.179
 6.266 	0.417 	0.282
 6.574 	0.507 	0.499
 6.824 	1.402 	0.065
 7.137 	0.971 	0.212
 6.629 	-0.071 	0.231
 6.622 	0.689 	-0.169
 6.590 	0.857 	-0.147
 6.917 	1.367 	0.103
 7.308 	1.049 	-0.138
 7.046 	0.512 	0.142
 5.870 	-0.757 	-0.283
 6.586 	-0.311 	-0.715
 6.668 	0.127 	-0.602
 6.862 	-0.066 	-0.635
 6.488 	-0.408 	-0.101
 6.053 	0.924 	-0.186
 5.880 	0.417 	-0.075
 5.673 	0.030 	0.189
 6.053 	0.819 	-0.290
 6.856 	1.399 	0.027
 5.890 	-0.084 	0.189
 5.745 	0.188 	0.349
 6.437 	1.080 	0.014
 6.610 	1.007 	0.337
 6.734 	0.512 	0.083
 6.386 	-0.021 	0.120
 5.795 	-0.952 	-0.337
 5.799 	-0.460 	0.176
 6.151 	0.374 	0.116
 6.485 	0.028 	-0.506
 6.916 	0.098 	-0.693
 6.571 	0.268 	-0.472
 6.508 	0.082 	-0.462
 6.354 	-0.103 	-0.081
 6.378 	0.334 	-0.241
 6.233 	0.351 	-0.239
 6.275 	0.316 	-0.241
 5.839 	0.157 	0.071
 5.462 	0.346 	0.742
 5.867 	0.471 	0.482
 6.022 	0.028 	0.518
 5.976 	0.220 	0.437
 5.976 	-0.408 	-0.071
 5.827 	-0.262 	-0.249
 5.659 	0.297 	-0.119
 5.698 	-0.034 	-0.219
 5.749 	-0.324 	-0.395
 5.756 	-0.038 	-0.356
 5.738 	-0.040 	0.248
 5.765 	0.130 	0.332
 6.379 	0.397 	0.051
 6.661 	0.300 	-0.336
 6.332 	0.182 	-0.170
 6.106 	1.097 	-0.146
 6.155 	0.698 	-0.010
 5.487 	0.489 	0.196
 5.537 	0.375 	0.209
 5.294 	0.322 	-0.100
 5.466 	-0.348 	0.118
 5.656 	-0.278 	-0.044
 5.811 	-0.172 	0.055
 5.808 	-0.299 	-0.645
 5.888 	-0.111 	-0.319
 5.647 	0.107 	-0.211
 5.991 	0.450 	-0.176
 5.592 	0.469 	-0.038
 5.865 	0.377 	-0.493
 4.656 	0.490 	0.130
 4.351 	0.506 	0.099
 4.459 	0.334 	-0.021
 5.159 	0.598 	-0.148
 5.223 	0.573 	-0.439
 4.766 	0.495 	-0.178
 5.086 	0.219 	0.125
 5.992 	-0.500 	0.235
 6.140 	-0.243 	-0.004
 6.254 	-0.223 	-0.303
 6.271 	-0.002 	-0.292
 6.180 	-0.037 	-0.709
 6.083 	0.527 	-0.444
 5.457 	0.092 	-0.517
 5.883 	0.426 	-0.418
 5.036 	0.733 	-0.202
 4.791 	0.901 	0.609
 4.486 	0.670 	0.671
 5.025 	0.349 	-0.133
 5.079 	0.419 	0.036
 4.965 	0.641 	0.049
 5.561 	0.426 	-0.239
 5.998 	-0.080 	-0.579
 5.429 	-0.676 	0.496
 6.050 	-0.689 	0.055
 6.435 	-0.275 	-0.698
 6.672 	-0.285 	0.063
 6.096 	0.019 	-0.226
 5.932 	0.498 	-0.377
 5.865 	0.331 	-0.529
 6.007 	0.644 	-0.573
 5.688 	1.237 	-0.735
 4.941 	1.029 	0.480
 5.431 	0.474 	0.058
 5.645 	0.621 	-0.213
 5.961 	0.778 	-0.232
 6.155 	0.834 	-0.340
 6.256 	0.374 	-0.390
 6.319 	0.213 	-0.274
 5.440 	-0.234 	0.291
 5.095 	-0.931 	0.497
 5.186 	-0.639 	-0.005
 5.338 	-0.557 	0.521
 5.706 	-0.112 	0.107
 5.922 	0.511 	-0.346
 5.742 	0.260 	-0.538
 5.916 	0.597 	0.159
 6.154 	1.106 	-0.395
 6.215 	1.356 	-0.477
 6.195 	0.828 	-0.201
 6.131 	0.619 	0.103
 5.907 	0.799 	0.163
 6.148 	0.882 	-0.169
 6.089 	0.352 	-0.449
 6.156 	0.269 	-0.299
 5.999 	0.103 	0.011
 5.380 	-0.128 	0.142
 4.861 	-0.237 	0.658
 4.843 	-0.487 	0.684
 4.906 	-0.576 	0.144
 5.446 	0.024 	-0.122
 5.929 	-0.086 	-0.266
 5.647 	0.559 	-0.080
 5.698 	1.015 	0.274
 5.797 	1.026 	0.011
 5.998 	0.763 	0.064
 5.780 	0.782 	0.304
 5.723 	0.804 	0.149
 6.122 	0.981 	-0.020
 6.032 	0.755 	-0.225
 5.631 	0.511 	-0.371
 7.151 	1.395 	0.472
 7.168 	1.501 	0.745
 7.664 	1.262 	0.886
 7.669 	1.237 	1.254
 7.586 	2.198 	0.525
 7.571 	1.271 	-0.192
 7.540 	0.736 	-0.196
 7.614 	0.355 	-0.464
 7.853 	0.292 	-0.503
 8.075 	0.460 	-0.496
 7.948 	0.381 	-0.486
 7.998 	0.409 	-0.223
 8.099 	0.481 	-0.403
 8.141 	0.349 	0.054
 8.219 	-0.032 	0.487
 8.786 	0.089 	-0.532
 7.551 	0.876 	0.412
 7.781 	0.660 	0.312
 8.205 	0.935 	0.313
 7.295 	2.054 	0.340
 7.405 	2.045 	0.204
 7.298 	1.145 	0.223
 7.247 	0.684 	-0.062
 7.247 	0.685 	-0.290
 7.353 	0.527 	-0.339
 7.446 	0.349 	-0.364
 7.681 	0.516 	-0.247
 7.716 	0.217 	-0.276
 7.861 	0.380 	-0.231
 7.930 	0.242 	-0.022
 8.140 	0.590 	0.291
 8.286 	0.543 	0.030
 7.013 	0.192 	0.329
 7.412 	0.670 	0.095
 7.311 	0.869 	0.435
 7.736 	1.874 	0.008
 7.898 	1.711 	-0.356
 7.684 	1.211 	-0.292
 7.190 	1.073 	0.229
 7.103 	0.810 	-0.403
 7.210 	0.485 	-0.176
 7.477 	0.633 	-0.397
 7.570 	0.582 	0.125
 7.479 	0.236 	-0.160
 7.472 	0.336 	-0.175
 7.599 	0.698 	0.022
 7.727 	1.297 	0.363
 7.537 	0.821 	0.043
 6.628 	-0.721 	1.041
 7.028 	-0.404 	0.793
 7.406 	0.375 	0.379
 7.498 	1.293 	0.163
 7.667 	1.437 	-0.792
 7.827 	1.262 	-0.311
 7.366 	1.240 	0.024
 7.340 	0.902 	-0.503
 7.425 	0.439 	-0.129
 7.805 	0.398 	-0.309
 7.678 	0.721 	-0.258
 7.511 	0.304 	-0.374
 7.434 	0.780 	-0.146
 7.645 	0.979 	-0.074
 7.611 	0.514 	-0.451
 7.796 	0.240 	-0.095
 6.762 	-0.478 	0.671
 6.382 	-0.948 	0.867
 6.711 	0.331 	0.355
 6.887 	0.879 	-0.168
 7.199 	0.920 	-0.571
 7.705 	1.170 	-0.481
 7.703 	0.975 	-0.650
 7.840 	0.753 	-0.800
 7.477 	0.776 	-0.380
 7.628 	0.916 	-0.182
 7.525 	0.621 	-0.435
 7.435 	0.678 	-0.583
 7.699 	1.078 	-0.394
 7.655 	1.152 	-0.480
 7.324 	0.418 	-0.013
 7.569 	0.243 	0.387