# vtk DataFile Version 3.0
HighT1
ASCII
DATASET STRUCTURED_POINTS
DIMENSIONS 16 16 19
ORIGIN 929.001000000000 929.001000000000 5.001000000000
SPACING 10.000000000000 10.000000000000 10.000000000000
POINT_DATA 4864
 FIELD attributes 1
U 3 4864 float
2.782 	-0.648 	0.012
 2.836 	-1.088 	0.417
 3.696 	-1.210 	0.082
 3.856 	-1.140 	-0.320
 3.191 	-0.084 	0.779
 2.489 	-0.122 	0.503
 3.537 	0.340 	-0.297
 4.226 	-0.623 	-0.166
 3.769 	-0.859 	-0.013
 3.211 	-0.506 	0.069
 3.243 	0.508 	0.115
 3.639 	0.629 	0.108
 3.424 	0.349 	0.164
 3.377 	0.143 	0.233
 3.094 	-0.142 	0.289
 3.262 	-0.385 	0.178
 4.602 	-0.863 	-0.447
 4.241 	-1.350 	-0.143
 4.253 	-0.936 	0.229
 4.783 	-0.844 	-0.260
 5.932 	-0.671 	-0.290
 3.947 	0.239 	-0.040
 3.494 	0.297 	0.422
 3.778 	-0.434 	-0.161
 4.183 	-0.616 	-0.418
 4.253 	-0.147 	0.054
 4.317 	-0.011 	-0.084
 4.383 	0.142 	-0.057
 3.631 	0.097 	0.175
 3.748 	-0.112 	0.080
 3.856 	-0.634 	-0.205
 3.539 	-0.704 	0.343
 4.526 	-1.042 	-0.395
 5.067 	-0.571 	-0.736
 5.273 	-0.422 	-0.226
 5.937 	-0.179 	-0.603
 5.140 	-0.075 	-0.071
 4.122 	0.700 	0.076
 4.210 	0.832 	-0.286
 3.877 	0.320 	0.149
 3.523 	-0.039 	-0.299
 2.452 	0.427 	0.372
 1.694 	-0.246 	0.662
 2.533 	0.211 	0.524
 3.213 	-0.274 	0.430
 3.387 	-0.331 	0.216
 4.142 	-0.857 	0.059
 4.898 	-1.390 	0.118
 3.637 	-0.702 	-0.433
 3.999 	0.242 	-0.313
 4.720 	0.217 	-0.801
 5.377 	0.886 	-0.274
 5.380 	0.434 	-0.137
 5.004 	0.512 	0.036
 4.097 	0.858 	0.062
 3.842 	0.621 	-0.309
 4.700 	0.737 	-0.562
 4.876 	0.324 	-0.240
 5.164 	-0.000 	0.142
 5.255 	0.348 	-0.201
 5.534 	0.357 	-0.383
 5.517 	0.389 	-0.611
 3.960 	-1.131 	0.465
 3.506 	-0.495 	0.093
 2.353 	-0.586 	0.545
 2.755 	0.142 	0.753
 4.125 	0.695 	-0.135
 5.042 	1.487 	-0.087
 4.623 	1.465 	0.276
 3.025 	0.181 	0.384
 2.896 	0.234 	0.409
 3.300 	0.268 	0.112
 3.984 	0.537 	-0.163
 5.102 	1.239 	-0.660
 5.864 	0.677 	-0.370
 5.322 	0.219 	-0.086
 5.332 	0.372 	-0.023
 5.422 	0.785 	-0.154
 4.905 	0.121 	0.367
 3.292 	-0.254 	0.008
 3.579 	-0.055 	-0.112
 3.711 	-0.175 	0.127
 3.168 	0.433 	0.197
 3.092 	0.312 	0.292
 3.377 	0.136 	0.287
 3.421 	-0.152 	0.061
 3.355 	-0.369 	-0.082
 3.448 	-0.138 	0.020
 3.329 	0.101 	0.182
 3.680 	0.625 	0.009
 4.507 	0.821 	-0.084
 5.111 	0.776 	-0.058
 5.015 	0.701 	0.034
 5.084 	0.195 	0.056
 5.020 	0.318 	0.080
 4.409 	-0.220 	0.102
 3.262 	0.670 	-0.128
 2.316 	0.125 	0.163
 2.314 	0.319 	0.079
 2.485 	0.197 	0.123
 2.661 	-0.067 	0.218
 3.163 	-0.413 	0.174
 3.597 	-0.808 	0.257
 3.770 	-0.617 	0.090
 3.968 	-0.556 	0.202
 4.098 	-0.072 	0.121
 4.386 	0.613 	0.094
 4.622 	0.286 	0.227
 4.785 	0.149 	0.036
 4.406 	0.223 	0.158
 4.495 	0.350 	0.158
 5.004 	-0.400 	-0.081
 3.206 	0.823 	0.220
 3.508 	0.734 	-0.081
 3.607 	0.147 	-0.064
 3.853 	0.427 	-0.212
 3.984 	0.375 	-0.425
 3.910 	0.118 	-0.361
 4.220 	-0.389 	-0.131
 4.403 	-0.521 	-0.077
 4.697 	-0.546 	-0.097
 4.738 	-0.134 	-0.096
 4.975 	-0.072 	-0.061
 5.529 	0.161 	-0.181
 5.735 	0.446 	-0.291
 5.938 	-0.253 	0.012
 5.894 	0.100 	-0.065
 6.097 	-0.592 	-0.206
 3.562 	0.551 	0.104
 4.179 	0.179 	0.095
 4.635 	0.081 	-0.444
 5.424 	-0.360 	0.086
 4.572 	0.428 	0.227
 4.498 	0.757 	-0.106
 4.358 	0.230 	-0.099
 4.580 	-0.335 	-0.040
 4.886 	-0.205 	-0.097
 4.895 	-0.592 	0.093
 5.198 	0.119 	-0.030
 5.341 	0.013 	-0.079
 5.397 	0.076 	0.102
 5.542 	0.029 	0.105
 5.412 	0.102 	-0.158
 5.817 	-0.121 	-0.363
 3.807 	0.527 	-0.119
 3.419 	-0.065 	0.092
 3.527 	0.148 	-0.045
 3.364 	0.278 	0.016
 3.614 	0.062 	0.252
 3.823 	0.320 	0.009
 4.204 	0.233 	-0.194
 4.169 	0.127 	0.187
 4.552 	-0.400 	0.031
 4.745 	-0.762 	0.132
 5.024 	0.046 	-0.196
 5.218 	-0.118 	-0.084
 5.224 	0.013 	0.069
 4.744 	-0.512 	0.164
 4.322 	0.189 	-0.364
 4.732 	0.111 	0.025
 4.894 	0.650 	-0.457
 5.024 	0.810 	-0.030
 5.160 	1.023 	-0.353
 4.895 	0.671 	-0.249
 5.123 	-0.325 	-0.033
 3.730 	-0.403 	0.239
 4.227 	-0.330 	-0.145
 4.772 	0.266 	-0.344
 4.933 	0.397 	-0.071
 3.924 	-0.370 	0.164
 3.053 	-0.328 	0.288
 2.757 	0.029 	0.542
 3.410 	-0.775 	0.445
 4.207 	-1.035 	0.479
 4.183 	-0.420 	0.160
 4.133 	-0.565 	0.231
 4.615 	0.810 	0.071
 4.859 	0.996 	-0.182
 5.197 	1.276 	-0.159
 5.567 	0.840 	-0.268
 5.182 	0.293 	-0.056
 4.336 	-0.513 	0.116
 3.878 	0.399 	0.029
 3.986 	0.192 	-0.152
 4.088 	0.893 	0.309
 3.911 	0.152 	0.049
 3.555 	-1.310 	0.370
 3.977 	-1.144 	-0.128
 4.406 	-0.732 	-0.259
 4.874 	-0.725 	-0.596
 4.934 	-0.556 	-0.735
 5.153 	0.186 	-0.696
 3.760 	-0.128 	0.093
 3.786 	0.468 	-0.011
 4.291 	0.990 	-0.049
 3.962 	0.551 	0.142
 3.507 	0.522 	-0.007
 3.095 	-0.221 	0.460
 2.382 	0.171 	0.359
 2.549 	0.814 	0.577
 3.542 	0.746 	-0.435
 4.801 	0.720 	-0.769
 4.230 	-0.645 	0.124
 4.276 	-0.230 	-0.298
 4.452 	-0.491 	-0.571
 3.610 	-0.314 	-0.078
 3.883 	0.084 	-0.085
 4.652 	0.381 	-0.459
 4.268 	-0.399 	-0.038
 3.941 	0.264 	0.154
 3.853 	0.879 	-0.260
 4.164 	0.200 	-0.236
 5.146 	-0.220 	-0.391
 5.617 	-0.076 	-0.326
 6.093 	0.512 	0.017
 4.321 	0.722 	0.056
 3.923 	0.181 	0.069
 4.363 	0.540 	0.143
 4.901 	0.343 	0.303
 4.670 	-0.184 	0.080
 3.880 	0.425 	-0.112
 3.738 	0.120 	0.089
 3.484 	-0.843 	-0.013
 3.819 	0.302 	-0.003
 3.741 	-0.265 	0.010
 3.651 	-1.097 	0.028
 4.267 	0.117 	0.099
 4.519 	-0.106 	-0.093
 4.390 	0.391 	0.054
 5.007 	0.174 	-0.102
 5.853 	1.175 	-0.407
 5.890 	1.041 	-0.110
 5.533 	0.172 	-0.384
 4.250 	0.472 	0.530
 4.201 	-0.026 	-0.078
 4.272 	0.287 	-0.007
 3.546 	0.246 	0.019
 3.759 	0.309 	0.271
 4.263 	-0.751 	0.001
 3.338 	0.355 	0.256
 2.923 	-0.847 	-0.095
 2.918 	-0.372 	0.038
 2.478 	0.013 	0.202
 2.754 	0.271 	0.171
 3.291 	-0.177 	-0.021
 3.688 	-0.589 	0.333
 5.027 	1.004 	-0.043
 4.976 	0.759 	-0.142
 5.203 	0.984 	-0.019
 5.537 	0.202 	-0.428
 5.477 	0.928 	-0.157
 5.138 	0.577 	-0.326
 4.937 	0.544 	-0.078
 4.450 	-0.012 	-0.113
 4.337 	0.320 	0.231
 3.924 	0.444 	0.319
 4.530 	-0.090 	0.215
 4.628 	-0.586 	0.043
 5.192 	-0.556 	-0.392
 3.499 	-0.995 	0.238
 3.574 	-0.468 	1.721
 4.020 	0.463 	0.633
 4.560 	0.558 	-0.830
 4.263 	0.705 	0.071
 4.562 	-0.269 	-0.391
 4.618 	-0.504 	-0.888
 4.870 	-0.299 	0.211
 4.448 	0.074 	0.392
 4.345 	0.999 	0.522
 4.101 	1.006 	0.887
 3.823 	0.625 	0.919
 4.037 	0.285 	0.858
 4.999 	-0.415 	-0.368
 5.039 	-0.312 	-0.385
 5.470 	-0.849 	-0.627
 4.923 	-0.808 	-0.062
 4.355 	0.886 	0.627
 4.517 	0.413 	-0.304
 3.729 	0.697 	-0.350
 4.340 	1.355 	0.065
 4.828 	0.374 	-0.624
 4.923 	-0.092 	-0.452
 4.912 	-0.478 	-0.493
 5.228 	0.569 	-0.168
 4.708 	0.636 	0.555
 4.583 	0.169 	0.349
 4.342 	0.492 	-0.148
 4.350 	-0.024 	-0.096
 5.382 	-0.592 	-0.292
 5.907 	-1.273 	-0.845
 6.141 	-1.129 	-1.009
 6.352 	-0.904 	-0.544
 5.233 	0.536 	0.167
 4.843 	0.238 	1.014
 5.939 	0.790 	-0.191
 5.341 	1.029 	-0.310
 5.123 	-0.354 	-0.649
 4.872 	0.301 	-0.005
 4.755 	0.109 	0.146
 4.909 	0.677 	-0.112
 5.196 	0.488 	0.189
 5.339 	0.063 	0.277
 4.687 	0.893 	-0.147
 4.954 	0.234 	-0.467
 6.228 	-1.151 	-0.852
 6.086 	-1.196 	-0.728
 6.394 	-0.959 	-1.344
 5.964 	-0.584 	-0.393
 6.347 	0.689 	-0.701
 5.294 	0.009 	1.124
 4.827 	0.334 	0.988
 5.619 	0.439 	-0.021
 6.075 	0.204 	-0.894
 5.912 	0.618 	-0.438
 5.741 	0.405 	-0.322
 5.506 	0.045 	-0.003
 5.820 	0.225 	-0.517
 6.093 	0.774 	-0.596
 5.645 	0.324 	0.257
 6.282 	0.198 	-0.652
 5.961 	-0.522 	0.071
 6.155 	-1.009 	-1.041
 5.386 	-1.277 	-0.531
 6.207 	-0.589 	-0.572
 5.301 	1.369 	0.468
 4.352 	0.580 	1.203
 4.249 	-0.096 	0.728
 5.338 	0.196 	-0.364
 6.063 	0.157 	-0.737
 6.526 	0.285 	-0.825
 6.103 	0.814 	-0.738
 6.371 	0.409 	0.030
 5.529 	0.049 	-0.260
 5.134 	0.782 	-0.132
 4.426 	0.627 	0.164
 4.825 	0.854 	-0.079
 5.683 	-0.786 	-0.689
 4.981 	-0.492 	-0.044
 5.064 	-0.930 	0.181
 4.572 	0.272 	0.186
 4.734 	0.655 	0.910
 5.364 	0.636 	0.156
 5.112 	0.765 	0.146
 5.028 	0.665 	-0.271
 5.750 	0.661 	-0.601
 6.176 	0.476 	-0.622
 6.442 	0.486 	-0.540
 6.244 	0.718 	0.048
 5.469 	0.682 	0.137
 5.376 	1.186 	-0.374
 5.738 	0.933 	-0.096
 5.958 	0.305 	0.105
 5.107 	-0.436 	-0.194
 5.222 	0.147 	-0.256
 4.876 	0.583 	-0.070
 4.624 	0.804 	0.146
 4.953 	0.635 	-0.092
 4.849 	0.632 	0.048
 5.065 	0.338 	0.097
 5.329 	0.554 	-0.096
 5.475 	0.522 	-0.145
 5.517 	0.522 	0.075
 5.548 	0.708 	0.232
 5.309 	0.464 	0.367
 5.675 	0.437 	0.400
 6.003 	0.810 	0.253
 6.172 	0.949 	-0.025
 5.838 	1.026 	0.015
 5.628 	-0.188 	-0.648
 5.280 	0.507 	0.187
 4.941 	0.975 	0.168
 5.040 	0.279 	-0.020
 5.208 	0.309 	-0.171
 5.161 	0.190 	-0.173
 4.903 	0.121 	-0.079
 4.318 	0.256 	-0.132
 4.585 	0.454 	-0.149
 5.065 	0.294 	-0.275
 5.497 	0.148 	-0.306
 5.728 	0.273 	-0.498
 5.875 	0.018 	-0.390
 5.468 	0.493 	0.262
 5.347 	1.025 	0.609
 6.222 	0.213 	0.230
 4.950 	0.519 	-0.269
 4.554 	0.726 	0.354
 4.467 	0.254 	0.007
 4.613 	-0.079 	0.371
 5.259 	-0.591 	0.289
 5.454 	-0.106 	0.019
 5.500 	0.300 	-0.409
 5.452 	0.094 	-0.406
 5.526 	-0.132 	-0.362
 5.448 	0.085 	-0.166
 5.876 	-0.145 	-0.013
 6.053 	-0.134 	0.213
 5.759 	-0.213 	0.295
 6.273 	0.022 	0.159
 6.707 	0.456 	-0.525
 6.878 	0.172 	-0.293
 4.805 	0.572 	-0.264
 5.087 	0.115 	-0.321
 5.204 	-0.167 	-0.315
 4.999 	0.431 	-0.011
 4.266 	-0.668 	0.876
 4.840 	-0.539 	0.144
 5.353 	0.321 	-0.206
 5.753 	0.219 	-0.615
 5.739 	0.248 	-0.307
 5.440 	-0.254 	0.252
 6.195 	-0.338 	-0.009
 5.719 	-0.049 	0.207
 5.816 	-0.075 	0.510
 6.137 	-0.112 	0.542
 6.572 	0.498 	-0.258
 6.346 	0.588 	-0.310
 4.553 	0.364 	-0.496
 4.972 	0.106 	-0.371
 4.763 	-0.461 	-0.307
 5.549 	0.518 	-0.126
 5.160 	-0.036 	0.177
 5.522 	-0.030 	-0.304
 5.671 	0.282 	-0.681
 5.473 	0.141 	-0.639
 5.679 	0.163 	0.090
 5.928 	-0.475 	0.089
 5.927 	-0.558 	0.202
 5.547 	-0.374 	0.049
 4.989 	-0.423 	0.766
 5.263 	0.135 	0.360
 5.913 	0.290 	-0.309
 6.091 	0.552 	-0.392
 4.294 	0.085 	0.430
 4.518 	0.080 	-0.077
 5.507 	-0.115 	-0.802
 4.629 	-0.178 	-0.298
 4.652 	-0.052 	0.729
 4.950 	0.031 	0.499
 5.449 	0.031 	-0.189
 6.275 	0.158 	-0.253
 6.205 	0.041 	-0.016
 6.200 	-0.090 	-0.052
 6.067 	0.178 	0.031
 5.823 	-0.201 	-0.190
 5.992 	-0.059 	-0.322
 5.900 	0.076 	-0.323
 5.409 	-0.304 	-0.018
 6.189 	-0.391 	-0.280
 4.072 	-0.236 	0.809
 4.022 	-0.411 	0.426
 4.276 	-0.374 	0.225
 4.814 	0.071 	-0.028
 5.603 	-0.083 	-0.048
 5.774 	-0.477 	-0.131
 6.119 	-0.669 	0.069
 6.037 	-0.353 	-0.230
 6.192 	-0.017 	-0.439
 6.004 	-0.482 	-0.620
 6.140 	-0.151 	-0.459
 6.349 	0.208 	0.073
 5.585 	0.029 	-0.264
 5.898 	-0.756 	0.096
 5.662 	-0.329 	0.341
 4.703 	-0.771 	-0.074
 4.871 	-0.103 	0.042
 5.330 	-0.042 	-0.068
 5.657 	-0.102 	0.055
 5.351 	-0.007 	-0.394
 5.386 	-0.603 	-0.507
 5.476 	-0.870 	-0.335
 6.051 	-0.218 	0.038
 6.489 	0.091 	0.165
 6.105 	-0.020 	-0.287
 6.155 	-0.773 	0.104
 6.378 	-0.339 	0.011
 5.903 	-0.153 	0.142
 6.613 	-0.013 	-0.420
 6.419 	0.244 	0.198
 5.549 	-0.168 	0.143
 5.347 	-0.268 	-0.002
 5.083 	0.533 	0.289
 4.957 	0.062 	-0.193
 4.858 	-0.053 	0.280
 4.708 	-0.810 	-0.178
 4.780 	-1.164 	-0.108
 4.812 	-1.092 	-0.069
 4.945 	-0.603 	0.010
 5.070 	-0.332 	-0.089
 5.927 	0.570 	0.285
 5.266 	-0.428 	-0.090
 5.094 	-0.543 	-0.085
 5.838 	0.474 	-0.100
 6.615 	0.345 	0.242
 5.751 	0.465 	0.098
 6.259 	0.529 	-0.260
 5.141 	-0.491 	0.276
 3.643 	-0.144 	-0.104
 3.572 	-0.320 	0.597
 3.995 	-0.220 	0.416
 4.635 	-0.750 	-0.346
 4.734 	-1.215 	-0.069
 4.834 	-1.381 	-0.121
 4.601 	-0.883 	0.194
 4.306 	-0.789 	-0.210
 4.831 	0.099 	-0.282
 4.960 	0.017 	-0.206
 4.329 	0.016 	-1.051
 4.879 	0.267 	-0.605
 5.841 	1.158 	0.092
 5.769 	0.251 	-0.832
 5.948 	0.768 	-0.034
 5.973 	0.818 	-0.377
 5.119 	0.943 	0.554
 5.224 	0.349 	-0.838
 5.103 	-0.488 	-0.532
 5.243 	-0.934 	-0.723
 6.006 	-1.578 	1.288
 6.847 	-1.320 	0.004
 5.242 	-1.015 	0.197
 5.787 	-0.561 	-1.010
 6.018 	-0.225 	-0.370
 6.114 	-0.419 	-0.499
 5.513 	-0.862 	-0.407
 5.388 	-0.262 	-0.222
 5.346 	0.725 	0.584
 4.380 	0.752 	1.287
 4.054 	0.868 	1.763
 4.436 	1.871 	1.476
 5.148 	0.629 	-0.058
 5.607 	0.318 	-0.387
 5.800 	-0.384 	-0.893
 6.080 	-1.262 	-0.753
 6.590 	-0.384 	0.925
 6.836 	-0.955 	-0.529
 7.298 	-1.104 	0.166
 6.536 	-0.414 	-0.398
 6.587 	-0.898 	-0.774
 5.988 	-0.500 	-0.131
 5.433 	-0.091 	-0.260
 5.351 	0.398 	-0.267
 4.907 	0.824 	0.704
 4.410 	0.928 	0.699
 4.275 	0.836 	0.607
 4.612 	0.624 	-0.072
 5.725 	0.633 	-0.495
 5.973 	0.195 	-0.421
 6.178 	-0.685 	-1.056
 6.514 	-1.113 	-0.701
 6.181 	-0.552 	0.039
 7.111 	-0.636 	0.260
 6.997 	-0.315 	-0.059
 6.921 	-0.202 	-0.193
 6.721 	-0.093 	-0.611
 6.868 	-0.166 	-0.198
 5.665 	0.216 	-0.184
 5.051 	0.632 	0.252
 5.701 	0.806 	0.282
 5.753 	0.744 	0.127
 5.353 	0.390 	0.312
 4.749 	0.156 	-0.046
 6.450 	-0.313 	-0.632
 6.742 	-0.499 	-0.624
 6.621 	-0.638 	-0.986
 6.800 	-0.725 	-0.713
 6.814 	-0.510 	-0.507
 6.593 	0.285 	1.068
 6.685 	0.272 	-0.265
 7.148 	0.339 	-0.472
 6.590 	-0.075 	-1.158
 6.581 	0.445 	-0.296
 6.028 	0.558 	-0.129
 6.160 	0.289 	0.353
 5.947 	-0.180 	-0.474
 5.867 	0.216 	-0.184
 6.020 	0.690 	-0.013
 6.193 	0.103 	-0.860
 6.699 	-0.850 	-0.086
 6.713 	-0.918 	-0.683
 6.874 	-0.727 	-0.981
 6.593 	-0.971 	-0.545
 5.570 	-0.062 	0.245
 6.413 	0.900 	0.334
 6.631 	0.454 	-0.089
 7.132 	0.608 	-0.505
 6.954 	0.168 	-0.900
 6.409 	0.156 	-0.792
 6.335 	0.681 	-0.295
 6.175 	0.265 	0.370
 6.222 	0.231 	-0.149
 6.085 	-0.072 	-0.120
 6.020 	0.756 	0.214
 5.862 	0.626 	-0.382
 6.809 	-0.673 	-0.891
 6.638 	-0.201 	-0.801
 6.771 	-0.347 	-0.679
 6.197 	-0.321 	-0.131
 5.790 	0.796 	0.893
 5.860 	0.523 	0.663
 5.989 	-0.053 	0.387
 6.753 	0.392 	-0.178
 6.705 	0.060 	-0.634
 6.490 	0.454 	-0.898
 6.623 	0.304 	-0.413
 6.417 	0.342 	0.023
 6.238 	0.111 	0.350
 6.293 	0.130 	-0.286
 5.948 	0.759 	-0.116
 5.817 	0.710 	0.020
 6.299 	-0.199 	-0.393
 6.319 	0.177 	-0.564
 6.916 	0.178 	-0.561
 6.228 	0.702 	0.078
 5.490 	0.621 	0.475
 5.039 	-0.063 	0.318
 5.151 	-0.259 	0.068
 5.306 	-0.374 	-0.220
 5.581 	0.036 	-0.229
 5.566 	0.389 	0.012
 5.247 	0.378 	0.359
 5.489 	-0.064 	0.510
 5.959 	-0.227 	0.377
 6.414 	-0.136 	0.127
 6.562 	0.459 	-0.055
 6.745 	0.545 	-0.084
 5.380 	-0.235 	-0.292
 4.625 	-0.014 	0.034
 4.782 	0.565 	0.619
 5.564 	1.262 	0.652
 5.670 	0.810 	0.178
 5.817 	0.263 	-0.053
 5.740 	0.046 	-0.138
 5.702 	-0.160 	-0.171
 5.481 	0.039 	0.158
 5.753 	-0.302 	0.066
 6.122 	0.184 	0.078
 6.267 	-0.270 	0.019
 6.296 	0.111 	0.303
 6.396 	0.022 	0.347
 5.806 	0.457 	0.581
 6.340 	0.424 	0.209
 5.146 	0.773 	-0.012
 5.368 	0.858 	0.278
 4.967 	0.551 	0.292
 5.436 	0.317 	0.051
 6.208 	0.182 	0.283
 6.687 	-0.067 	0.230
 6.287 	0.334 	-0.224
 6.073 	0.379 	-0.566
 5.805 	0.063 	-0.359
 5.589 	-0.388 	-0.083
 5.677 	-0.518 	-0.060
 6.191 	-0.452 	-0.264
 6.595 	-0.280 	0.010
 6.723 	-0.067 	-0.298
 6.786 	0.471 	-0.007
 6.655 	0.479 	-0.134
 5.381 	0.504 	0.213
 5.492 	1.053 	0.057
 5.597 	0.372 	0.002
 5.287 	-0.615 	-0.237
 5.566 	0.046 	-0.198
 6.214 	0.122 	0.064
 6.076 	0.408 	-0.097
 5.974 	0.666 	-0.262
 5.790 	-0.023 	-0.132
 5.524 	-0.440 	0.206
 5.312 	-0.989 	0.126
 4.798 	-0.920 	0.635
 5.824 	-0.175 	0.214
 6.139 	-0.050 	-0.062
 6.406 	-0.099 	-0.118
 6.600 	0.066 	-0.329
 5.012 	-0.347 	0.184
 5.383 	0.015 	0.022
 5.293 	0.363 	-0.416
 5.081 	-0.603 	-0.003
 4.811 	-0.732 	-0.208
 5.162 	-0.094 	-0.078
 5.823 	0.511 	-0.183
 5.912 	0.367 	-0.209
 6.185 	-0.487 	0.028
 6.220 	-0.644 	-0.026
 6.104 	-0.548 	0.251
 6.143 	-0.126 	0.143
 6.152 	-0.362 	-0.248
 6.364 	-0.090 	0.104
 6.352 	-0.722 	0.078
 6.265 	-0.110 	0.343
 5.624 	-1.262 	0.008
 5.830 	-0.970 	-0.471
 5.956 	-0.451 	-0.733
 5.562 	-0.552 	0.050
 5.275 	-0.415 	0.678
 5.568 	-0.320 	0.104
 5.848 	-0.799 	-0.051
 6.181 	-0.642 	-0.131
 6.186 	-0.610 	-0.005
 6.261 	-0.705 	-0.053
 6.349 	-0.360 	-0.407
 7.220 	-0.281 	-0.256
 6.497 	-0.369 	-0.133
 6.052 	0.123 	0.151
 6.059 	-0.710 	0.231
 6.187 	-0.754 	-0.419
 5.931 	-0.519 	-0.208
 5.484 	-0.392 	-0.008
 5.554 	-0.605 	-0.315
 5.764 	-0.468 	-0.101
 6.066 	-0.141 	0.089
 6.395 	-0.290 	0.182
 6.050 	-0.737 	0.074
 6.032 	-0.469 	0.087
 5.942 	-0.452 	-0.259
 5.983 	-0.792 	-0.561
 6.210 	-0.823 	-0.464
 6.687 	-0.077 	0.002
 6.356 	0.146 	-0.053
 5.950 	0.144 	0.201
 5.683 	-0.358 	0.010
 5.599 	-0.676 	-0.194
 5.150 	-0.430 	0.108
 5.191 	-0.343 	-0.001
 5.276 	-0.649 	0.150
 4.864 	-0.664 	0.233
 5.251 	-1.025 	0.179
 5.545 	-0.868 	0.147
 5.936 	-0.750 	-0.236
 5.486 	-0.477 	-0.108
 5.352 	-0.692 	-0.116
 5.552 	-0.903 	-0.396
 5.496 	-0.372 	-0.247
 5.791 	0.112 	-0.002
 6.083 	0.039 	-0.252
 5.969 	0.114 	0.271
 6.232 	-0.176 	-0.019
 6.000 	0.150 	0.337
 5.127 	-0.482 	0.082
 5.137 	-0.466 	-0.039
 5.112 	-0.771 	0.087
 5.622 	-1.108 	-0.071
 5.095 	-1.061 	-0.038
 4.540 	-1.696 	0.115
 4.613 	-1.237 	0.384
 4.896 	-0.687 	-0.162
 5.325 	-0.255 	0.047
 5.136 	-0.555 	-0.291
 4.772 	-0.614 	-0.567
 4.889 	0.075 	-0.544
 5.480 	-0.122 	-0.387
 5.808 	0.116 	-0.196
 6.355 	0.263 	-0.215
 5.568 	0.275 	0.333
 5.261 	-0.418 	0.214
 5.518 	-0.507 	-0.066
 5.651 	-0.909 	-0.108
 5.361 	-0.961 	-0.550
 5.830 	-0.916 	0.136
 5.747 	-1.128 	-0.119
 5.172 	-1.260 	0.302
 4.910 	-1.047 	-0.039
 5.044 	-0.391 	-0.043
 5.010 	-0.688 	-0.484
 5.157 	-0.237 	-0.877
 4.851 	-0.279 	-0.500
 5.082 	-0.211 	-0.475
 5.698 	-0.353 	-0.775
 5.991 	-0.007 	-0.901
 6.026 	0.483 	-0.411
 5.645 	1.687 	0.206
 5.881 	1.171 	-0.724
 5.506 	0.518 	-0.867
 5.805 	-0.363 	-0.480
 6.473 	-0.726 	-0.470
 5.885 	-1.193 	0.868
 6.478 	-0.917 	-0.205
 5.865 	0.218 	-0.332
 6.208 	0.710 	-0.334
 6.140 	-0.137 	-0.223
 6.407 	-0.655 	0.277
 5.544 	-0.675 	-0.299
 5.610 	0.207 	0.774
 5.395 	0.944 	0.936
 4.698 	0.512 	1.306
 5.365 	0.347 	0.301
 5.977 	1.374 	-0.450
 6.153 	1.168 	-0.731
 6.456 	0.169 	-0.686
 6.592 	-0.497 	-0.765
 6.673 	-1.071 	-0.211
 7.251 	-0.614 	-0.424
 6.731 	-0.401 	-0.419
 6.773 	0.048 	0.007
 5.999 	-0.136 	-0.277
 6.418 	-0.574 	-0.088
 6.833 	-0.114 	-0.378
 5.385 	0.047 	-0.190
 5.284 	0.821 	0.709
 4.849 	1.172 	0.993
 4.621 	0.761 	0.898
 4.795 	0.296 	0.538
 7.066 	1.222 	-0.584
 7.372 	0.793 	-0.493
 6.925 	0.418 	-0.722
 6.838 	-0.601 	-0.706
 6.750 	-0.874 	-0.385
 7.053 	-0.791 	-0.115
 7.011 	-0.406 	-0.751
 6.763 	-0.235 	-0.159
 6.674 	-0.233 	-0.449
 6.697 	-0.200 	-0.194
 6.188 	0.349 	-0.113
 5.330 	0.499 	-0.014
 5.367 	0.428 	0.262
 5.798 	0.985 	0.521
 6.401 	0.643 	0.236
 6.497 	0.655 	0.281
 6.904 	0.635 	-0.123
 6.822 	0.568 	-0.125
 6.883 	0.234 	-0.851
 6.867 	-0.843 	-0.804
 6.701 	-0.590 	-0.281
 6.938 	-0.668 	-0.155
 7.150 	-0.123 	-0.592
 6.942 	0.143 	-0.543
 7.040 	0.021 	-0.776
 6.387 	0.405 	-0.317
 5.674 	0.747 	0.111
 5.635 	0.829 	0.127
 6.025 	0.266 	-0.182
 6.223 	0.050 	0.535
 6.721 	-0.350 	0.165
 5.835 	0.614 	-0.264
 6.819 	0.602 	-0.225
 6.850 	0.385 	-0.713
 7.109 	-0.104 	-1.056
 6.743 	-0.516 	-0.635
 6.554 	-0.645 	0.016
 6.804 	-0.165 	0.043
 6.809 	-0.077 	-0.364
 6.975 	0.123 	-0.518
 6.269 	0.386 	-0.747
 6.373 	0.417 	-0.138
 6.467 	0.553 	-0.018
 6.337 	0.244 	-0.011
 6.535 	0.101 	-0.193
 6.448 	0.109 	0.186
 6.802 	-0.062 	0.134
 6.915 	0.103 	-0.223
 7.221 	0.587 	-0.812
 7.238 	0.235 	-0.741
 7.401 	0.194 	-0.616
 6.796 	-0.045 	-0.640
 6.725 	-0.191 	0.589
 6.262 	-0.185 	0.595
 6.181 	-0.209 	0.355
 6.261 	-0.119 	0.040
 6.850 	0.091 	-0.544
 6.998 	0.136 	-0.545
 6.780 	0.262 	-0.185
 6.461 	0.339 	0.553
 6.646 	-0.115 	0.566
 6.924 	-0.226 	0.006
 7.427 	-0.218 	-0.107
 7.630 	0.206 	-0.195
 7.138 	0.113 	-0.466
 6.819 	0.135 	-0.428
 6.539 	-0.035 	-0.662
 6.817 	0.049 	-0.550
 6.922 	0.445 	0.464
 6.349 	0.419 	0.484
 6.108 	-0.097 	0.222
 6.061 	-0.323 	0.004
 6.237 	-0.262 	-0.178
 6.372 	0.027 	-0.376
 6.552 	0.562 	-0.109
 6.908 	0.386 	0.411
 7.093 	-0.049 	-0.198
 7.082 	-0.351 	-0.151
 7.729 	0.139 	-0.367
 7.784 	0.029 	-0.305
 6.510 	0.198 	0.017
 6.299 	0.119 	-0.500
 6.882 	0.026 	-0.222
 5.810 	0.414 	0.559
 5.922 	0.694 	0.547
 6.762 	0.336 	-0.210
 7.117 	0.296 	-0.271
 7.107 	-0.129 	-0.296
 6.676 	0.199 	-0.170
 6.057 	0.602 	-0.031
 6.596 	0.721 	0.080
 6.874 	0.328 	-0.059
 7.012 	0.077 	-0.245
 6.861 	0.093 	0.198
 6.677 	0.142 	0.390
 6.553 	0.588 	-0.074
 6.122 	0.459 	-0.156
 6.456 	0.423 	-0.236
 5.702 	0.964 	0.628
 5.705 	-0.371 	0.101
 6.517 	-0.215 	-0.136
 7.014 	0.231 	0.154
 7.145 	0.218 	-0.037
 6.495 	0.214 	-0.335
 6.272 	0.308 	-0.150
 6.336 	0.449 	0.013
 6.453 	0.401 	0.104
 6.713 	0.173 	-0.067
 6.878 	0.298 	-0.025
 6.840 	0.285 	-0.001
 6.748 	0.328 	0.185
 6.653 	0.440 	0.056
 5.762 	0.232 	0.095
 6.099 	0.671 	0.248
 6.386 	0.832 	0.152
 5.531 	-0.299 	0.159
 4.864 	-0.955 	-0.001
 6.243 	0.282 	-0.252
 6.756 	0.541 	-0.219
 6.505 	0.467 	0.079
 5.921 	0.378 	0.570
 5.473 	-0.045 	0.505
 5.920 	0.007 	0.401
 6.011 	-0.250 	0.385
 6.137 	-0.556 	0.209
 6.232 	-0.467 	0.423
 6.531 	0.014 	0.247
 6.352 	0.165 	0.047
 4.912 	0.227 	0.243
 5.493 	0.610 	0.535
 5.487 	0.457 	-0.002
 5.854 	-0.479 	-0.140
 6.226 	-0.930 	-0.172
 5.106 	-0.660 	0.152
 5.139 	-0.351 	0.321
 5.474 	0.172 	0.634
 5.527 	0.378 	0.322
 5.816 	-0.182 	0.008
 6.431 	-0.760 	-0.015
 6.862 	-0.848 	0.021
 6.986 	-0.692 	0.138
 6.673 	-0.435 	-0.110
 6.115 	-0.143 	0.281
 6.203 	-0.089 	0.126
 4.466 	0.089 	0.153
 4.837 	-0.035 	0.173
 5.595 	-0.350 	0.417
 6.055 	-0.594 	0.325
 6.335 	-0.841 	0.033
 6.341 	-1.022 	0.004
 6.348 	-0.581 	-0.014
 6.276 	-0.223 	-0.156
 6.820 	-0.276 	-0.199
 6.826 	-0.901 	-0.032
 6.917 	-0.925 	-0.120
 6.921 	-0.873 	-0.284
 6.748 	-0.364 	-0.192
 6.817 	-0.284 	-0.606
 6.873 	-0.004 	-0.078
 7.310 	0.042 	0.112
 5.671 	-0.308 	-0.572
 5.882 	-0.471 	-0.510
 6.173 	-0.548 	-0.206
 6.153 	-1.042 	-0.078
 6.318 	-1.086 	0.086
 6.493 	-0.803 	0.095
 6.587 	-0.746 	-0.127
 6.739 	-0.510 	-0.302
 6.463 	-0.793 	-0.363
 6.848 	-1.014 	-0.582
 6.805 	-0.810 	-0.236
 6.307 	-0.871 	-0.549
 6.197 	0.025 	0.409
 6.832 	0.121 	-0.145
 6.629 	-0.103 	0.343
 6.078 	-0.428 	-0.326
 5.715 	-0.286 	0.136
 5.704 	-0.485 	0.107
 5.620 	-0.966 	0.280
 5.614 	-0.999 	0.094
 5.665 	-1.098 	0.563
 6.236 	-0.605 	0.423
 6.460 	-0.427 	0.234
 6.512 	-0.410 	0.199
 6.549 	-0.631 	-0.218
 6.264 	-0.627 	-0.310
 6.461 	-0.749 	-0.155
 5.886 	-0.823 	-0.296
 5.976 	-0.315 	-0.400
 6.542 	0.014 	0.184
 6.169 	-0.211 	0.279
 6.252 	-0.547 	-0.460
 5.643 	-0.351 	0.232
 5.868 	-0.545 	0.002
 5.860 	-0.707 	0.308
 5.938 	-1.567 	0.049
 5.897 	-1.074 	0.499
 6.109 	-0.891 	0.316
 6.390 	-0.808 	0.124
 6.885 	-0.705 	-0.003
 6.445 	-0.226 	-0.228
 6.668 	-0.251 	-0.388
 6.708 	-0.626 	-0.812
 6.906 	-0.985 	-0.698
 6.447 	-0.337 	-0.185
 5.896 	-0.083 	-0.352
 6.126 	0.316 	-0.089
 6.169 	-0.095 	-0.503
 6.165 	-0.445 	-0.103
 6.645 	-0.605 	0.071
 6.468 	-0.804 	-0.146
 6.518 	-1.420 	-0.760
 6.798 	-0.960 	-0.536
 6.900 	-1.287 	-0.219
 6.175 	-1.115 	0.125
 6.428 	-0.943 	-0.006
 6.767 	-0.132 	-0.233
 6.378 	-0.507 	-0.230
 6.250 	-1.105 	-0.213
 6.257 	-0.788 	0.040
 6.010 	-0.757 	0.008
 6.174 	-0.417 	-0.390
 6.391 	-0.277 	-0.353
 6.412 	-0.004 	-0.583
 6.629 	0.616 	-0.188
 6.436 	0.994 	0.070
 5.996 	0.349 	-0.342
 5.797 	0.297 	-0.272
 5.916 	0.336 	-0.169
 6.039 	0.151 	0.132
 5.923 	0.004 	0.272
 5.987 	0.044 	0.144
 6.055 	-0.296 	-0.146
 6.721 	-0.165 	-0.448
 6.688 	-0.290 	0.114
 7.190 	0.368 	-0.063
 6.887 	-0.047 	0.123
 6.475 	-0.581 	0.625
 6.649 	0.172 	0.310
 6.868 	0.380 	-0.160
 7.338 	0.609 	-0.042
 7.202 	0.921 	-0.153
 6.816 	0.392 	-0.303
 6.651 	0.136 	-0.545
 6.861 	-0.193 	-0.356
 6.857 	-0.273 	-0.163
 6.370 	-0.094 	-0.061
 6.594 	-0.053 	0.331
 6.512 	0.155 	-0.430
 6.800 	-0.005 	-0.495
 6.541 	-0.536 	-0.281
 6.559 	0.287 	0.140
 6.509 	0.323 	0.135
 6.402 	0.073 	0.888
 6.373 	0.636 	0.937
 6.000 	1.149 	0.538
 6.867 	0.623 	-0.409
 7.192 	0.514 	-0.475
 7.550 	0.380 	-0.663
 7.198 	0.089 	-0.474
 7.485 	-0.430 	-0.335
 7.480 	-0.349 	0.040
 7.278 	-0.408 	-0.276
 7.355 	-0.012 	-0.213
 7.133 	-0.551 	-0.172
 7.025 	0.003 	-0.314
 6.639 	0.111 	-0.219
 6.731 	0.422 	0.129
 6.100 	0.731 	0.279
 6.189 	0.236 	0.415
 6.194 	0.253 	0.821
 6.469 	0.658 	0.724
 7.629 	0.703 	-0.082
 7.477 	0.456 	-0.332
 7.229 	0.352 	-0.566
 7.196 	-0.715 	-0.532
 7.441 	-0.828 	-0.312
 7.751 	-0.824 	-0.486
 8.096 	-0.463 	-0.643
 7.875 	-0.306 	-0.580
 7.649 	-0.031 	-0.566
 7.021 	-0.099 	-0.267
 6.290 	0.748 	0.265
 6.193 	0.803 	0.137
 5.989 	1.132 	-0.117
 5.928 	0.762 	0.169
 5.935 	0.259 	0.376
 6.127 	-0.003 	0.154
 7.417 	0.524 	-0.214
 7.603 	0.495 	-0.432
 7.236 	0.027 	-0.865
 6.402 	-0.782 	-0.480
 6.523 	-0.666 	-0.120
 6.679 	-0.627 	-0.280
 7.021 	-0.409 	-0.656
 7.020 	-0.144 	-0.524
 7.092 	0.218 	-0.487
 6.470 	0.617 	0.180
 6.185 	1.061 	0.117
 6.105 	0.729 	0.079
 6.287 	0.617 	0.003
 6.541 	0.393 	-0.014
 6.993 	0.148 	-0.028
 6.668 	-0.016 	0.090
 7.604 	0.883 	-0.367
 7.529 	0.750 	-0.658
 6.870 	0.193 	-0.720
 5.938 	-0.696 	-0.267
 6.085 	-0.381 	0.009
 6.214 	-0.518 	0.456
 6.691 	-0.277 	0.143
 6.687 	-0.143 	-0.026
 6.719 	0.517 	-0.359
 6.566 	0.727 	0.011
 6.612 	0.722 	0.208
 6.655 	0.579 	0.574
 7.006 	0.392 	0.485
 7.031 	0.191 	-0.268
 7.157 	0.201 	-0.203
 7.345 	0.322 	-0.219
 7.557 	0.777 	-0.205
 7.461 	1.249 	-0.945
 6.918 	0.360 	-0.246
 6.289 	-0.452 	-0.153
 6.356 	-0.217 	0.360
 6.464 	-0.430 	0.244
 6.463 	-0.435 	-0.115
 6.716 	-0.362 	-0.096
 6.539 	-0.056 	0.007
 6.734 	0.261 	-0.211
 6.975 	0.374 	-0.347
 7.255 	0.175 	-0.179
 7.623 	0.135 	-0.222
 7.607 	0.122 	-0.312
 7.351 	-0.006 	-0.424
 7.381 	0.147 	-0.255
 6.824 	0.605 	-0.061
 6.751 	0.729 	-0.743
 6.667 	0.471 	0.039
 6.071 	-0.118 	0.387
 5.937 	-0.296 	0.372
 6.053 	-0.518 	0.142
 5.964 	-0.577 	-0.308
 6.380 	-0.304 	-0.382
 6.216 	-0.257 	-0.343
 6.195 	-0.066 	-0.264
 6.382 	-0.043 	-0.254
 6.659 	0.039 	-0.212
 6.818 	0.119 	-0.344
 6.916 	0.174 	0.121
 6.735 	-0.131 	0.212
 6.822 	0.234 	-0.146
 6.294 	0.437 	-0.523
 6.298 	0.525 	-0.091
 6.264 	0.220 	0.359
 6.487 	0.072 	0.697
 6.366 	-0.155 	0.366
 5.962 	-0.779 	-0.285
 5.614 	-0.456 	-0.106
 5.824 	-0.138 	-0.401
 5.763 	0.009 	-0.274
 5.954 	0.287 	-0.138
 6.101 	0.047 	0.107
 6.256 	0.077 	0.161
 6.427 	0.236 	0.245
 6.500 	-0.050 	0.204
 6.752 	-0.136 	0.265
 6.727 	-0.398 	0.254
 5.865 	0.074 	0.093
 6.127 	0.237 	0.276
 5.873 	0.336 	0.460
 5.795 	0.135 	0.340
 5.229 	-0.435 	0.203
 5.224 	-0.746 	0.302
 5.188 	-0.531 	0.157
 5.187 	-0.288 	0.346
 5.352 	-0.095 	0.664
 5.460 	-0.031 	0.670
 5.862 	-0.347 	0.811
 6.231 	-0.204 	0.780
 6.379 	-0.436 	0.721
 6.342 	-0.446 	0.945
 6.346 	-0.489 	0.795
 6.684 	-0.761 	0.319
 4.643 	-0.150 	0.122
 4.956 	-0.072 	0.267
 5.331 	0.525 	0.201
 5.313 	0.219 	0.041
 5.408 	-0.406 	-0.020
 5.626 	-0.660 	0.432
 5.146 	-0.511 	1.203
 5.344 	-0.053 	0.745
 5.878 	0.033 	0.370
 6.472 	-0.485 	0.046
 6.798 	-0.875 	0.076
 7.119 	-0.633 	-0.004
 6.769 	-0.450 	0.004
 6.319 	-0.506 	-0.098
 6.687 	-0.525 	0.096
 6.849 	-0.375 	-0.513
 4.925 	0.001 	0.543
 5.143 	-0.126 	0.293
 5.211 	0.262 	0.374
 5.512 	0.211 	0.370
 6.192 	-0.566 	0.144
 6.549 	-0.886 	-0.050
 6.410 	-0.516 	-0.003
 6.436 	-0.419 	0.464
 7.033 	-1.035 	0.369
 7.327 	-0.881 	0.149
 6.940 	-0.855 	-0.076
 6.863 	-0.626 	-0.192
 6.841 	-0.543 	-0.201
 6.818 	-0.353 	-0.311
 6.946 	-0.125 	-0.065
 7.176 	-0.233 	-0.108
 6.364 	0.113 	-0.629
 6.310 	0.004 	-0.490
 5.918 	0.011 	-0.494
 6.086 	-0.390 	-0.089
 6.496 	-0.967 	0.163
 6.536 	-1.000 	-0.019
 6.607 	-0.677 	-0.263
 6.824 	-0.692 	-0.163
 7.038 	-1.128 	-0.256
 6.828 	-1.042 	-0.400
 6.520 	-0.906 	-0.166
 6.514 	-0.869 	0.008
 6.569 	-0.675 	0.013
 6.448 	-0.528 	-0.164
 6.508 	-0.510 	0.295
 6.869 	-0.248 	0.232
 5.898 	0.305 	-0.109
 5.987 	0.288 	-0.149
 6.248 	0.172 	0.172
 6.238 	-0.627 	0.320
 6.365 	-1.238 	0.332
 6.732 	-1.178 	0.032
 7.148 	-1.049 	-0.081
 7.058 	-0.962 	-0.124
 7.443 	-1.224 	-0.218
 6.850 	-0.635 	-0.362
 6.177 	-0.670 	0.069
 6.453 	-1.162 	0.019
 6.616 	-0.604 	0.058
 6.426 	-0.741 	0.032
 6.677 	-0.785 	-0.030
 6.640 	-0.811 	0.025
 6.432 	0.648 	-0.010
 6.558 	0.533 	-0.116
 6.450 	0.205 	0.036
 6.330 	-0.578 	0.234
 6.300 	-1.353 	0.490
 6.714 	-1.579 	0.467
 6.896 	-1.553 	0.333
 7.341 	-0.992 	-0.215
 7.445 	-0.681 	-0.283
 7.128 	-0.866 	-0.368
 7.146 	-0.542 	-0.305
 7.149 	-1.371 	-0.466
 7.425 	-0.844 	0.078
 7.448 	-0.685 	-0.315
 7.022 	-1.011 	-0.132
 6.983 	-0.746 	-0.614
 6.180 	0.595 	-0.633
 6.419 	0.684 	-0.478
 6.478 	0.518 	-0.642
 6.692 	-0.280 	-0.703
 7.003 	-1.153 	-0.574
 7.323 	-1.345 	-0.497
 8.087 	-1.149 	-0.648
 7.907 	-1.488 	0.215
 7.354 	-0.607 	0.092
 7.805 	-0.712 	-0.348
 7.959 	-0.967 	-0.773
 7.824 	-0.811 	-0.027
 6.703 	-0.852 	0.446
 7.230 	-1.072 	-0.362
 7.036 	-0.977 	-0.303
 6.868 	-0.890 	-0.130
 7.002 	0.755 	0.004
 7.440 	0.897 	-0.216
 6.637 	0.893 	-0.027
 6.299 	0.322 	-0.199
 6.394 	0.078 	-0.016
 6.457 	-0.116 	0.180
 6.511 	0.078 	0.432
 6.534 	-0.156 	0.225
 6.900 	-0.457 	-0.465
 7.317 	-0.392 	-0.067
 6.678 	-0.809 	0.576
 7.551 	0.305 	0.168
 7.392 	0.261 	0.768
 6.889 	-0.228 	0.330
 6.948 	0.156 	0.148
 7.489 	0.110 	-0.479
 7.520 	0.972 	0.094
 7.232 	1.027 	-0.484
 7.147 	1.076 	0.143
 7.950 	0.036 	-0.425
 7.840 	0.404 	-0.548
 7.137 	0.075 	-0.036
 6.664 	-0.076 	0.639
 7.136 	-0.894 	0.003
 7.809 	-0.620 	-0.296
 7.850 	-0.148 	-0.360
 7.756 	-0.437 	-0.373
 6.164 	-0.038 	0.723
 5.981 	0.111 	0.487
 6.090 	-0.106 	0.389
 6.414 	0.278 	0.484
 5.949 	0.061 	0.578
 7.420 	0.738 	0.310
 7.566 	0.966 	-0.333
 8.215 	0.377 	-0.699
 7.841 	0.102 	-0.319
 7.553 	0.669 	-0.102
 7.372 	0.378 	-0.008
 7.856 	-0.214 	-0.091
 7.602 	-0.690 	-0.505
 8.055 	-0.377 	-0.199
 8.144 	-0.309 	-0.645
 8.526 	0.162 	-0.638
 7.416 	0.278 	0.336
 6.747 	0.412 	0.279
 5.760 	0.376 	0.290
 5.531 	0.125 	0.676
 6.124 	0.158 	0.997
 7.701 	0.749 	0.011
 7.807 	0.496 	-0.365
 7.744 	0.425 	-0.264
 7.815 	0.486 	-0.396
 8.235 	0.010 	-0.205
 8.389 	0.158 	-0.270
 7.870 	-0.365 	-0.520
 7.447 	-0.511 	-0.516
 7.334 	-0.011 	-0.552
 7.129 	0.031 	-0.046
 7.477 	0.168 	0.226
 7.080 	0.723 	0.332
 6.965 	0.561 	0.155
 6.138 	0.774 	0.048
 6.372 	0.472 	0.320
 6.321 	0.048 	0.116
 8.184 	0.794 	-0.286
 7.978 	0.786 	-0.636
 7.807 	0.523 	-0.553
 7.417 	-0.206 	0.026