# vtk DataFile Version 3.0
HighT1
ASCII
DATASET STRUCTURED_POINTS
DIMENSIONS 16 16 19
ORIGIN 929.001000000000 929.001000000000 5.001000000000
SPACING 10.000000000000 10.000000000000 10.000000000000
POINT_DATA 4864
 FIELD attributes 1
U 3 4864 float
2.688 	-0.770 	0.356
 2.539 	-1.223 	0.248
 2.839 	-0.255 	0.589
 3.059 	-0.087 	1.020
 2.307 	0.484 	0.263
 3.762 	0.083 	-0.004
 4.046 	-1.016 	-0.297
 3.529 	-0.778 	0.126
 2.982 	-0.406 	0.108
 3.374 	0.598 	0.079
 3.595 	0.496 	0.169
 3.493 	0.227 	0.197
 3.313 	-0.210 	0.322
 3.246 	-0.369 	0.191
 3.418 	-0.478 	0.102
 3.982 	-0.630 	0.034
 4.475 	-0.782 	-0.042
 4.247 	-0.394 	-0.238
 5.371 	-0.525 	-0.414
 4.359 	-0.501 	-0.074
 3.425 	0.819 	-0.242
 3.726 	-0.500 	-0.080
 4.238 	-0.470 	-0.416
 4.395 	-0.261 	-0.405
 4.248 	-0.319 	0.366
 4.705 	-0.058 	-0.134
 3.731 	-0.001 	0.061
 3.428 	0.147 	0.105
 3.462 	-0.316 	-0.030
 3.733 	-0.566 	-0.283
 3.442 	-0.834 	0.292
 3.203 	-1.297 	0.067
 5.078 	-0.304 	-0.728
 5.629 	0.162 	-0.504
 4.811 	0.059 	-0.152
 4.224 	0.424 	-0.141
 4.021 	0.784 	-0.253
 4.141 	0.484 	-0.255
 3.654 	0.018 	0.110
 3.794 	-0.058 	-0.180
 2.967 	0.546 	0.366
 1.996 	-0.158 	0.601
 2.928 	0.262 	0.418
 3.546 	-0.531 	0.397
 3.701 	-0.743 	0.236
 4.149 	-0.889 	-0.001
 4.738 	-1.030 	0.178
 4.428 	-1.163 	-0.223
 4.474 	0.404 	-0.573
 5.175 	1.214 	-0.266
 5.683 	1.000 	-0.193
 4.457 	0.163 	0.215
 4.031 	0.771 	0.157
 3.658 	0.599 	-0.073
 4.607 	0.651 	-0.570
 5.150 	0.321 	-0.494
 5.214 	0.188 	0.101
 5.259 	0.461 	-0.016
 5.310 	0.444 	-0.170
 5.289 	0.455 	-0.275
 5.326 	-0.334 	-0.045
 4.426 	-1.135 	-0.063
 3.627 	-0.768 	0.202
 4.050 	-0.786 	-0.206
 3.131 	0.648 	0.388
 4.171 	1.359 	0.287
 4.253 	1.647 	0.350
 3.577 	0.441 	0.418
 2.881 	-0.083 	0.339
 2.920 	0.130 	0.223
 3.465 	0.343 	0.004
 4.199 	0.838 	-0.391
 5.170 	0.865 	-0.535
 5.222 	0.573 	-0.176
 5.409 	0.663 	-0.047
 5.279 	0.366 	-0.041
 5.268 	0.213 	0.007
 4.336 	-0.567 	0.240
 2.969 	-0.520 	-0.049
 2.314 	0.228 	0.254
 3.870 	0.352 	0.164
 3.275 	0.526 	0.215
 3.379 	0.077 	0.171
 3.464 	-0.201 	0.122
 3.458 	-0.207 	-0.065
 3.469 	-0.319 	-0.177
 3.601 	-0.029 	-0.007
 3.630 	0.344 	0.096
 4.235 	0.743 	0.000
 4.835 	0.829 	-0.035
 4.864 	0.641 	0.128
 5.042 	0.321 	0.015
 5.015 	0.053 	-0.144
 4.494 	0.081 	0.138
 4.621 	-0.041 	0.029
 4.869 	0.350 	-0.328
 2.221 	0.172 	0.171
 2.348 	0.197 	0.087
 2.478 	0.117 	0.176
 2.610 	-0.065 	0.220
 3.064 	-0.398 	0.234
 3.476 	-0.626 	0.277
 3.920 	-0.553 	0.181
 4.047 	-0.363 	0.192
 4.198 	0.190 	0.187
 4.479 	0.376 	0.120
 4.647 	0.168 	0.220
 4.613 	0.115 	0.069
 4.439 	0.227 	0.101
 4.792 	-0.174 	0.147
 5.148 	-0.728 	0.071
 5.340 	-0.832 	0.144
 3.757 	0.328 	-0.067
 3.736 	0.129 	0.031
 3.904 	0.503 	-0.266
 3.955 	0.250 	-0.434
 4.170 	-0.097 	-0.291
 4.335 	-0.562 	-0.083
 4.687 	-0.357 	-0.171
 4.861 	-0.159 	-0.109
 4.974 	-0.115 	-0.021
 5.392 	0.134 	-0.178
 5.733 	0.332 	-0.168
 5.744 	-0.313 	0.090
 5.708 	0.001 	-0.069
 5.932 	-0.758 	-0.186
 5.870 	-0.834 	-0.311
 6.079 	-0.556 	-0.258
 4.541 	0.166 	-0.247
 5.470 	-0.420 	-0.085
 4.317 	-0.023 	0.393
 4.411 	0.715 	-0.102
 4.490 	0.509 	-0.197
 4.495 	-0.085 	-0.046
 4.725 	-0.278 	-0.086
 4.726 	-0.528 	0.015
 5.163 	0.009 	-0.048
 5.343 	-0.119 	-0.013
 5.505 	0.172 	0.044
 5.351 	0.039 	0.165
 5.363 	-0.066 	-0.229
 5.571 	-0.336 	-0.400
 5.576 	-0.138 	-0.242
 5.766 	-0.511 	-0.171
 3.607 	0.036 	0.075
 3.383 	0.378 	0.089
 3.397 	-0.250 	0.232
 3.560 	0.327 	0.136
 4.064 	0.136 	-0.205
 4.515 	0.256 	-0.165
 4.588 	-0.027 	0.191
 4.932 	-0.475 	-0.116
 5.086 	-0.426 	-0.025
 5.292 	-0.013 	-0.130
 5.366 	-0.018 	-0.018
 4.950 	-0.267 	0.176
 4.178 	-0.078 	0.084
 4.427 	0.149 	-0.102
 4.595 	0.516 	-0.105
 4.695 	-0.328 	0.159
 5.153 	1.082 	-0.314
 5.529 	0.838 	0.135
 5.720 	-0.145 	-0.420
 3.604 	-0.398 	0.434
 3.777 	-0.167 	0.050
 4.418 	-0.196 	-0.266
 5.189 	0.524 	-0.397
 4.234 	0.058 	0.417
 3.779 	-0.493 	0.217
 3.274 	0.029 	0.284
 3.108 	-0.520 	0.441
 3.860 	-0.798 	0.404
 4.044 	-0.850 	0.339
 4.480 	-0.374 	0.013
 4.809 	0.095 	-0.138
 5.663 	0.094 	-0.193
 5.197 	1.153 	-0.276
 5.562 	0.949 	-0.105
 5.492 	0.566 	-0.081
 4.511 	-0.257 	0.394
 4.753 	-0.134 	0.046
 3.626 	0.326 	-0.148
 3.601 	0.524 	0.255
 3.833 	0.662 	-0.036
 3.124 	-1.230 	0.440
 3.584 	-1.000 	-0.102
 4.397 	-0.698 	-0.463
 4.530 	-1.128 	-0.636
 4.952 	-0.525 	-0.848
 5.309 	0.009 	-0.802
 5.802 	0.032 	-0.721
 5.993 	0.463 	-0.224
 3.757 	0.598 	-0.131
 3.872 	0.890 	0.058
 3.858 	0.485 	0.087
 3.589 	-0.389 	-0.199
 3.164 	-0.116 	0.796
 2.727 	0.736 	0.089
 3.012 	0.834 	0.021
 4.304 	0.954 	-0.298
 5.109 	-0.486 	-0.675
 4.342 	-0.609 	0.020
 3.689 	-0.365 	-0.256
 3.581 	-1.025 	-0.397
 3.660 	-0.040 	-0.134
 4.322 	0.480 	-0.086
 5.026 	0.875 	0.047
 4.940 	0.988 	0.143
 3.673 	0.647 	0.011
 4.234 	0.566 	-0.282
 4.891 	0.033 	-0.451
 5.882 	-0.037 	-0.521
 6.314 	0.517 	-0.020
 4.845 	0.611 	-0.141
 4.272 	0.565 	0.070
 4.585 	0.118 	0.088
 5.470 	0.565 	-0.372
 5.016 	0.172 	0.225
 3.920 	-0.196 	0.168
 3.571 	0.030 	-0.194
 3.271 	0.220 	0.128
 3.518 	-0.534 	0.140
 3.751 	0.523 	-0.032
 3.655 	1.143 	-0.053
 4.063 	-0.785 	0.289
 4.513 	0.126 	-0.105
 4.605 	0.259 	0.075
 4.652 	0.198 	-0.048
 5.771 	0.957 	-0.031
 5.809 	0.824 	-0.122
 5.509 	0.542 	-0.595
 4.727 	0.396 	0.537
 3.736 	0.174 	0.294
 4.252 	0.493 	-0.260
 3.525 	0.231 	0.256
 3.906 	0.137 	-0.155
 3.859 	-0.245 	0.054
 4.106 	-0.304 	0.338
 3.246 	0.422 	0.231
 3.736 	0.390 	0.235
 2.951 	-0.452 	0.228
 2.569 	0.011 	0.370
 3.015 	0.450 	0.274
 3.648 	-0.117 	-0.089
 4.236 	0.365 	0.450
 4.838 	1.173 	-0.082
 4.780 	0.353 	-0.418
 5.626 	0.568 	-0.273
 5.654 	0.984 	0.009
 5.448 	0.899 	-0.205
 5.058 	0.125 	-0.043
 4.877 	0.045 	-0.219
 4.650 	0.398 	-0.407
 3.992 	0.049 	0.380
 4.401 	-0.133 	0.333
 4.159 	0.465 	0.213
 5.622 	-0.586 	-0.744
 4.147 	-1.603 	0.802
 3.844 	-0.935 	1.127
 4.007 	0.217 	0.419
 5.085 	0.550 	-0.526
 4.314 	1.409 	-0.650
 4.305 	-0.288 	0.181
 4.281 	-0.444 	-0.896
 4.969 	-0.239 	-0.137
 4.765 	0.654 	0.345
 4.252 	0.543 	0.592
 4.267 	0.848 	0.891
 3.901 	0.798 	1.025
 3.849 	0.573 	0.590
 4.014 	0.249 	0.510
 4.621 	-0.170 	0.228
 5.688 	-0.784 	-0.677
 5.174 	-0.930 	-0.479
 4.604 	0.657 	0.823
 3.798 	0.983 	0.197
 3.634 	-0.017 	-0.371
 3.898 	1.238 	0.101
 4.940 	0.540 	-0.783
 4.849 	0.077 	-0.478
 4.738 	-0.752 	-0.476
 5.003 	0.656 	-0.054
 4.794 	0.688 	0.400
 4.482 	0.359 	0.305
 4.489 	0.363 	-0.056
 4.153 	0.475 	-0.375
 4.556 	-0.126 	-0.259
 5.011 	-0.054 	-0.385
 6.092 	-1.070 	-0.913
 6.023 	-0.796 	-0.756
 5.112 	0.654 	0.229
 4.647 	0.551 	0.859
 6.005 	0.460 	-0.157
 5.065 	0.800 	-0.209
 5.180 	-0.102 	-0.678
 4.879 	0.429 	-0.266
 4.612 	-0.158 	0.295
 4.982 	0.568 	-0.191
 5.261 	0.672 	0.205
 5.407 	0.193 	0.041
 4.549 	0.683 	0.261
 4.919 	0.366 	-0.552
 4.826 	0.469 	-0.224
 4.780 	0.353 	-0.122
 6.520 	-1.013 	-1.516
 6.376 	-0.331 	-0.515
 6.490 	0.570 	-0.585
 4.778 	0.590 	1.389
 4.741 	0.252 	0.786
 5.808 	0.174 	-0.135
 6.169 	0.044 	-0.866
 6.100 	0.662 	-0.654
 5.749 	0.416 	-0.432
 5.420 	0.023 	-0.018
 5.621 	0.484 	-0.429
 6.103 	0.852 	-0.399
 5.358 	0.477 	0.018
 5.651 	0.524 	-0.658
 5.363 	0.957 	-0.614
 5.843 	-0.419 	0.303
 5.796 	-1.104 	-0.320
 5.586 	-0.544 	-0.429
 4.480 	1.481 	1.009
 4.661 	0.997 	0.946
 4.813 	0.379 	0.295
 5.207 	0.227 	-0.073
 6.049 	0.265 	-0.544
 6.633 	0.725 	-0.620
 5.981 	0.719 	-0.921
 6.301 	0.323 	0.234
 5.181 	0.381 	-0.381
 5.165 	1.014 	0.009
 4.794 	0.731 	0.072
 5.004 	0.743 	0.030
 6.067 	0.459 	-0.332
 6.483 	-0.294 	-0.225
 4.767 	-0.632 	0.824
 4.674 	0.307 	0.086
 4.862 	1.068 	0.590
 5.195 	0.806 	0.164
 5.145 	1.113 	0.213
 5.218 	0.752 	-0.283
 5.923 	0.593 	-0.588
 6.245 	0.693 	-0.580
 6.421 	0.580 	-0.459
 6.307 	0.903 	0.011
 5.464 	0.693 	0.205
 5.428 	1.028 	-0.324
 5.958 	0.965 	-0.556
 6.127 	0.359 	-0.067
 6.346 	0.369 	-0.229
 6.654 	0.227 	-0.282
 5.223 	0.613 	0.024
 4.792 	0.757 	0.185
 4.784 	0.589 	0.051
 4.753 	0.473 	0.171
 4.761 	0.297 	0.213
 5.100 	0.530 	-0.004
 5.258 	0.698 	0.041
 5.331 	0.742 	0.163
 5.096 	0.730 	0.331
 4.909 	0.360 	0.399
 5.269 	0.395 	0.479
 5.819 	0.754 	0.252
 5.766 	0.882 	0.294
 5.463 	0.837 	0.529
 5.650 	0.802 	0.329
 6.285 	0.705 	-0.550
 4.362 	1.075 	0.480
 4.742 	0.111 	0.351
 5.197 	0.197 	-0.039
 5.018 	0.261 	-0.255
 5.016 	0.148 	-0.171
 4.672 	0.248 	-0.114
 4.740 	0.390 	-0.217
 5.293 	0.350 	-0.330
 5.644 	0.200 	-0.329
 5.893 	0.126 	-0.509
 6.086 	0.034 	-0.431
 5.690 	0.654 	0.241
 5.841 	0.692 	0.526
 6.190 	0.147 	0.148
 5.840 	0.609 	-0.205
 6.428 	0.505 	-0.532
 4.787 	0.316 	-0.015
 4.561 	-0.041 	0.286
 5.094 	-0.449 	0.369
 5.456 	-0.184 	-0.031
 5.571 	0.242 	-0.454
 5.519 	0.096 	-0.532
 5.475 	-0.084 	-0.326
 5.465 	0.147 	-0.136
 5.893 	-0.230 	0.142
 5.968 	-0.263 	0.377
 5.860 	-0.156 	0.352
 6.372 	0.166 	0.054
 6.782 	0.469 	-0.347
 6.791 	0.329 	-0.230
 6.548 	0.599 	-0.649
 6.856 	0.359 	-0.287
 5.366 	-0.071 	-0.445
 5.334 	0.433 	-0.091
 4.232 	-0.085 	0.604
 4.811 	-0.658 	0.498
 5.382 	0.279 	-0.357
 5.712 	0.183 	-0.646
 5.698 	0.349 	-0.339
 5.469 	-0.342 	0.194
 6.048 	-0.401 	0.014
 5.832 	-0.009 	0.062
 6.108 	0.056 	0.369
 6.188 	-0.007 	0.352
 6.538 	0.441 	-0.364
 6.143 	0.625 	-0.471
 6.229 	0.075 	-0.500
 6.583 	0.060 	-0.364
 4.513 	-0.668 	-0.367
 5.343 	0.470 	-0.103
 5.697 	0.581 	-0.309
 5.610 	-0.435 	-0.007
 5.906 	0.276 	-0.742
 5.723 	0.396 	-0.587
 5.798 	0.103 	0.150
 5.989 	-0.601 	0.048
 5.898 	-0.393 	0.086
 5.537 	-0.534 	0.309
 4.771 	-0.469 	0.820
 5.429 	0.189 	0.261
 6.146 	0.580 	-0.191
 6.328 	0.693 	-0.342
 6.346 	0.327 	-0.316
 6.917 	0.109 	-0.299
 5.034 	-0.401 	-0.552
 4.557 	-0.199 	-0.355
 4.583 	0.464 	0.751
 4.840 	0.198 	0.453
 5.540 	-0.001 	-0.357
 6.346 	-0.025 	-0.163
 6.105 	-0.216 	0.190
 6.334 	-0.458 	-0.170
 5.864 	0.232 	0.186
 5.720 	-0.270 	-0.195
 6.258 	-0.009 	-0.531
 5.797 	0.428 	-0.272
 5.502 	-0.080 	-0.227
 6.215 	-0.157 	-0.447
 5.713 	-0.072 	-0.550
 5.529 	-0.024 	-0.057
 4.298 	-0.440 	0.154
 4.871 	0.026 	0.072
 5.470 	-0.015 	-0.136
 5.767 	-0.289 	-0.274
 6.205 	-0.448 	0.060
 6.288 	-0.153 	-0.217
 6.416 	-0.250 	-0.185
 6.177 	-0.456 	-0.488
 6.370 	-0.051 	-0.351
 6.352 	0.278 	-0.128
 5.875 	-0.051 	-0.234
 5.803 	-0.546 	-0.009
 5.802 	-0.398 	0.192
 4.741 	-1.163 	0.077
 5.307 	-0.587 	-0.151
 4.982 	-0.195 	-0.235
 5.705 	-0.164 	0.060
 5.701 	-0.074 	-0.375
 5.809 	-0.356 	-0.562
 5.867 	-0.484 	-0.418
 6.247 	-0.292 	-0.028
 6.419 	-0.051 	0.023
 6.183 	-0.114 	-0.277
 6.527 	-0.780 	0.049
 6.136 	-0.526 	-0.190
 6.072 	-0.121 	0.080
 6.929 	0.196 	-0.373
 6.197 	0.184 	0.370
 5.846 	-0.125 	0.014
 5.663 	-0.387 	0.167
 4.743 	-0.517 	0.033
 5.267 	-0.425 	0.236
 5.116 	0.051 	-0.035
 5.180 	-0.315 	-0.056
 4.815 	-1.085 	-0.394
 5.024 	-0.979 	-0.525
 4.946 	-0.541 	-0.014
 5.371 	-0.376 	-0.063
 6.087 	0.585 	0.139
 4.942 	-0.494 	-0.305
 5.201 	-0.417 	0.125
 6.247 	0.526 	-0.372
 6.308 	0.462 	0.777
 5.734 	0.437 	-0.209
 6.456 	0.551 	-0.315
 5.252 	-0.325 	0.503
 4.942 	-0.281 	0.051
 5.024 	-0.199 	0.048
 4.053 	-0.108 	0.569
 4.167 	-0.778 	0.173
 4.646 	-1.004 	-0.159
 4.824 	-1.007 	0.074
 4.540 	-1.243 	0.294
 4.456 	-0.752 	0.084
 4.953 	0.044 	-0.475
 5.103 	-0.360 	-0.633
 4.571 	0.310 	-0.678
 4.955 	0.387 	-0.282
 5.691 	0.897 	0.307
 5.987 	0.436 	-0.489
 6.346 	0.867 	-0.106
 6.105 	0.892 	-0.446
 5.165 	0.055 	0.069
 4.943 	0.239 	-0.131
 5.238 	-0.748 	-0.746
 5.316 	-0.666 	-0.180
 6.365 	-1.527 	0.710
 5.120 	-1.359 	1.062
 4.897 	-1.161 	0.053
 5.639 	-0.951 	-1.217
 5.932 	0.115 	-0.450
 6.443 	-0.221 	-0.421
 5.524 	-0.705 	-0.306
 5.426 	-0.133 	-0.025
 4.843 	0.721 	0.814
 4.398 	0.952 	1.165
 4.023 	1.067 	1.217
 4.071 	1.521 	0.876
 5.280 	2.196 	0.303
 5.566 	2.179 	-0.121
 6.139 	-0.567 	-1.088
 6.367 	-1.152 	-0.816
 6.546 	-0.880 	0.491
 7.023 	-0.966 	-0.642
 6.683 	-0.811 	0.296
 6.071 	-0.477 	-0.333
 6.508 	-0.773 	-0.299
 5.919 	-0.170 	-0.357
 5.248 	-0.216 	-0.346
 5.223 	0.198 	-0.502
 5.203 	1.201 	0.596
 4.686 	1.083 	0.890
 4.561 	0.512 	0.621
 4.560 	0.515 	0.225
 4.761 	1.257 	0.088
 5.053 	1.569 	-0.114
 6.460 	-0.833 	-1.274
 6.679 	-1.022 	-0.869
 6.113 	-0.400 	0.294
 7.146 	-0.812 	-0.298
 7.059 	-0.180 	0.334
 7.018 	-0.108 	-0.231
 6.929 	-0.213 	-0.568
 6.664 	0.109 	-0.198
 5.640 	0.362 	-0.219
 4.922 	0.401 	0.265
 5.572 	0.702 	0.431
 5.619 	0.892 	-0.007
 5.445 	0.636 	0.380
 5.053 	0.350 	-0.297
 4.972 	0.626 	-0.027
 5.064 	1.123 	-0.215
 6.889 	-0.778 	-0.976
 6.989 	-0.895 	-0.476
 6.342 	-0.250 	-0.211
 6.568 	0.136 	0.734
 6.886 	0.263 	-0.284
 7.140 	0.241 	-0.539
 6.582 	-0.053 	-1.019
 6.836 	0.391 	-0.266
 5.852 	0.511 	-0.096
 6.063 	0.192 	0.082
 5.921 	-0.323 	-0.553
 5.835 	0.366 	-0.035
 5.928 	0.769 	-0.212
 5.943 	0.440 	-0.691
 5.817 	0.963 	-0.414
 5.398 	1.018 	-0.190
 6.965 	-0.823 	-0.763
 6.699 	-0.656 	-0.393
 6.060 	-0.110 	0.379
 6.333 	0.522 	0.343
 6.757 	0.486 	0.055
 7.189 	0.707 	-0.494
 6.632 	0.085 	-1.120
 6.523 	0.292 	-0.478
 6.477 	0.676 	-0.189
 6.220 	0.283 	0.390
 6.110 	0.149 	-0.303
 5.893 	0.100 	0.018
 5.516 	0.963 	0.185
 5.380 	0.780 	-0.310
 5.580 	1.022 	-0.749
 6.132 	1.038 	-0.667
 7.071 	0.134 	-0.593
 5.565 	-0.592 	0.133
 5.434 	0.661 	1.052
 5.770 	0.430 	0.734
 6.155 	0.079 	0.283
 6.905 	0.344 	-0.246
 6.560 	0.328 	-0.799
 6.493 	0.607 	-0.593
 6.566 	0.229 	-0.198
 6.186 	0.317 	0.160
 6.192 	0.098 	0.268
 6.284 	0.263 	-0.336
 6.080 	0.852 	-0.009
 6.104 	0.794 	0.036
 6.443 	0.250 	-0.262
 6.877 	0.103 	-0.624
 6.913 	0.249 	-0.512
 6.106 	0.899 	0.234
 5.474 	0.550 	0.478
 5.051 	0.021 	0.231
 5.229 	-0.226 	0.055
 5.386 	-0.178 	-0.158
 5.731 	0.285 	-0.088
 5.650 	0.507 	0.139
 5.329 	0.423 	0.385
 5.645 	-0.015 	0.371
 6.085 	-0.272 	0.310
 6.371 	0.006 	0.098
 6.563 	0.479 	-0.025
 6.855 	0.569 	0.011
 6.750 	0.734 	-0.054
 6.910 	-0.203 	-0.414
 4.663 	0.624 	0.706
 5.308 	1.182 	0.549
 5.769 	0.731 	0.063
 5.829 	0.204 	-0.090
 5.678 	0.020 	-0.213
 5.697 	-0.107 	-0.120
 5.580 	0.009 	0.094
 5.912 	-0.150 	0.009
 6.183 	0.251 	0.028
 6.346 	-0.199 	-0.106
 6.366 	0.167 	0.100
 6.371 	0.186 	0.260
 6.146 	0.602 	0.286
 6.648 	0.768 	0.222
 6.967 	0.685 	-0.526
 6.845 	-0.209 	-0.555
 5.146 	0.649 	0.388
 5.758 	0.165 	0.004
 6.484 	0.046 	0.314
 6.656 	0.020 	0.136
 6.127 	0.460 	-0.411
 5.951 	0.400 	-0.572
 5.743 	-0.061 	-0.380
 5.688 	-0.503 	-0.097
 5.826 	-0.395 	-0.083
 6.386 	-0.384 	-0.098
 6.731 	-0.305 	0.014
 6.781 	0.119 	-0.067
 6.790 	0.356 	0.066
 6.868 	0.603 	-0.392
 7.083 	0.914 	-0.280
 6.889 	0.050 	-0.202
 5.635 	0.328 	0.071
 5.320 	-0.649 	-0.304
 5.657 	-0.019 	-0.391
 6.155 	0.143 	0.135
 6.110 	0.462 	-0.228
 6.075 	0.565 	-0.267
 5.599 	-0.267 	-0.105
 5.265 	-0.456 	0.328
 5.247 	-0.857 	0.265
 5.391 	-0.908 	0.520
 6.203 	-0.104 	0.082
 6.238 	0.014 	-0.093
 6.495 	0.150 	-0.166
 6.447 	0.522 	-0.121
 6.491 	0.508 	-0.133
 6.689 	-0.259 	-0.719
 5.182 	0.238 	-0.506
 4.711 	-0.519 	0.022
 4.495 	-0.759 	-0.088
 5.125 	-0.114 	0.006
 5.814 	0.542 	-0.156
 5.777 	0.081 	-0.072
 6.079 	-0.576 	0.103
 6.082 	-0.780 	0.109
 6.165 	-0.641 	0.403
 6.013 	-0.011 	0.031
 5.921 	-0.407 	-0.150
 6.362 	-0.320 	0.211
 6.414 	-0.640 	0.160
 6.361 	0.011 	0.148
 6.783 	-0.534 	-0.557
 6.394 	-0.336 	-0.544
 5.884 	-0.345 	-0.502
 5.442 	-0.524 	0.276
 5.309 	-0.383 	0.499
 5.567 	-0.280 	-0.021
 5.918 	-0.677 	-0.280
 6.240 	-0.723 	-0.205
 6.482 	-0.735 	0.035
 6.444 	-0.632 	-0.124
 6.561 	-0.321 	-0.246
 7.058 	-0.297 	-0.133
 6.229 	-0.278 	0.004
 6.064 	-0.015 	0.158
 6.097 	-0.782 	0.243
 6.324 	-0.716 	-0.380
 6.515 	-0.278 	-0.720
 6.317 	-0.029 	-0.204
 5.659 	-0.611 	-0.090
 6.041 	-0.311 	-0.128
 6.106 	-0.078 	0.098
 6.298 	-0.375 	0.147
 6.099 	-0.770 	0.082
 6.064 	-0.555 	-0.002
 5.944 	-0.591 	-0.415
 5.997 	-0.891 	-0.366
 6.514 	-0.683 	-0.010
 6.642 	0.141 	-0.031
 6.062 	0.260 	-0.084
 5.920 	0.058 	0.170
 5.717 	-0.512 	0.018
 5.790 	-0.618 	-0.072
 5.805 	0.010 	0.169
 5.593 	0.330 	0.455
 5.482 	-0.593 	-0.043
 5.192 	-0.581 	0.015
 5.355 	-0.829 	0.131
 5.631 	-0.701 	0.113
 5.825 	-0.853 	-0.112
 5.486 	-0.665 	0.004
 5.464 	-0.881 	-0.174
 5.534 	-0.997 	-0.408
 5.550 	-0.355 	-0.138
 6.004 	0.127 	-0.089
 6.206 	-0.039 	-0.214
 5.969 	0.205 	0.127
 6.255 	-0.178 	-0.081
 5.647 	0.353 	0.473
 4.789 	-0.048 	-0.188
 4.684 	0.397 	0.497
 5.089 	-0.931 	0.011
 5.128 	-0.910 	0.162
 5.237 	-1.087 	-0.089
 4.491 	-1.484 	0.223
 4.661 	-1.143 	0.068
 4.991 	-0.789 	-0.075
 5.270 	-0.459 	-0.042
 5.196 	-0.779 	-0.258
 4.936 	-0.397 	-0.583
 4.918 	0.118 	-0.557
 5.643 	-0.213 	-0.359
 6.053 	0.190 	-0.158
 6.383 	0.310 	-0.108
 5.547 	0.304 	0.212
 5.195 	0.553 	-0.261
 4.994 	0.163 	0.434
 5.493 	-0.982 	-0.131
 5.815 	-0.971 	-0.217
 5.574 	-0.710 	0.131
 5.000 	-1.396 	0.160
 4.538 	-1.327 	0.363
 4.793 	-0.896 	0.147
 5.230 	-0.546 	-0.118
 5.155 	-0.615 	-0.568
 5.171 	-0.398 	-0.796
 4.875 	-0.341 	-0.495
 5.137 	-0.119 	-0.403
 5.675 	-0.120 	-0.696
 5.764 	0.176 	-0.735
 6.160 	0.473 	-0.657
 6.736 	0.604 	-0.405
 6.724 	0.657 	-0.260
 5.500 	0.172 	-0.764
 6.048 	-0.460 	-0.517
 6.341 	-0.697 	0.233
 6.288 	-1.155 	0.790
 6.354 	-0.815 	-0.353
 5.911 	0.332 	-0.271
 6.168 	0.512 	-0.205
 6.237 	-0.389 	0.131
 6.171 	-0.505 	0.225
 5.520 	-0.359 	-0.293
 5.469 	0.098 	0.806
 5.539 	1.167 	1.030
 5.186 	0.890 	1.244
 5.439 	0.463 	0.386
 5.638 	1.394 	0.293
 5.594 	1.929 	0.375
 6.509 	0.038 	-0.876
 6.731 	-0.755 	-0.804
 6.592 	-0.677 	-0.156
 6.984 	-0.115 	-0.582
 7.009 	-0.335 	0.276
 6.434 	0.034 	-0.352
 6.057 	-0.335 	-0.199
 6.726 	-0.444 	-0.362
 6.590 	0.085 	-0.309
 5.215 	-0.058 	-0.246
 5.660 	0.928 	0.580
 5.645 	1.364 	1.010
 5.545 	1.331 	0.827
 5.414 	0.380 	0.356
 5.506 	0.784 	0.466
 5.554 	1.683 	0.105
 6.933 	-0.112 	-0.866
 6.687 	-0.994 	-0.627
 6.710 	-0.783 	-0.377
 7.071 	-0.450 	-0.490
 6.881 	-0.359 	-0.225
 6.864 	-0.040 	-0.095
 6.724 	-0.500 	-0.586
 6.611 	0.012 	-0.041
 5.873 	0.513 	-0.154
 5.259 	0.458 	0.150
 5.361 	0.238 	0.414
 5.696 	0.619 	0.515
 6.240 	0.713 	0.529
 6.570 	0.870 	0.271
 6.094 	0.352 	0.199
 5.659 	1.230 	0.086
 6.945 	-0.445 	-1.061
 6.704 	-0.994 	-0.604
 6.650 	-0.611 	-0.342
 6.863 	-0.413 	-0.252
 7.279 	0.124 	-0.696
 6.931 	-0.072 	-0.343
 6.779 	-0.073 	-0.793
 6.196 	0.691 	-0.079
 5.667 	0.673 	0.162
 5.759 	0.559 	-0.092
 6.285 	0.283 	-0.522
 6.338 	-0.118 	0.520
 6.462 	-0.187 	0.004
 5.518 	0.729 	-0.387
 5.853 	0.320 	-0.273
 5.489 	1.155 	-0.007
 7.079 	-0.492 	-0.909
 6.542 	-0.625 	-0.259
 6.626 	-0.499 	0.014
 6.849 	-0.181 	-0.147
 6.930 	0.059 	-0.512
 6.860 	-0.107 	-0.636
 6.521 	0.185 	-0.529
 6.522 	0.488 	-0.088
 6.499 	0.443 	-0.023
 6.421 	0.159 	0.105
 6.539 	-0.016 	-0.059
 6.445 	0.137 	0.254
 6.966 	-0.166 	0.001
 6.871 	0.250 	-0.283
 6.360 	0.527 	-0.216
 6.524 	0.789 	-0.479
 7.048 	-0.179 	-0.816
 6.593 	-0.065 	-0.205
 6.455 	-0.171 	0.577
 6.017 	-0.197 	0.649
 6.132 	-0.110 	0.282
 6.610 	0.028 	-0.070
 7.167 	-0.010 	-0.687
 6.849 	0.268 	-0.493
 6.650 	0.364 	0.192
 6.509 	0.068 	0.634
 6.852 	-0.233 	0.294
 7.116 	-0.221 	-0.206
 7.584 	-0.043 	-0.132
 7.408 	0.015 	-0.108
 6.904 	0.188 	-0.124
 6.710 	0.138 	-0.221
 6.588 	-0.233 	-0.432
 7.036 	0.153 	-0.255
 6.429 	0.585 	0.665
 6.236 	0.277 	0.378
 6.041 	-0.212 	0.213
 6.110 	-0.226 	-0.063
 6.203 	-0.014 	-0.192
 6.345 	0.454 	-0.165
 6.736 	0.682 	0.163
 7.000 	0.166 	0.167
 7.049 	-0.259 	-0.331
 7.416 	-0.055 	-0.122
 7.807 	0.018 	-0.288
 7.306 	0.320 	-0.164
 6.875 	0.517 	-0.107
 6.800 	-0.257 	-0.135
 6.488 	0.135 	0.266
 5.598 	0.644 	0.656
 6.171 	0.498 	0.264
 6.972 	0.322 	-0.276
 7.158 	0.136 	-0.256
 6.972 	0.008 	-0.288
 6.389 	0.510 	-0.183
 6.243 	0.703 	-0.131
 6.854 	0.594 	-0.026
 6.938 	0.143 	-0.231
 6.987 	0.004 	-0.083
 6.635 	0.269 	0.351
 6.561 	0.401 	0.190
 6.500 	0.730 	-0.108
 7.006 	0.032 	-0.197
 6.872 	-0.221 	-0.357
 6.135 	0.871 	0.689
 6.251 	-0.373 	0.060
 6.827 	-0.086 	-0.053
 7.237 	0.198 	0.262
 6.831 	0.347 	-0.219
 6.368 	0.213 	-0.361
 6.248 	0.421 	-0.218
 6.426 	0.464 	0.038
 6.564 	0.360 	-0.007
 6.721 	0.234 	0.020
 6.905 	0.325 	-0.053
 6.762 	0.305 	0.195
 6.824 	0.311 	0.093
 6.745 	0.257 	0.023
 6.681 	-0.198 	-0.146
 6.674 	-0.149 	-0.571
 6.068 	0.731 	0.111
 5.304 	-0.539 	0.161
 5.036 	-0.959 	-0.167
 6.443 	0.460 	-0.311
 6.719 	0.640 	-0.187
 6.383 	0.496 	0.097
 5.878 	0.399 	0.653
 5.688 	0.072 	0.466
 6.135 	0.132 	0.415
 5.963 	-0.365 	0.478
 6.063 	-0.509 	0.512
 6.399 	-0.116 	0.417
 6.407 	0.136 	0.145
 6.326 	0.106 	0.013
 6.694 	-0.086 	-0.070
 6.856 	-0.541 	-0.579
 5.473 	0.392 	-0.126
 5.852 	-0.486 	-0.101
 5.378 	-0.943 	0.083
 4.759 	-0.658 	0.434
 5.052 	-0.156 	0.561
 5.325 	0.194 	0.772
 5.581 	0.454 	0.221
 5.891 	-0.294 	-0.102
 6.612 	-0.626 	0.122
 6.845 	-0.943 	-0.007
 7.056 	-0.354 	0.056
 6.193 	-0.438 	-0.008
 6.110 	0.035 	0.398
 6.466 	-0.277 	0.016
 7.356 	-0.634 	-0.194
 7.008 	-0.815 	-0.446
 5.596 	-0.389 	0.634
 6.000 	-0.638 	0.347
 6.302 	-0.919 	0.147
 6.502 	-0.809 	-0.084
 6.169 	-0.385 	-0.018
 6.376 	-0.194 	-0.128
 6.848 	-0.489 	0.024
 7.010 	-0.870 	-0.066
 6.938 	-0.911 	-0.206
 6.920 	-0.779 	-0.347
 6.724 	-0.374 	-0.394
 7.181 	-0.060 	-0.508
 6.880 	-0.055 	0.277
 7.500 	-0.217 	-0.052
 6.823 	-0.378 	-0.269
 5.902 	0.140 	0.113
 6.284 	-0.622 	-0.106
 6.292 	-0.888 	-0.027
 6.444 	-0.965 	-0.007
 6.641 	-0.900 	-0.043
 6.688 	-0.756 	-0.275
 6.698 	-0.557 	-0.302
 6.819 	-0.878 	-0.375
 7.125 	-0.890 	-0.459
 6.583 	-0.917 	-0.256
 6.503 	-0.691 	-0.352
 6.333 	0.174 	0.485
 7.156 	0.042 	-0.091
 6.562 	-0.087 	0.308
 5.967 	-0.401 	-0.320
 5.855 	0.046 	0.364
 5.566 	0.008 	0.595
 5.932 	-1.112 	0.093
 5.977 	-1.220 	-0.075
 5.953 	-1.040 	0.355
 6.410 	-0.521 	0.384
 6.512 	-0.483 	0.090
 6.572 	-0.495 	0.100
 6.456 	-0.690 	-0.454
 6.370 	-0.810 	-0.106
 6.380 	-0.547 	-0.144
 5.468 	-0.634 	-0.387
 6.305 	-0.121 	-0.089
 6.780 	0.020 	0.294
 6.299 	-0.212 	0.273
 6.410 	-0.545 	-0.604
 6.739 	0.012 	0.203
 5.822 	0.027 	0.427
 5.988 	-1.058 	0.128
 6.311 	-1.410 	0.029
 6.085 	-1.056 	0.377
 6.246 	-0.604 	0.211
 6.524 	-0.749 	0.094
 6.751 	-0.566 	0.013
 6.225 	-0.345 	-0.402
 6.700 	-0.216 	-0.367
 6.430 	-1.086 	-0.472
 6.578 	-0.685 	-0.046
 5.877 	-0.194 	-0.450
 5.838 	0.133 	-0.278
 6.075 	0.208 	-0.169
 6.033 	-0.441 	-0.418
 6.302 	0.248 	-0.247
 6.310 	0.024 	0.358
 6.430 	-1.141 	-0.170
 6.419 	-1.306 	-0.490
 5.931 	-1.136 	0.319
 6.216 	-1.299 	-0.001
 6.218 	-0.952 	0.269
 6.673 	-0.500 	0.030
 6.649 	-0.280 	-0.253
 6.391 	-0.573 	-0.224
 6.535 	-0.839 	-0.256
 6.784 	-0.543 	0.028
 6.214 	-0.428 	-0.126
 6.211 	-0.255 	-0.461
 6.326 	-0.114 	-0.520
 7.007 	0.251 	-0.689
 6.761 	-0.409 	-0.530
 6.744 	0.562 	-0.071
 5.922 	0.122 	-0.438
 5.823 	0.299 	-0.194
 5.966 	0.268 	0.040
 6.029 	0.097 	0.288
 5.959 	0.055 	0.216
 6.082 	-0.022 	-0.002
 6.307 	-0.329 	-0.139
 6.917 	-0.093 	-0.190
 6.862 	0.204 	0.104
 7.503 	0.457 	-0.028
 6.148 	-0.243 	0.114
 6.360 	-0.420 	0.495
 6.657 	0.353 	0.213
 6.615 	0.651 	0.233
 6.438 	0.759 	0.707
 6.911 	1.062 	0.294
 7.012 	0.120 	-0.517
 6.782 	-0.047 	-0.420
 6.830 	-0.252 	-0.238
 6.560 	-0.213 	-0.080
 6.340 	-0.018 	0.172
 6.669 	0.068 	0.057
 6.732 	0.151 	-0.674
 6.665 	-0.180 	-0.412
 6.594 	-0.367 	0.070
 6.701 	0.584 	-0.061
 5.978 	0.224 	0.265
 6.091 	-0.108 	0.944
 6.308 	0.880 	0.937
 6.222 	1.181 	0.545
 6.175 	0.231 	0.829
 6.428 	0.919 	0.263
 7.161 	0.382 	-0.670
 7.337 	-0.305 	-0.384
 7.626 	-0.465 	-0.116
 7.088 	-0.272 	-0.028
 7.193 	-0.313 	-0.483
 7.161 	-0.104 	-0.103
 6.966 	0.068 	-0.407
 6.790 	-0.023 	-0.330
 6.540 	0.268 	0.027
 6.590 	0.704 	0.241
 6.015 	0.602 	0.120
 5.911 	0.171 	0.366
 5.891 	0.446 	0.676
 6.331 	0.554 	0.666
 6.086 	0.226 	0.422
 5.528 	0.968 	0.549
 7.320 	-0.264 	-0.709
 7.533 	-0.846 	-0.344
 7.531 	-0.778 	-0.446
 7.760 	-0.537 	-0.569
 7.708 	-0.382 	-0.974
 7.713 	-0.022 	-0.269
 7.102 	0.097 	-0.263
 6.514 	0.069 	-0.177
 6.191 	0.955 	0.311
 6.471 	0.874 	-0.095
 5.866 	1.086 	-0.188
 6.021 	0.637 	0.201
 6.122 	0.241 	0.223
 6.254 	0.002 	0.098
 6.046 	0.118 	0.141
 5.682 	0.947 	0.255
 6.971 	-0.485 	-0.769
 6.542 	-0.794 	-0.186
 6.617 	-0.680 	-0.277
 6.876 	-0.397 	-0.432
 7.104 	-0.230 	-0.622
 7.211 	0.172 	-0.371
 6.848 	0.560 	-0.179
 6.216 	0.729 	0.305
 6.136 	0.893 	0.152
 6.135 	0.488 	0.221
 6.368 	0.436 	0.070
 6.728 	0.274 	0.057
 6.901 	0.135 	-0.006
 6.785 	0.028 	0.095
 6.723 	0.444 	-0.018
 6.288 	1.063 	-0.010
 6.661 	-0.305 	-0.322
 5.887 	-0.683 	-0.250
 6.114 	-0.384 	0.270
 6.572 	-0.228 	0.437
 6.551 	-0.285 	0.080
 6.937 	0.247 	-0.184
 6.847 	0.746 	-0.392
 6.758 	0.603 	0.006
 6.754 	0.705 	0.316
 6.993 	0.412 	0.659
 7.074 	0.233 	0.051
 7.163 	0.157 	-0.369
 7.244 	0.350 	-0.130
 7.107 	0.054 	-0.039
 6.903 	0.305 	0.172
 7.152 	0.860 	-0.119
 6.413 	-0.261 	-0.187
 6.184 	-0.504 	-0.059
 6.339 	-0.488 	0.370
 6.543 	-0.405 	0.095
 6.715 	-0.415 	-0.004
 6.867 	-0.182 	0.022
 6.639 	0.069 	-0.133
 6.899 	0.221 	-0.398
 7.143 	0.265 	-0.339
 7.523 	0.147 	-0.206
 7.676 	0.224 	-0.365
 7.390 	0.005 	-0.409
 7.434 	0.172 	-0.280
 7.183 	0.234 	-0.108
 7.128 	0.275 	0.039
 6.981 	0.711 	-0.118
 6.181 	-0.032 	0.131
 5.835 	-0.320 	0.288
 6.023 	-0.348 	0.317
 6.043 	-0.536 	0.057
 6.179 	-0.413 	-0.326
 6.517 	-0.286 	-0.326
 6.294 	-0.253 	-0.295
 6.357 	-0.025 	-0.222
 6.560 	0.019 	-0.261
 6.789 	0.100 	-0.255
 6.863 	0.160 	-0.138
 6.734 	0.052 	0.328
 6.661 	0.037 	0.089
 6.842 	0.319 	-0.100
 6.814 	0.328 	0.019
 6.700 	0.661 	-0.153
 6.135 	-0.036 	0.463
 6.275 	-0.093 	0.632
 6.201 	-0.387 	0.200
 5.779 	-0.859 	-0.263
 5.643 	-0.422 	-0.143
 5.933 	-0.050 	-0.515
 5.879 	0.038 	-0.315
 6.135 	0.295 	-0.048
 6.156 	0.036 	0.087
 6.277 	0.273 	0.134
 6.441 	0.203 	0.179
 6.595 	-0.232 	0.226
 6.753 	-0.385 	0.316
 6.898 	-0.034 	0.324
 6.799 	0.154 	0.062
 6.722 	0.066 	-0.042
 5.723 	0.254 	0.370
 5.674 	-0.057 	0.301
 5.215 	-0.587 	0.092
 5.350 	-0.660 	0.209
 5.148 	-0.405 	0.163
 5.066 	-0.256 	0.406
 5.229 	-0.218 	0.693
 5.482 	-0.114 	0.774
 5.700 	-0.112 	0.852
 6.016 	-0.086 	0.876
 6.247 	-0.434 	1.095
 6.281 	-0.710 	1.040
 6.626 	-0.600 	0.500
 6.732 	-0.744 	0.249
 7.105 	-0.195 	0.058
 7.098 	-0.671 	-0.228
 5.318 	0.448 	0.235
 5.209 	0.240 	0.015
 5.304 	-0.375 	0.152
 5.056 	-0.533 	0.882
 4.828 	-0.316 	0.941
 5.365 	-0.000 	0.427
 5.921 	-0.182 	0.131
 6.538 	-0.667 	-0.066
 6.953 	-0.691 	0.112
 7.194 	-0.486 	-0.006
 6.618 	-0.501 	0.049
 6.672 	-0.487 	0.062
 6.668 	-0.693 	-0.146
 6.824 	-0.508 	-0.465
 7.086 	-0.628 	-0.504
 6.898 	-0.879 	-0.183
 5.156 	0.224 	0.345
 5.548 	0.112 	0.329
 6.167 	-0.601 	0.133
 6.383 	-0.712 	-0.056
 6.068 	-0.271 	0.332
 6.466 	-0.462 	0.656
 7.224 	-0.848 	0.533
 7.147 	-0.948 	0.160
 6.991 	-0.777 	-0.138
 6.742 	-0.505 	-0.275
 6.820 	-0.313 	-0.326
 6.794 	-0.238 	-0.313
 7.122 	-0.124 	-0.068
 7.273 	-0.316 	0.185
 6.766 	-0.710 	0.085
 6.496 	0.168 	0.148
 5.830 	-0.062 	-0.443
 6.204 	-0.516 	-0.033
 6.546 	-0.891 	0.095
 6.517 	-0.819 	-0.092
 6.672 	-0.601 	-0.211
 6.718 	-1.034 	0.002
 7.032 	-1.281 	-0.158
 6.875 	-0.931 	-0.248
 6.500 	-0.824 	-0.060
 6.581 	-0.714 	-0.090
 6.550 	-0.640 	0.068
 6.546 	-0.437 	-0.160
 6.815 	-0.325 	0.212
 6.766 	-0.240 	0.254
 6.000 	0.068 	0.428
 6.026 	0.464 	0.251
 6.365 	-0.095 	0.209
 6.373 	-0.855 	0.193
 6.546 	-1.202 	0.032
 6.881 	-1.064 	-0.043
 6.990 	-1.042 	-0.145
 7.343 	-1.098 	-0.209
 7.285 	-1.187 	-0.390
 6.393 	-0.675 	-0.143
 6.230 	-1.061 	0.010
 6.658 	-0.910 	0.149
 6.048 	-0.545 	-0.176
 6.002 	-0.800 	0.072
 6.433 	-0.653 	0.294
 6.520 	-0.234 	0.086
 6.232 	0.282 	0.671
 7.000 	-0.276 	0.303
 6.318 	-0.189 	0.158
 6.329 	-1.041 	0.309
 6.481 	-1.495 	0.346
 6.955 	-1.431 	0.229
 7.425 	-0.966 	-0.329
 7.351 	-1.020 	-0.224
 7.042 	-0.930 	-0.220
 6.903 	-0.642 	-0.337
 6.950 	-0.678 	-0.481
 7.176 	-1.292 	-0.205
 7.574 	-0.719 	-0.218
 7.497 	-0.891 	-0.301
 7.364 	-0.957 	-0.590
 7.464 	-0.230 	-0.299
 6.914 	-0.347 	-0.052
 6.410 	-0.804 	-0.187
 6.451 	0.094 	-0.449
 6.843 	-0.984 	-0.526
 7.178 	-1.366 	-0.337
 7.511 	-1.555 	-0.101
 7.308 	-1.501 	0.367
 7.292 	-0.866 	0.017
 7.671 	-0.445 	-0.273
 7.733 	-0.976 	-0.452
 8.050 	-1.156 	-0.570
 6.767 	-1.167 	0.656
 6.860 	-0.588 	0.056
 6.949 	-0.993 	-0.458
 6.754 	-0.945 	-0.292
 7.199 	-0.734 	-0.142
 7.471 	0.067 	-0.408
 7.269 	-0.326 	-0.150
 6.352 	0.509 	-0.156
 6.332 	0.159 	-0.235
 6.415 	0.075 	0.225
 6.448 	-0.161 	0.321
 6.414 	0.102 	0.343
 6.674 	-0.281 	-0.076
 6.993 	-0.622 	-0.300
 6.818 	-0.334 	0.486
 7.161 	-0.225 	0.471
 7.604 	0.715 	0.235
 7.341 	0.187 	0.535
 6.706 	0.020 	0.267
 7.169 	0.043 	-0.202
 7.356 	0.222 	-0.200
 7.057 	0.586 	0.473
 6.750 	1.071 	0.182
 7.944 	0.122 	-0.349
 7.716 	0.402 	-0.540
 7.321 	0.369 	-0.075
 6.693 	-0.170 	0.315
 6.780 	-0.506 	0.475
 7.510 	-0.707 	0.008
 7.778 	-0.459 	-0.852
 7.835 	-0.123 	-0.302
 6.997 	-0.114 	0.349
 6.105 	0.317 	0.674
 5.877 	0.182 	0.243
 5.857 	-0.037 	0.335
 6.150 	0.316 	0.528
 5.923 	0.099 	1.028
 6.269 	0.539 	1.070
 6.050 	1.067 	0.635
 7.794 	0.320 	-0.325
 7.438 	0.567 	-0.090
 7.413 	0.391 	0.085
 7.712 	-0.125 	-0.015
 7.755 	-0.471 	-0.473
 7.962 	-0.459 	-0.365
 7.981 	-0.618 	-0.514
 8.443 	0.163 	-0.590
 7.836 	0.194 	-0.152
 6.810 	0.360 	0.525
 6.698 	0.500 	0.208
 5.521 	0.480 	0.250
 5.443 	0.151 	0.699
 5.843 	0.331 	0.735
 5.804 	0.383 	0.595
 5.956 	0.852 	0.541
 7.799 	0.545 	-0.442
 8.103 	0.063 	-0.364
 8.375 	0.044 	0.003
 8.314 	-0.170 	-0.544
 7.563 	-0.421 	-0.758
 7.564 	-0.428 	-0.346
 7.293 	0.145 	-0.439
 7.363 	0.470 	0.295
 7.463 	0.227 	0.129
 6.897 	0.516 	0.397
 6.589 	0.591 	0.056
 6.037 	0.781 	0.071
 6.338 	0.460 	0.054
 6.336 	0.035 	0.113
 5.929 	0.103 	0.397
 5.889 	0.650 	0.261
 7.614 	0.070 	-0.076
 7.452 	-0.511 	-0.234
 7.613 	-0.332 	-0.695
 7.490 	-0.100 	-0.663
 7.481 	-0.252 	-0.380