# vtk DataFile Version 3.0
HighT1
ASCII
DATASET STRUCTURED_POINTS
DIMENSIONS 16 16 19
ORIGIN 929.001000000000 929.001000000000 5.001000000000
SPACING 10.000000000000 10.000000000000 10.000000000000
POINT_DATA 4864
FIELD attributes 1
U 3 4864 float
3.979 	0.430 	-0.255
 5.074 	0.157 	-0.889
 5.473 	-0.503 	-0.954
 5.123 	-0.108 	-0.446
 4.077 	0.485 	0.043
 2.836 	0.261 	0.066
 3.392 	-0.042 	0.407
 3.832 	1.199 	-0.056
 4.062 	0.850 	-0.156
 4.600 	0.102 	-0.360
 5.084 	0.776 	-0.493
 5.316 	0.956 	-0.215
 4.358 	0.566 	-0.085
 3.951 	0.780 	-0.015
 4.676 	-0.430 	-0.121
 4.586 	-0.450 	0.007
 4.114 	0.360 	-0.428
 3.866 	0.309 	-0.135
 3.889 	0.695 	-0.029
 4.200 	0.719 	-0.293
 3.275 	0.252 	0.199
 4.255 	-0.141 	-0.505
 4.795 	-0.359 	-0.991
 5.370 	1.231 	-0.462
 5.064 	0.381 	0.238
 3.961 	1.097 	-0.237
 2.737 	0.776 	0.275
 2.972 	0.754 	0.137
 3.900 	0.105 	-0.075
 4.483 	0.033 	0.247
 4.920 	-0.082 	-0.215
 4.663 	-0.761 	0.189
 1.516 	0.257 	0.803
 2.626 	0.781 	0.065
 3.326 	0.954 	-0.069
 2.803 	0.778 	0.182
 2.915 	-0.044 	0.069
 2.961 	0.072 	0.046
 2.865 	0.644 	0.731
 3.867 	1.093 	0.016
 3.922 	0.854 	0.454
 3.700 	1.900 	0.162
 4.291 	0.536 	-0.319
 4.058 	0.733 	-0.061
 4.232 	0.135 	0.072
 4.701 	-0.182 	-0.149
 4.933 	-0.188 	0.269
 5.048 	-0.999 	0.198
 3.277 	-0.049 	-0.170
 3.264 	0.362 	-0.273
 3.548 	0.448 	-0.009
 4.130 	-0.171 	-0.260
 3.256 	0.196 	0.331
 2.397 	-0.005 	0.490
 2.346 	-0.233 	0.474
 2.666 	0.065 	0.503
 3.589 	0.069 	-0.095
 3.483 	0.287 	0.173
 4.122 	0.001 	0.520
 4.480 	-0.066 	0.449
 4.206 	-0.353 	-0.052
 4.233 	0.101 	-0.161
 4.711 	-0.478 	-0.737
 4.856 	-0.469 	0.444
 2.471 	-0.052 	0.247
 2.553 	-0.302 	0.050
 2.591 	0.834 	-0.006
 3.107 	-0.156 	0.128
 3.460 	0.101 	0.134
 3.838 	-0.582 	-0.046
 3.615 	-0.727 	-0.371
 4.056 	-0.274 	-0.446
 4.268 	0.744 	-0.272
 4.602 	0.438 	-0.418
 3.080 	-0.778 	0.720
 3.231 	-1.816 	0.641
 3.567 	-0.465 	0.315
 3.624 	-0.449 	0.169
 3.452 	-0.457 	-0.244
 3.267 	-0.104 	0.016
 3.892 	-0.403 	-0.130
 4.221 	-0.276 	-0.425
 3.812 	0.133 	-0.037
 3.220 	-0.551 	0.175
 3.852 	0.164 	-0.497
 3.654 	-0.174 	0.345
 3.339 	-0.073 	0.175
 2.826 	-0.268 	0.392
 3.247 	0.011 	0.128
 4.068 	-0.102 	0.375
 4.178 	-0.537 	-0.041
 4.030 	-0.642 	0.388
 2.658 	-0.350 	0.069
 2.493 	0.284 	0.222
 2.861 	0.348 	-0.055
 3.848 	0.085 	-0.265
 4.604 	0.089 	0.014
 4.403 	-0.072 	-0.107
 4.421 	0.136 	-0.069
 4.221 	-0.060 	0.001
 3.690 	0.130 	0.027
 3.694 	-0.140 	0.153
 3.419 	-0.908 	-0.237
 3.597 	-0.874 	-0.044
 4.487 	-0.739 	-0.498
 4.602 	-0.420 	-0.540
 4.358 	-0.358 	-0.076
 4.133 	-0.281 	0.107
 4.312 	0.227 	-0.049
 3.464 	-0.332 	0.236
 2.867 	-0.181 	0.211
 2.578 	-0.346 	0.361
 3.174 	0.190 	0.330
 3.291 	0.385 	-0.033
 2.627 	0.148 	0.122
 2.325 	0.031 	0.344
 2.614 	0.241 	0.152
 3.497 	0.265 	-0.131
 3.694 	-0.128 	-0.299
 4.397 	-1.296 	-0.314
 3.345 	-1.284 	0.443
 4.419 	-0.281 	-0.673
 4.853 	0.200 	-0.559
 4.544 	0.616 	-0.106
 4.780 	0.625 	-0.443
 4.673 	0.122 	-0.172
 4.842 	0.120 	-0.331
 4.607 	-0.348 	-0.187
 2.725 	0.450 	-0.094
 3.082 	0.434 	-0.404
 3.959 	0.090 	-0.109
 4.485 	-0.338 	-0.087
 4.201 	-0.182 	-0.046
 3.832 	0.178 	-0.340
 4.381 	-0.122 	-0.161
 4.643 	-0.556 	0.135
 4.614 	-0.171 	-0.358
 4.596 	-0.172 	0.419
 3.329 	0.810 	0.197
 3.722 	0.565 	0.155
 4.091 	0.406 	0.016
 4.119 	0.439 	0.327
 3.879 	0.214 	-0.037
 4.335 	-0.207 	-0.346
 3.973 	0.745 	-0.473
 4.183 	0.311 	-0.267
 4.368 	0.225 	-0.336
 4.670 	0.052 	-0.594
 4.497 	0.178 	-0.359
 4.318 	0.346 	-0.145
 4.606 	-0.253 	-0.374
 4.491 	-0.319 	0.010
 4.022 	0.118 	0.118
 4.053 	0.474 	0.137
 3.760 	0.260 	0.045
 4.012 	0.401 	-0.148
 4.232 	0.666 	-0.125
 4.131 	0.444 	-0.202
 4.198 	0.342 	-0.296
 3.646 	-0.310 	0.068
 3.606 	0.353 	0.190
 4.169 	0.630 	0.247
 3.719 	0.802 	0.170
 3.873 	0.758 	0.099
 3.884 	0.852 	-0.004
 3.842 	0.370 	-0.238
 3.934 	0.503 	0.011
 3.623 	-0.751 	-0.098
 3.361 	0.404 	0.547
 3.458 	0.346 	-0.103
 3.347 	0.297 	-0.282
 3.518 	0.236 	-0.143
 3.495 	0.543 	-0.084
 3.779 	0.610 	-0.002
 4.261 	0.505 	-0.493
 4.578 	0.469 	-0.272
 2.525 	-0.071 	0.319
 2.457 	-0.501 	0.167
 2.800 	0.065 	0.163
 2.923 	0.001 	0.283
 3.460 	0.873 	-0.026
 3.745 	0.384 	0.074
 4.294 	0.260 	0.356
 3.689 	-0.694 	0.120
 3.803 	0.020 	-0.175
 4.049 	0.461 	-0.146
 4.024 	0.620 	-0.073
 3.851 	0.616 	-0.024
 4.185 	0.876 	-0.277
 4.339 	0.571 	-0.002
 4.044 	0.372 	0.135
 4.174 	0.342 	-0.015
 3.888 	-0.301 	0.304
 3.662 	-0.525 	0.196
 3.636 	-0.732 	0.222
 3.545 	-0.360 	0.020
 3.363 	-0.269 	0.281
 3.604 	-0.473 	0.061
 3.718 	-0.214 	0.200
 4.340 	-0.876 	-0.058
 3.671 	0.062 	0.075
 3.560 	0.453 	0.119
 3.829 	0.178 	-0.074
 4.322 	-0.081 	0.128
 4.351 	0.394 	-0.040
 4.375 	0.733 	0.197
 4.443 	0.714 	-0.003
 3.768 	0.458 	0.107
 4.467 	-0.311 	0.030
 3.604 	-0.421 	0.216
 3.438 	-0.387 	-0.092
 3.336 	-0.381 	-0.099
 3.765 	0.163 	-0.198
 3.954 	0.334 	-0.309
 4.552 	0.345 	-0.123
 4.226 	-0.096 	0.148
 4.109 	-0.450 	0.055
 4.434 	-0.447 	-0.249
 4.675 	-0.217 	0.050
 4.781 	0.214 	-0.204
 4.521 	0.404 	-0.009
 4.287 	0.940 	0.328
 3.808 	0.145 	-0.160
 4.211 	1.127 	-0.017
 3.838 	-0.013 	0.005
 3.970 	-0.249 	-0.027
 3.443 	-0.187 	0.100
 3.071 	-0.484 	0.090
 3.192 	-0.151 	0.022
 3.733 	0.376 	-0.141
 3.933 	0.002 	-0.280
 4.340 	0.334 	-0.187
 4.022 	-0.303 	-0.039
 3.925 	-0.488 	-0.057
 3.966 	-0.043 	0.094
 3.817 	0.640 	0.179
 3.549 	0.602 	0.081
 3.814 	0.545 	-0.138
 4.015 	0.671 	0.068
 3.952 	0.372 	0.279
 3.079 	-0.019 	0.022
 3.371 	0.159 	-0.151
 3.471 	-0.062 	-0.244
 3.734 	-0.099 	-0.139
 2.680 	0.297 	0.145
 2.311 	-0.019 	0.024
 2.379 	-0.160 	0.183
 2.994 	0.350 	0.091
 3.266 	0.156 	-0.325
 2.611 	0.006 	0.458
 2.468 	0.144 	-0.083
 2.153 	-0.232 	0.139
 2.815 	0.703 	0.076
 3.050 	-0.250 	0.242
 3.035 	-0.448 	-0.037
 1.987 	-0.133 	0.578
 5.703 	-0.007 	0.348
 5.352 	0.988 	-0.361
 6.100 	0.374 	-1.075
 5.986 	-0.080 	-1.101
 6.255 	-0.593 	-0.349
 5.340 	0.289 	0.460
 5.033 	-0.017 	-0.503
 6.025 	-0.078 	-0.762
 6.018 	-0.065 	-0.798
 6.363 	-0.089 	-0.866
 6.917 	0.312 	-0.791
 7.078 	0.975 	-0.623
 6.337 	0.990 	-0.018
 6.109 	1.322 	-0.248
 5.480 	0.384 	0.456
 5.487 	0.404 	0.154
 5.124 	-1.208 	0.394
 6.251 	0.911 	-0.210
 5.617 	-0.068 	-1.066
 5.552 	1.068 	0.076
 5.142 	0.429 	1.249
 5.227 	0.309 	-0.268
 5.088 	-0.456 	-1.160
 4.755 	-0.088 	-1.055
 5.631 	0.585 	-0.366
 5.718 	0.755 	-0.848
 5.907 	0.786 	-0.210
 5.497 	1.125 	0.447
 5.618 	1.454 	-0.170
 6.136 	2.139 	0.355
 5.835 	0.142 	0.472
 5.665 	-0.018 	0.577
 5.366 	-0.655 	0.399
 5.067 	0.041 	-0.319
 4.864 	0.668 	-0.357
 4.728 	0.937 	0.641
 5.141 	-0.303 	0.401
 5.016 	0.585 	-1.279
 4.485 	0.207 	0.389
 4.118 	-0.959 	-0.103
 3.612 	0.067 	0.531
 3.877 	0.453 	0.770
 4.051 	-0.147 	1.271
 4.855 	0.953 	0.915
 5.195 	0.147 	0.687
 5.526 	1.372 	0.236
 5.926 	-0.279 	0.070
 5.260 	0.463 	0.397
 4.696 	-0.464 	-0.113
 3.719 	-0.171 	0.471
 3.944 	0.926 	0.500
 4.333 	1.230 	-0.368
 3.576 	-0.166 	0.899
 3.306 	1.115 	0.639
 3.551 	0.253 	0.757
 3.737 	0.120 	0.103
 4.210 	0.202 	-0.068
 4.656 	0.096 	1.005
 5.294 	-0.784 	1.124
 4.633 	-0.184 	0.086
 5.463 	-0.508 	0.236
 5.699 	-0.628 	0.066
 5.514 	-0.319 	0.362
 5.044 	-0.627 	0.189
 4.205 	0.028 	0.284
 4.456 	0.162 	-0.299
 4.641 	-0.290 	0.118
 4.484 	0.373 	0.599
 4.627 	-0.148 	0.119
 4.914 	0.027 	-0.004
 4.892 	0.294 	-0.079
 4.990 	-0.201 	-0.026
 5.499 	0.312 	-0.124
 5.813 	-0.077 	-0.485
 5.890 	0.122 	0.012
 5.825 	0.214 	-1.092
 5.571 	-0.229 	-0.199
 5.172 	-0.649 	-0.538
 5.701 	-0.757 	-0.486
 5.629 	-0.539 	-0.329
 4.828 	-0.129 	0.211
 4.716 	0.349 	-0.279
 4.868 	0.407 	-0.415
 5.265 	-0.160 	0.293
 5.128 	-0.178 	-0.126
 4.843 	-0.539 	0.450
 4.924 	-0.466 	-0.185
 4.495 	-0.074 	0.179
 4.062 	-0.502 	0.800
 4.494 	0.028 	0.059
 5.359 	0.474 	-0.456
 5.138 	0.502 	-0.577
 5.515 	-0.389 	0.059
 4.898 	-0.374 	-0.075
 5.067 	-1.099 	-0.280
 6.228 	-0.459 	-0.922
 4.773 	-0.363 	-0.018
 4.808 	0.003 	0.098
 4.650 	0.457 	0.506
 4.777 	0.389 	0.017
 4.943 	0.334 	-0.535
 4.978 	-0.034 	-0.480
 4.904 	-0.294 	-0.302
 5.001 	0.155 	-0.554
 5.336 	0.063 	-0.129
 4.521 	0.376 	0.276
 4.189 	0.063 	0.352
 5.084 	0.651 	-0.056
 5.513 	0.355 	-0.061
 5.437 	-0.421 	0.350
 5.761 	0.420 	-0.207
 4.439 	-0.822 	0.957
 5.169 	-0.096 	-0.345
 5.144 	0.041 	-0.397
 4.918 	0.319 	-0.077
 4.503 	0.432 	0.061
 4.249 	-0.040 	0.169
 4.480 	0.417 	-0.033
 4.634 	-0.273 	0.096
 4.975 	-0.119 	-0.256
 5.298 	-0.427 	-0.868
 5.664 	-0.082 	-0.401
 5.563 	-0.419 	-0.451
 5.171 	0.334 	-0.155
 5.486 	-0.109 	-0.277
 5.521 	-0.553 	-0.427
 5.899 	0.112 	-0.067
 5.481 	0.053 	0.095
 4.794 	0.314 	-0.235
 4.884 	0.320 	-0.755
 4.618 	0.627 	-0.080
 4.612 	0.634 	0.203
 4.569 	0.104 	0.220
 4.638 	-0.364 	-0.017
 4.672 	-0.770 	0.042
 5.021 	-0.621 	-0.286
 5.144 	-0.345 	-0.450
 5.165 	-0.051 	0.195
 5.534 	-0.235 	-0.493
 5.351 	-0.073 	-0.292
 5.716 	0.112 	-0.797
 5.073 	0.160 	0.602
 5.639 	-0.459 	-0.401
 5.255 	-0.333 	-0.435
 3.913 	0.064 	-0.432
 4.454 	0.380 	-0.476
 4.870 	0.633 	-0.837
 4.938 	0.772 	-0.677
 4.943 	0.163 	-0.586
 5.026 	-0.111 	-0.331
 4.589 	-0.736 	-0.714
 4.573 	-0.555 	0.115
 5.386 	0.357 	0.103
 4.884 	0.580 	0.090
 5.276 	0.183 	-0.385
 4.779 	-0.233 	-0.339
 4.819 	-0.426 	-0.489
 5.313 	0.152 	-0.369
 5.320 	0.580 	-0.021
 4.584 	-0.183 	0.222
 3.265 	-0.074 	0.519
 3.145 	-0.226 	0.443
 3.709 	0.045 	0.200
 4.140 	0.644 	-0.067
 4.013 	0.321 	-0.075
 4.556 	-0.257 	-1.124
 4.827 	0.135 	-0.714
 4.742 	0.032 	-0.014
 4.386 	-0.114 	0.555
 4.867 	0.616 	0.053
 4.517 	0.318 	-0.068
 4.498 	0.087 	0.054
 4.963 	-0.396 	0.190
 5.092 	0.419 	-0.250
 4.957 	0.461 	-0.009
 4.824 	0.064 	-0.190
 3.173 	0.516 	0.082
 2.679 	-0.322 	0.509
 3.144 	-0.416 	0.805
 2.999 	0.081 	0.857
 3.247 	-0.031 	-0.575
 3.580 	0.289 	-0.384
 3.722 	0.552 	0.092
 4.148 	0.406 	-0.038
 4.304 	-0.032 	0.223
 4.666 	0.091 	0.252
 4.188 	-0.151 	0.415
 4.836 	-0.511 	0.019
 4.960 	-0.644 	-0.380
 4.897 	0.378 	0.013
 5.159 	0.706 	0.179
 4.652 	-0.524 	-0.136
 3.665 	0.612 	0.178
 3.465 	-0.084 	0.022
 3.419 	-0.304 	0.398
 3.160 	-0.029 	0.532
 3.730 	0.292 	-0.524
 4.329 	0.704 	-0.408
 4.354 	0.898 	-0.361
 4.512 	0.570 	-0.506
 4.426 	0.018 	-0.257
 4.286 	-0.355 	0.195
 4.759 	-0.167 	0.256
 4.727 	-0.570 	0.254
 4.598 	0.155 	-0.292
 4.237 	0.092 	0.269
 4.103 	0.180 	0.586
 4.355 	-0.178 	-0.135
 4.285 	0.223 	-0.052
 4.106 	0.127 	-0.005
 3.769 	-0.315 	0.408
 3.827 	-0.304 	0.038
 4.244 	0.162 	-0.218
 4.832 	0.407 	-0.563
 4.841 	0.588 	-0.515
 4.771 	0.711 	-0.053
 4.713 	0.539 	-0.379
 4.576 	0.070 	-0.085
 5.158 	-0.269 	-0.163
 4.778 	-0.552 	0.109
 4.133 	0.398 	0.179
 4.404 	-0.109 	0.293
 4.234 	-0.171 	0.061
 3.946 	-0.598 	0.299
 4.176 	0.205 	0.014
 4.127 	0.332 	-0.149
 3.905 	0.044 	-0.005
 3.672 	-0.126 	0.066
 3.957 	-0.224 	-0.130
 4.149 	-0.058 	0.026
 4.310 	0.451 	0.024
 4.789 	0.533 	-0.343
 5.003 	0.837 	-0.290
 5.177 	0.002 	0.159
 4.428 	-0.434 	0.266
 4.122 	0.008 	0.192
 4.023 	0.420 	-0.091
 3.682 	0.419 	0.381
 3.552 	-0.292 	0.932
 4.299 	-1.008 	0.795
 4.306 	-0.135 	-0.270
 3.817 	0.294 	-0.099
 3.492 	0.007 	-0.108
 3.735 	-0.433 	-0.039
 3.444 	-0.795 	0.153
 3.831 	-0.218 	-0.032
 4.090 	-0.074 	0.016
 4.706 	0.141 	-0.076
 4.828 	0.420 	-0.218
 4.769 	0.367 	0.555
 4.813 	-0.336 	0.168
 3.530 	0.100 	0.119
 3.123 	0.202 	0.386
 3.939 	0.648 	0.740
 4.172 	0.133 	0.220
 4.031 	-0.937 	0.450
 6.525 	1.576 	0.737
 6.840 	2.057 	0.517
 6.580 	1.276 	0.242
 6.571 	0.376 	-0.507
 6.623 	0.274 	-0.787
 7.299 	0.599 	-0.463
 6.609 	-0.265 	-0.290
 6.556 	-0.096 	-1.064
 6.470 	0.067 	-1.052
 6.802 	0.092 	-1.215
 6.650 	0.168 	-0.584
 7.041 	0.106 	-0.837
 6.995 	0.670 	-0.116
 6.912 	0.926 	-0.294
 6.056 	0.566 	0.883
 5.358 	0.774 	0.230
 5.906 	1.493 	1.232
 5.969 	0.954 	0.390
 5.325 	-0.210 	-0.072
 4.785 	0.203 	0.705
 5.242 	0.238 	-0.262
 5.905 	0.570 	-0.076
 5.663 	-0.141 	-0.207
 5.747 	-0.403 	-1.068
 5.556 	-0.292 	-0.288
 6.579 	0.129 	-0.764
 6.145 	0.521 	-0.054
 5.941 	-0.589 	0.420
 5.857 	0.325 	-0.456
 5.534 	1.176 	-0.174
 5.229 	0.987 	0.604
 5.041 	1.459 	0.954
 4.882 	0.435 	0.406
 4.927 	-0.302 	-0.251
 5.116 	-0.487 	-0.157
 4.906 	0.811 	0.306
 5.137 	0.733 	-0.323
 5.079 	0.782 	-0.338
 6.007 	0.178 	-0.675
 4.889 	0.601 	-0.531
 4.592 	-0.625 	0.613
 4.385 	0.509 	0.548
 4.316 	0.220 	1.270
 5.453 	0.734 	0.242
 4.862 	1.394 	0.775
 4.447 	1.157 	0.806
 5.762 	0.404 	0.646
 6.541 	0.836 	0.625
 4.730 	-0.013 	0.245
 4.456 	0.168 	0.370
 4.350 	-0.662 	0.701
 4.571 	0.719 	0.978
 4.187 	0.083 	0.620
 4.144 	0.480 	-0.124
 4.723 	0.961 	0.467
 5.135 	0.918 	-0.337
 6.006 	0.741 	-0.744
 4.852 	0.602 	1.058
 5.224 	1.339 	0.842
 4.546 	1.119 	0.848
 5.032 	1.631 	0.757
 6.175 	0.907 	0.717
 5.483 	0.288 	0.668
 5.915 	0.975 	0.216
 4.377 	-0.236 	0.227
 4.199 	0.421 	-0.165
 4.081 	-0.198 	0.821
 4.082 	-0.428 	0.488
 5.004 	0.093 	0.527
 4.308 	0.928 	0.264
 4.904 	1.322 	0.049
 4.625 	0.455 	0.043
 5.541 	0.187 	0.076
 4.881 	1.157 	-0.237
 5.358 	0.695 	-0.577
 5.872 	0.641 	-0.808
 6.001 	0.298 	-0.871
 5.673 	0.104 	-0.314
 5.001 	0.661 	-0.006
 5.102 	0.764 	0.021
 5.452 	-0.072 	-0.168
 5.948 	-0.394 	-0.261
 5.873 	-0.354 	-0.408
 5.601 	0.156 	0.526
 5.429 	-0.144 	0.116
 4.660 	1.279 	-0.129
 4.714 	1.107 	-0.166
 5.097 	0.804 	-0.190
 5.386 	0.116 	0.229
 5.363 	0.218 	-0.304
 5.537 	0.450 	-0.452
 5.863 	0.286 	-0.427
 6.087 	0.972 	-0.544
 5.880 	0.973 	-0.746
 5.779 	0.548 	-0.779
 5.921 	0.288 	-0.689
 5.435 	-0.484 	-0.070
 5.516 	-0.339 	-0.217
 5.180 	-0.376 	0.038
 5.438 	-0.323 	-0.234
 5.530 	0.137 	-0.944
 5.312 	1.660 	-0.453
 5.201 	0.880 	-0.414
 5.763 	1.108 	-0.458
 6.303 	1.174 	-0.845
 6.031 	0.261 	-0.249
 5.711 	0.037 	0.132
 5.916 	0.417 	-0.384
 5.607 	1.418 	-0.281
 5.696 	1.058 	-0.343
 5.793 	0.688 	-0.094
 6.190 	0.332 	0.347
 5.237 	-0.291 	-0.326
 5.300 	-0.150 	-0.303
 4.808 	-0.020 	0.415
 5.056 	0.224 	-0.109
 4.675 	0.562 	0.201
 4.573 	0.492 	0.355
 5.365 	0.731 	-0.223
 5.886 	0.744 	-0.219
 5.902 	0.864 	0.050
 5.619 	0.483 	0.213
 5.719 	-0.238 	-0.008
 6.249 	0.491 	-0.229
 5.665 	1.441 	-0.128
 5.985 	1.083 	-0.139
 5.882 	0.257 	0.361
 6.186 	-0.318 	0.199
 5.191 	-0.287 	-0.286
 4.884 	-0.745 	-0.381
 4.955 	0.213 	-0.089
 4.701 	0.662 	0.086
 4.860 	0.912 	0.087
 4.467 	0.758 	-0.049
 4.695 	0.587 	-0.145
 5.161 	-0.177 	-0.469
 5.604 	-0.450 	-0.521
 5.892 	-0.318 	-0.506
 5.903 	-0.233 	-0.404
 5.755 	0.188 	0.118
 5.951 	0.791 	0.351
 5.902 	0.238 	0.352
 6.413 	0.122 	-0.852
 6.478 	0.052 	-0.167
 4.799 	-1.064 	-0.482
 5.167 	-0.907 	-0.606
 5.030 	-0.087 	-0.474
 5.309 	0.452 	-0.318
 5.331 	0.984 	-0.566
 5.142 	0.712 	-0.530
 5.398 	0.069 	-0.582
 5.856 	-0.272 	-0.784
 5.182 	-0.392 	0.117
 5.070 	-0.090 	-0.350
 5.698 	0.406 	-0.567
 5.254 	0.035 	-0.054
 5.349 	0.558 	-0.590
 5.611 	0.102 	-0.457
 5.369 	-0.006 	0.003
 4.937 	0.289 	0.321
 4.484 	-1.025 	-0.270
 3.796 	-0.889 	0.500
 4.254 	-0.072 	-0.376
 4.826 	-0.215 	-0.799
 5.262 	0.803 	-0.277
 5.315 	0.772 	-0.837
 5.080 	-0.187 	-0.956
 5.131 	0.478 	-0.279
 5.509 	0.246 	-0.314
 4.434 	0.215 	-0.013
 4.366 	0.306 	0.335
 4.898 	0.511 	-0.234
 4.825 	-0.137 	0.064
 4.934 	-0.352 	0.415
 4.704 	0.104 	0.357
 5.129 	0.021 	0.183
 4.558 	-0.576 	-0.002
 4.467 	0.237 	0.156
 3.708 	-0.282 	0.268
 4.154 	0.768 	0.773
 4.998 	0.494 	-1.411
 4.562 	0.638 	-0.557
 4.879 	0.475 	-0.686
 4.186 	0.331 	-0.030
 3.907 	0.099 	0.506
 4.178 	0.439 	0.853
 4.679 	-0.227 	0.591
 4.822 	-0.433 	0.320
 5.091 	-0.463 	-0.136
 4.962 	-0.584 	0.014
 5.261 	-0.266 	0.141
 5.862 	-0.575 	-0.169
 5.684 	-0.297 	0.018
 5.749 	0.417 	-0.089
 5.233 	0.546 	-0.152
 3.918 	0.786 	0.600
 5.105 	0.285 	-1.153
 4.704 	0.584 	-0.460
 4.746 	0.818 	-0.925
 4.490 	0.746 	-0.525
 4.849 	0.650 	-0.286
 4.810 	0.302 	-0.366
 5.073 	-0.126 	-0.259
 5.231 	-0.459 	0.142
 4.974 	-0.418 	-0.058
 4.929 	0.069 	-0.079
 5.297 	-0.213 	-0.041
 5.369 	-0.285 	-0.132
 4.166 	0.289 	0.763
 4.186 	0.849 	0.512
 4.467 	1.475 	-0.031
 5.101 	0.739 	-0.254
 4.880 	0.349 	-0.268
 4.897 	0.384 	-0.397
 5.224 	0.794 	-0.665
 4.665 	0.647 	-0.233
 4.721 	0.470 	0.068
 5.288 	0.866 	-0.612
 5.289 	0.243 	0.099
 5.442 	-0.581 	0.222
 4.743 	-0.080 	0.516
 4.920 	0.158 	0.217
 5.220 	-0.133 	0.233
 4.643 	-0.033 	-0.050
 4.430 	-0.017 	0.296
 4.412 	-0.301 	0.458
 4.539 	0.098 	0.172
 4.606 	0.297 	0.422
 4.629 	0.509 	-0.112
 4.414 	0.326 	0.179
 4.703 	0.370 	-0.086
 5.508 	0.721 	-0.648
 5.065 	0.624 	-0.365
 5.022 	0.455 	0.077
 5.298 	-0.053 	0.185
 5.267 	-0.185 	0.145
 5.381 	0.002 	-0.026
 4.950 	0.391 	0.387
 4.762 	0.552 	0.220
 4.236 	0.679 	0.591
 5.295 	0.121 	-0.001
 4.915 	-0.274 	0.100
 4.667 	-0.567 	-0.060
 4.586 	-0.223 	0.166
 4.488 	0.535 	0.106
 4.508 	0.323 	0.275
 4.525 	0.453 	0.447
 5.025 	0.860 	-0.303
 5.054 	0.535 	0.314
 5.420 	0.570 	0.434
 5.233 	0.440 	0.120
 5.423 	-0.122 	0.017
 4.981 	-0.121 	0.591
 5.216 	0.795 	0.485
 5.196 	0.898 	-0.012
 5.023 	0.967 	0.421
 5.511 	0.564 	0.393
 5.870 	0.890 	0.833
 6.942 	1.249 	0.664
 6.830 	0.466 	-0.073
 7.206 	0.586 	0.029
 7.607 	1.255 	-0.216
 7.287 	0.645 	-0.298
 7.177 	0.527 	-0.439
 7.025 	0.484 	-0.778
 6.951 	0.301 	-0.838
 6.967 	-0.187 	-0.650
 6.597 	0.004 	-0.412
 7.504 	0.313 	-0.103
 6.717 	0.457 	-0.030
 6.613 	0.992 	0.439
 7.142 	1.174 	0.722
 6.012 	1.781 	1.273
 6.096 	0.632 	0.992
 6.141 	0.365 	0.599
 6.379 	-0.150 	0.809
 6.017 	-0.583 	-0.067
 6.113 	0.215 	-0.157
 6.580 	0.615 	-0.107
 5.959 	0.063 	-0.527
 6.212 	0.087 	-0.264
 6.596 	-0.424 	-0.227
 6.288 	0.044 	-0.472
 6.781 	0.731 	-0.228
 6.999 	0.725 	-0.247
 6.453 	1.110 	-0.468
 6.602 	1.328 	0.402
 6.662 	0.873 	0.345
 5.354 	0.422 	1.614
 6.330 	0.762 	-0.032
 6.720 	-0.121 	0.020
 6.561 	0.232 	0.496
 5.623 	-0.454 	0.105
 5.512 	0.180 	-0.657
 6.241 	0.792 	-0.839
 5.850 	0.816 	0.213
 5.470 	-0.798 	0.724
 5.477 	-0.646 	0.023
 5.705 	0.378 	-0.554
 5.831 	0.887 	0.223
 5.900 	0.728 	0.441
 5.773 	1.055 	0.349
 5.798 	1.974 	0.186
 5.760 	0.892 	0.636
 4.822 	-0.363 	0.655
 5.130 	0.184 	0.257
 5.094 	0.438 	0.573
 4.445 	-0.041 	1.229
 5.025 	-0.168 	0.249
 6.242 	-0.563 	-0.638
 6.402 	-0.052 	-0.853
 6.496 	0.547 	-0.420
 5.807 	0.453 	-0.421
 5.076 	0.316 	0.287
 4.983 	0.649 	-0.257
 5.490 	0.861 	1.074
 4.793 	1.293 	0.567
 5.262 	1.219 	0.696
 5.722 	2.060 	0.566
 5.823 	1.489 	0.329
 5.074 	-0.336 	0.611
 4.927 	-0.058 	0.325
 4.787 	0.391 	1.153
 4.726 	-0.164 	-0.078
 5.265 	-0.030 	0.127
 5.767 	-0.373 	0.034
 5.539 	0.413 	0.258
 6.725 	1.076 	-0.942
 6.543 	0.987 	-0.501
 6.121 	0.190 	0.540
 5.784 	0.743 	-0.399
 5.081 	1.326 	0.088
 5.870 	1.005 	-0.140
 6.313 	0.966 	-0.512
 5.810 	1.543 	-0.095
 5.912 	1.798 	-0.128
 5.699 	-0.491 	0.051
 6.083 	0.031 	-0.515
 6.023 	-0.234 	0.184
 5.944 	0.112 	0.110
 6.021 	0.660 	-0.479
 5.912 	0.029 	-0.257
 5.789 	0.007 	-0.383
 5.795 	0.261 	0.548
 6.016 	1.663 	-0.349
 6.675 	1.050 	-0.011
 6.539 	0.304 	-0.148
 6.931 	0.639 	-0.757
 7.236 	0.668 	-0.370
 6.771 	0.413 	-0.406
 7.187 	0.435 	-0.729
 7.308 	0.575 	-0.089
 6.166 	-0.248 	-0.279
 5.761 	-0.480 	-0.274
 5.971 	-0.164 	-0.286
 6.128 	-0.182 	-0.131
 6.522 	0.413 	-0.104
 6.593 	1.061 	-0.714
 6.470 	0.819 	-0.355
 5.986 	0.417 	-0.523
 6.386 	0.411 	-0.605
 6.598 	0.737 	-0.258
 6.567 	0.127 	-0.206
 6.954 	0.126 	-0.211
 7.076 	0.699 	-0.219
 7.043 	0.630 	-0.361
 6.352 	0.914 	-0.253
 6.295 	0.181 	0.656
 5.889 	-0.011 	-0.062
 5.442 	-0.089 	-0.098
 5.748 	0.047 	-0.041
 5.748 	-0.112 	-0.038
 5.060 	-0.065 	0.327
 5.645 	0.711 	0.130
 6.370 	0.894 	-0.231
 5.744 	0.434 	-0.093
 5.195 	0.349 	0.475
 5.496 	0.493 	0.263
 6.144 	0.451 	0.023
 6.158 	-0.311 	0.064
 6.229 	0.311 	-0.026
 6.443 	1.215 	-0.183
 6.339 	1.605 	0.223
 6.439 	0.543 	0.141
 5.293 	0.084 	-0.064
 5.226 	0.106 	0.136
 5.468 	0.426 	-0.122
 5.444 	0.459 	-0.006
 5.086 	0.244 	-0.275
 4.686 	0.582 	-0.128
 4.982 	0.907 	-0.314
 5.382 	0.113 	-0.413
 5.483 	0.183 	-0.229
 5.680 	0.439 	-0.285
 6.078 	-0.046 	-0.354
 6.077 	-0.119 	0.020
 5.731 	0.680 	0.112
 5.951 	1.146 	0.192
 6.491 	1.129 	-0.038
 7.021 	0.429 	0.026
 5.303 	0.571 	-0.294
 5.201 	-0.229 	-0.392
 5.435 	0.010 	-0.072
 5.618 	0.910 	-0.128
 5.594 	0.721 	-0.598
 5.718 	0.848 	-0.739
 5.966 	0.571 	-0.890
 6.284 	0.019 	-0.769
 6.344 	0.057 	-0.448
 5.785 	-0.415 	-0.538
 5.901 	0.060 	-0.753
 5.613 	0.226 	-0.476
 5.618 	0.696 	0.082
 5.386 	0.242 	0.518
 5.397 	0.359 	0.427
 5.482 	-0.018 	0.593
 5.131 	0.564 	-0.270
 5.580 	-0.515 	0.259
 5.359 	-0.338 	-0.620
 5.182 	0.384 	-0.165
 5.810 	0.734 	-0.320
 5.455 	0.554 	-0.486
 5.237 	-0.136 	-0.565
 4.620 	-0.300 	0.183
 4.937 	0.251 	0.161
 5.004 	-0.018 	0.381
 5.244 	0.375 	0.396
 5.322 	1.048 	-0.208
 5.232 	0.563 	0.400
 5.216 	0.337 	0.231
 5.341 	-0.035 	0.349
 5.045 	0.041 	0.431
 5.630 	0.053 	-0.078
 5.614 	-0.657 	0.025
 5.970 	-0.697 	0.158
 5.972 	-0.266 	-0.656
 5.728 	0.598 	-0.537
 5.204 	0.080 	-0.656
 4.748 	0.727 	-0.188
 4.650 	0.307 	-0.257
 4.442 	0.228 	0.224
 4.558 	0.209 	0.467
 4.517 	0.584 	0.252
 4.978 	0.976 	0.313
 5.402 	1.130 	0.071
 5.253 	0.825 	-0.181
 5.095 	0.288 	-0.017
 4.771 	0.392 	-0.275
 6.249 	-0.364 	-0.226
 6.333 	-0.541 	-0.014
 5.536 	-0.200 	0.182
 6.238 	-0.415 	0.007
 5.669 	0.106 	-0.550
 5.954 	0.197 	-0.809
 5.846 	0.110 	-0.703
 6.042 	0.550 	-0.225
 5.141 	0.572 	-0.553
 5.180 	0.900 	-0.325
 4.921 	0.497 	-0.243
 4.617 	0.293 	-0.026
 4.886 	0.419 	0.101
 5.011 	0.509 	0.001
 5.176 	0.355 	0.034
 4.998 	0.307 	-0.167
 5.211 	-0.404 	0.245
 5.369 	-0.548 	0.529
 5.379 	-0.423 	0.055
 5.659 	-0.044 	-0.170
 6.010 	-0.051 	0.057
 5.532 	0.305 	-0.434
 5.615 	0.213 	-0.291
 5.613 	1.059 	-0.537
 6.013 	0.579 	-0.409
 5.872 	0.729 	-0.720
 4.714 	0.218 	0.060
 4.876 	0.011 	0.129
 5.131 	-0.179 	0.134
 5.696 	0.041 	-0.103
 5.732 	0.405 	-0.202
 5.729 	0.234 	-0.143
 4.598 	-0.135 	0.552
 4.580 	-0.476 	0.724
 4.917 	-0.206 	0.778
 5.363 	0.140 	0.681
 5.083 	-0.012 	0.476
 5.143 	0.047 	-0.125
 5.305 	0.418 	-0.199
 5.721 	0.703 	-0.879
 5.675 	0.563 	0.133
 5.210 	1.323 	-0.033
 5.314 	0.667 	-0.311
 5.162 	0.018 	-0.244
 5.281 	-0.226 	0.129
 5.445 	0.087 	0.351
 5.548 	0.541 	-0.106
 6.026 	0.660 	-0.262
 5.112 	0.094 	-0.074
 5.282 	-0.268 	-0.052
 4.712 	-0.308 	0.382
 4.678 	-0.125 	0.691
 4.929 	-0.076 	0.625
 4.926 	0.146 	0.247
 5.190 	0.351 	-0.311
 5.296 	0.344 	-0.275
 5.070 	1.216 	-0.070
 5.084 	1.191 	0.109
 5.115 	0.837 	-0.234
 5.249 	0.083 	0.061
 5.499 	0.051 	0.230
 5.191 	0.204 	0.407
 5.086 	0.539 	0.253
 5.572 	0.763 	0.015
 6.539 	0.813 	0.135
 5.980 	0.453 	0.361
 6.047 	0.448 	0.155
 6.458 	0.863 	0.260
 7.113 	1.553 	0.638
 7.294 	1.752 	0.463
 7.287 	1.431 	-0.022
 7.516 	1.081 	-0.586
 7.279 	0.889 	-0.498
 7.052 	0.370 	-0.344
 7.253 	0.424 	-0.212
 7.180 	0.036 	-0.554
 7.272 	0.372 	-0.318
 7.555 	-0.277 	-0.334
 7.745 	0.165 	-0.118
 7.093 	-0.065 	0.143
 6.180 	-0.260 	1.234
 6.457 	0.889 	0.488
 5.953 	1.145 	0.842
 6.512 	0.192 	0.746
 6.640 	0.265 	0.498
 7.087 	1.548 	0.459
 6.936 	1.070 	-0.005
 7.107 	0.987 	-0.109
 7.104 	0.909 	-0.083
 6.730 	0.434 	0.151
 6.782 	-0.340 	-0.585
 6.520 	0.154 	-0.376
 6.753 	0.798 	-0.470
 6.496 	0.186 	-0.241
 6.379 	0.172 	0.138
 7.028 	-0.007 	0.570
 6.400 	-0.226 	0.701
 6.134 	1.297 	0.506
 6.531 	1.090 	-0.019
 7.485 	0.052 	0.064
 6.995 	0.108 	-0.060
 6.798 	1.155 	-0.136
 6.529 	1.066 	-0.248
 6.412 	0.637 	-0.085
 6.312 	1.081 	-0.219
 6.530 	0.572 	0.162
 5.886 	0.300 	-0.174
 5.492 	-0.330 	0.401
 5.436 	0.286 	0.412
 5.960 	0.341 	0.539
 6.804 	-0.105 	0.144
 6.966 	-0.520 	0.159
 5.826 	-0.418 	0.559
 6.079 	0.273 	0.565
 6.159 	0.451 	0.871
 6.901 	0.793 	0.747
 7.146 	0.773 	-0.410
 6.748 	0.782 	-0.235
 6.884 	0.873 	-0.258
 6.803 	0.982 	-0.279
 6.404 	0.799 	-0.439
 7.181 	0.457 	-0.148
 5.890 	0.932 	0.245
 5.921 	0.657 	-0.004
 5.992 	0.552 	0.102
 6.534 	0.547 	0.530
 6.841 	0.126 	0.028
 6.701 	-0.067 	-0.051
 5.863 	-0.634 	0.824
 5.844 	-0.565 	0.512
 5.763 	0.227 	1.062
 6.601 	-0.244 	0.172
 6.204 	0.465 	-0.405
 6.151 	0.752 	-0.207
 6.965 	1.221 	-0.486
 7.232 	0.974 	-0.871
 6.937 	0.733 	-0.737
 7.074 	0.918 	-0.043
 6.587 	1.131 	0.438
 6.899 	1.111 	-0.233
 7.371 	0.926 	-0.538
 7.262 	1.378 	-0.314
 7.167 	0.722 	0.009
 7.292 	0.014 	0.460
 6.434 	-0.547 	0.152
 5.958 	-0.325 	0.209
 6.474 	-0.012 	0.391
 6.209 	-0.841 	0.005
 6.438 	0.005 	-0.156
 6.763 	1.158 	-0.685
 6.669 	0.949 	-0.698
 6.752 	0.367 	-0.083
 7.600 	0.754 	-0.986
 7.298 	1.456 	-0.321
 7.303 	1.089 	-0.346
 7.899 	1.036 	-0.325
 7.521 	0.853 	-0.414
 7.530 	1.621 	-0.050
 7.447 	1.145 	-0.896
 7.529 	0.732 	-0.143
 6.154 	-0.408 	0.194
 5.987 	-0.393 	-0.457
 6.102 	-0.773 	0.094
 5.899 	-0.673 	-0.255
 6.061 	-0.360 	-0.387
 6.575 	-0.192 	-0.894
 7.119 	1.411 	-0.670
 6.869 	0.510 	-0.296
 6.685 	0.430 	0.223
 6.768 	1.172 	-0.025
 6.501 	0.888 	-0.255
 7.110 	0.643 	0.184
 7.374 	0.736 	0.168
 7.303 	1.354 	-0.565
 6.642 	0.885 	0.292
 6.760 	0.805 	0.374
 5.940 	-0.479 	0.169
 5.900 	-0.635 	-0.211
 6.144 	-0.615 	-0.505
 5.693 	-0.555 	-0.122
 5.459 	-0.362 	0.189
 5.998 	-0.305 	0.337
 6.411 	0.765 	0.083
 6.262 	0.577 	0.146
 6.613 	0.356 	0.435
 6.935 	1.277 	0.332
 6.909 	1.001 	0.264
 6.830 	-0.021 	0.324
 6.556 	0.484 	0.023
 6.787 	0.756 	-0.489
 6.781 	1.295 	0.091
 7.140 	1.353 	-0.004
 5.506 	-0.735 	0.032
 5.670 	-0.896 	-0.129
 6.536 	-0.472 	-0.679
 6.733 	0.141 	-0.687
 6.863 	-0.076 	-0.734
 6.658 	-0.472 	-0.235
 6.146 	0.716 	-0.124
 5.970 	0.530 	-0.093
 5.749 	-0.064 	0.206
 5.982 	0.555 	-0.460
 6.979 	1.548 	-0.288
 6.180 	0.182 	0.102
 5.726 	0.029 	0.334
 6.289 	0.789 	-0.005
 6.684 	1.111 	0.203
 6.743 	0.749 	0.078
 5.690 	-0.471 	-0.262
 5.956 	-0.757 	-0.463
 5.822 	-0.732 	0.036
 6.074 	0.234 	0.140
 6.371 	0.084 	-0.446
 6.914 	0.030 	-0.665
 6.752 	0.258 	-0.504
 6.466 	0.112 	-0.407
 6.432 	-0.094 	-0.122
 6.304 	0.271 	-0.174
 6.252 	0.425 	-0.153
 6.328 	0.330 	-0.254
 5.821 	0.056 	0.048
 5.463 	0.378 	0.642
 6.004 	0.609 	0.453
 6.089 	0.206 	0.498
 5.655 	-0.653 	-0.183
 5.906 	-0.406 	-0.003
 5.890 	-0.253 	-0.289
 5.667 	0.222 	-0.122
 5.704 	0.016 	-0.193
 5.706 	-0.293 	-0.413
 5.678 	-0.077 	-0.409
 5.590 	-0.094 	0.189
 5.565 	0.044 	0.362
 6.312 	0.199 	0.042
 6.787 	0.531 	-0.297
 6.535 	0.097 	-0.207
 6.133 	1.012 	-0.120
 6.236 	0.767 	-0.194
 5.532 	0.462 	0.230
 5.542 	0.410 	0.232
 6.037 	-0.259 	-0.169
 5.553 	-0.380 	0.077
 5.657 	-0.235 	-0.094
 5.808 	-0.106 	0.106
 5.780 	-0.317 	-0.583
 5.804 	-0.064 	-0.379
 5.602 	0.069 	-0.194
 5.972 	0.331 	-0.296
 5.575 	0.530 	0.033
 5.895 	0.301 	-0.461
 4.824 	0.504 	0.084
 4.407 	0.471 	0.019
 4.563 	0.445 	-0.062
 5.253 	0.670 	-0.015
 5.386 	0.598 	-0.406
 4.886 	0.489 	-0.192
 6.421 	0.021 	0.014
 6.003 	-0.535 	0.178
 6.194 	-0.299 	0.106
 6.310 	-0.254 	-0.323
 6.240 	0.009 	-0.231
 6.116 	-0.015 	-0.628
 6.136 	0.527 	-0.446
 5.543 	0.221 	-0.555
 5.860 	0.246 	-0.433
 5.197 	0.692 	-0.327
 5.028 	0.897 	0.536
 4.491 	0.720 	0.704
 4.920 	0.321 	-0.039
 5.066 	0.343 	0.004
 4.883 	0.654 	0.094
 5.460 	0.496 	-0.220
 5.496 	-0.117 	0.369
 5.338 	-0.656 	0.540
 5.738 	-0.838 	0.227
 6.380 	-0.267 	-0.667
 6.696 	-0.322 	-0.198
 6.198 	-0.036 	-0.121
 5.912 	0.501 	-0.362
 5.925 	0.379 	-0.496
 6.066 	0.630 	-0.641
 5.494 	1.044 	-0.480
 4.657 	0.994 	0.633
 5.185 	0.514 	0.158
 5.553 	0.587 	-0.211
 5.818 	0.823 	-0.129
 5.982 	0.929 	-0.384
 6.195 	0.399 	-0.377
 5.364 	-0.021 	0.112
 5.290 	-0.212 	0.285
 5.101 	-0.939 	0.548
 5.089 	-0.671 	0.026
 5.276 	-0.589 	0.549
 5.587 	-0.245 	0.159
 5.844 	0.433 	-0.254
 5.717 	0.296 	-0.486
 5.868 	0.559 	0.127
 6.133 	1.013 	-0.467
 6.058 	1.457 	-0.487
 6.086 	0.891 	-0.254
 6.176 	0.579 	0.062
 6.058 	0.761 	0.134
 6.205 	0.928 	-0.102
 6.140 	0.390 	-0.430
 5.480 	-0.149 	-0.131
 5.907 	0.071 	-0.048
 5.320 	-0.107 	0.108
 4.894 	-0.203 	0.625
 4.937 	-0.446 	0.728
 4.887 	-0.588 	0.144
 5.348 	-0.015 	-0.136
 5.892 	-0.099 	-0.278
 5.672 	0.455 	-0.144
 5.734 	0.853 	0.238
 5.748 	1.059 	0.051
 5.983 	0.765 	0.030
 5.808 	0.782 	0.312
 5.655 	0.754 	0.251
 6.071 	0.974 	-0.103
 6.154 	0.786 	-0.248
 7.033 	0.989 	0.798
 7.122 	1.449 	0.421
 7.054 	1.233 	0.831
 7.129 	1.424 	0.868
 8.206 	0.981 	0.779
 7.533 	1.744 	0.974
 7.545 	1.716 	0.072
 7.646 	1.140 	-0.302
 7.640 	0.464 	-0.257
 7.806 	0.232 	-0.474
 8.027 	0.363 	-0.508
 8.153 	0.454 	-0.547
 7.833 	0.326 	-0.387
 8.222 	0.612 	-0.189
 8.062 	0.301 	-0.373
 7.892 	0.072 	0.483
 7.184 	1.045 	0.696
 7.184 	1.112 	0.747
 7.467 	0.820 	0.303
 7.993 	0.753 	0.345
 7.752 	1.052 	0.554
 7.173 	2.348 	0.499
 7.361 	1.563 	0.259
 7.199 	0.854 	0.178
 7.290 	0.617 	-0.221
 7.404 	0.661 	-0.318
 7.354 	0.328 	-0.438
 7.674 	0.530 	-0.230
 7.655 	0.235 	-0.326
 8.009 	0.686 	-0.217
 7.876 	0.252 	0.094
 8.040 	0.370 	-0.205
 6.642 	0.873 	0.367
 7.094 	0.135 	0.195
 7.334 	0.742 	-0.060
 7.337 	0.490 	0.307
 7.565 	1.713 	0.070
 7.609 	1.875 	-0.102
 7.555 	1.439 	-0.246
 7.286 	1.011 	0.126
 7.088 	0.970 	-0.129
 7.059 	0.537 	-0.243
 7.369 	0.560 	-0.445
 7.445 	0.625 	0.146
 7.468 	0.415 	-0.171
 7.506 	0.149 	-0.169
 7.516 	0.378 	-0.112
 7.872 	1.181 	0.152
 6.461 	0.330 	0.838
 6.418 	-0.523 	0.914
 6.862 	-0.206 	0.978
 7.434 	0.084 	0.443
 7.476 	1.070 	0.382
 7.764 	1.682 	-0.278
 7.766 	1.247 	-0.719
 7.582 	1.248 	0.053
 7.304 	1.102 	-0.180
 7.157 	0.453 	-0.221
 7.791 	0.323 	-0.198
 7.637 	0.618 	-0.374
 7.655 	0.451 	-0.214
 7.476 	0.501 	-0.400
 7.753 	0.844 	-0.123
 7.551 	0.627 	-0.128
 6.262 	-0.286 	0.905
 6.614 	-0.362 	0.686
 6.370 	-0.865 	0.955
 6.629 	-0.085 	0.577
 6.771 	0.747 	0.087
 6.956 	0.916 	-0.483
 7.402 	0.913 	-0.682
 7.736 	1.220 	-0.275
 7.820 	0.724 	-0.828
 7.539 	0.843 	-0.533
 7.773 	0.752 	-0.293
 7.389 	0.638 	-0.209
 7.615 	0.622 	-0.539
 7.372 	0.909 	-0.248
 7.735 	1.178 	-0.431
 7.296 	0.743 	-0.267