# vtk DataFile Version 3.0
HighT1
ASCII
DATASET STRUCTURED_POINTS
DIMENSIONS 16 16 19
ORIGIN 929.001000000000 929.001000000000 5.001000000000
SPACING 10.000000000000 10.000000000000 10.000000000000
POINT_DATA 4864
 FIELD attributes 1
U 3 4864 float
3.193 	-0.729 	0.102
 3.274 	-0.626 	0.175
 3.405 	-0.629 	0.064
 3.760 	-0.575 	-0.013
 3.851 	-0.196 	-0.011
 3.580 	0.170 	-0.089
 3.663 	0.019 	-0.033
 3.558 	-0.125 	0.190
 3.374 	0.039 	0.234
 3.277 	-0.218 	0.174
 3.504 	0.152 	-0.157
 4.218 	0.296 	-0.405
 4.913 	0.255 	-0.563
 5.299 	-0.015 	-0.323
 5.000 	-0.036 	0.020
 4.469 	-0.098 	0.020
 2.856 	-0.497 	-0.247
 2.883 	-0.310 	-0.238
 2.722 	-0.274 	-0.118
 2.874 	-0.406 	-0.113
 3.230 	-0.447 	-0.042
 3.663 	-0.398 	0.037
 3.817 	-0.196 	0.089
 3.888 	-0.052 	0.053
 3.942 	-0.196 	-0.004
 3.916 	-0.344 	0.033
 4.192 	-0.103 	0.103
 4.781 	0.466 	-0.044
 4.930 	0.796 	-0.389
 5.216 	0.784 	-0.322
 4.970 	0.505 	-0.060
 4.638 	0.135 	-0.010
 3.643 	-0.281 	0.215
 3.311 	-0.368 	0.296
 3.238 	-0.605 	0.337
 3.522 	-0.653 	0.143
 3.946 	-1.075 	0.082
 4.174 	-0.968 	0.136
 4.152 	-0.667 	0.114
 3.708 	-0.215 	0.145
 3.052 	0.043 	0.291
 3.004 	-0.404 	0.162
 3.293 	-0.950 	-0.124
 3.932 	-0.565 	0.160
 4.203 	0.627 	0.300
 4.374 	1.281 	0.060
 4.611 	1.037 	-0.119
 5.073 	0.055 	-0.370
 5.233 	-0.441 	-0.142
 5.496 	-0.774 	-0.178
 5.359 	-0.578 	0.009
 4.576 	-0.778 	0.084
 4.664 	-0.611 	-0.243
 4.493 	-1.168 	0.145
 4.306 	-0.864 	0.146
 4.455 	-0.316 	0.078
 4.353 	-0.325 	0.160
 4.604 	-0.483 	0.023
 4.391 	-0.553 	-0.014
 4.971 	-0.432 	-0.346
 4.339 	0.550 	0.151
 3.897 	0.996 	0.024
 4.088 	0.682 	-0.202
 3.832 	0.746 	0.054
 4.704 	-0.154 	-0.184
 4.790 	-0.001 	-0.172
 4.511 	-0.122 	-0.042
 4.260 	-0.468 	-0.094
 4.243 	-0.778 	-0.044
 3.789 	-1.120 	0.200
 3.423 	-1.367 	0.299
 3.462 	-1.530 	0.371
 3.543 	-1.926 	0.286
 4.927 	-1.308 	-0.082
 6.021 	-0.987 	-0.427
 5.960 	-0.191 	-0.214
 4.813 	0.856 	0.067
 3.702 	1.155 	0.246
 3.594 	1.230 	0.043
 4.234 	0.681 	-0.054
 3.860 	0.265 	0.070
 3.917 	0.260 	-0.056
 4.074 	0.044 	-0.096
 4.066 	-0.208 	-0.038
 4.202 	-0.922 	-0.026
 4.028 	-0.725 	0.073
 3.305 	-1.174 	0.130
 3.323 	-1.946 	0.320
 3.989 	-1.968 	-0.018
 4.237 	-2.155 	-0.392
 4.702 	-0.447 	-0.040
 4.277 	0.854 	0.306
 3.419 	1.229 	0.313
 3.319 	0.888 	0.162
 4.121 	-0.008 	-0.160
 4.876 	0.107 	0.233
 3.983 	-0.251 	0.117
 4.279 	-0.179 	0.053
 4.531 	0.180 	-0.110
 4.958 	0.219 	-0.171
 4.894 	-0.279 	-0.395
 3.419 	-0.057 	0.266
 3.807 	-0.841 	-0.093
 4.451 	-1.748 	-0.571
 4.559 	-1.807 	-0.260
 5.325 	-0.028 	-0.407
 4.691 	0.096 	-0.482
 4.533 	1.172 	0.166
 4.234 	0.829 	0.229
 3.432 	0.571 	-0.069
 3.114 	0.138 	0.039
 2.978 	-0.274 	0.239
 4.546 	-0.783 	-0.044
 4.698 	-0.746 	-0.159
 5.082 	-0.385 	-0.200
 5.686 	0.299 	-0.263
 5.164 	0.886 	-0.327
 4.726 	0.249 	0.093
 4.733 	-0.979 	-0.502
 5.486 	-1.056 	-0.864
 4.536 	-0.815 	0.131
 3.639 	-0.390 	0.357
 4.050 	0.805 	-0.119
 4.163 	0.910 	0.091
 3.891 	0.470 	0.150
 3.215 	1.228 	0.187
 2.697 	0.500 	0.278
 2.459 	-0.519 	0.151
 4.134 	-0.443 	-0.174
 4.310 	-0.450 	-0.118
 4.523 	-0.222 	-0.072
 4.855 	0.465 	0.045
 5.002 	1.408 	-0.155
 5.391 	0.665 	-0.459
 5.169 	0.126 	-0.427
 5.137 	-0.025 	-0.217
 4.823 	-0.062 	-0.253
 4.764 	-0.647 	0.537
 3.254 	-0.063 	0.112
 3.428 	0.891 	0.108
 3.253 	1.314 	0.188
 2.737 	1.143 	0.262
 2.671 	-0.083 	0.115
 1.911 	-0.807 	0.199
 4.389 	-0.359 	-0.157
 4.295 	-0.404 	0.039
 4.287 	-0.247 	0.074
 4.790 	0.207 	-0.064
 5.123 	0.577 	0.098
 5.059 	0.592 	0.130
 5.020 	0.661 	-0.244
 5.313 	0.387 	-0.520
 5.909 	0.550 	-0.394
 4.768 	0.265 	0.423
 3.127 	0.256 	0.236
 2.803 	0.473 	0.104
 2.982 	0.795 	0.149
 3.187 	0.452 	0.149
 3.106 	0.043 	0.112
 3.194 	-0.459 	0.023
 4.477 	0.087 	-0.085
 4.831 	-0.021 	-0.133
 5.119 	-0.456 	-0.097
 4.494 	-0.200 	0.075
 4.518 	0.398 	-0.142
 4.891 	0.795 	-0.162
 5.500 	0.657 	-0.381
 5.773 	0.787 	-0.417
 5.777 	1.268 	-0.185
 5.636 	1.117 	-0.099
 4.978 	0.987 	0.477
 3.481 	0.696 	0.281
 2.695 	0.209 	0.537
 3.150 	-0.661 	0.057
 3.538 	-0.578 	-0.289
 3.085 	-0.204 	-0.047
 4.027 	-0.329 	-0.555
 4.876 	-0.048 	-0.589
 5.272 	0.369 	-0.115
 4.681 	0.434 	0.001
 4.207 	0.518 	-0.155
 4.563 	1.027 	-0.039
 4.885 	1.259 	0.078
 5.029 	1.637 	0.483
 4.764 	1.948 	0.302
 5.137 	1.679 	0.197
 5.714 	1.274 	0.392
 4.731 	0.803 	0.357
 4.153 	-0.319 	0.106
 4.549 	-0.575 	-0.484
 4.252 	-0.237 	-0.432
 3.770 	-0.037 	-0.086
 3.069 	-0.661 	0.156
 3.963 	0.346 	0.045
 4.284 	0.637 	0.174
 4.124 	0.218 	0.123
 3.817 	0.831 	0.172
 3.455 	1.036 	0.299
 2.979 	1.129 	0.408
 3.096 	0.642 	0.055
 3.863 	0.266 	-0.067
 4.265 	0.151 	0.168
 4.475 	0.518 	0.254
 4.666 	0.290 	-0.018
 5.093 	0.439 	-0.698
 4.451 	0.647 	-0.608
 3.716 	0.508 	-0.221
 3.374 	0.337 	-0.121
 3.027 	-1.240 	0.030
 3.139 	-0.570 	0.011
 3.319 	0.168 	0.205
 2.814 	0.368 	0.396
 2.920 	0.305 	0.337
 3.466 	0.483 	0.272
 3.448 	0.849 	0.192
 3.959 	0.524 	-0.293
 3.996 	0.387 	-0.212
 3.795 	-0.109 	0.101
 3.442 	-0.031 	0.245
 3.343 	0.400 	0.268
 3.407 	1.005 	0.354
 3.826 	1.831 	0.104
 3.965 	1.947 	-0.111
 3.489 	1.131 	-0.101
 3.483 	-0.501 	-0.105
 3.218 	-0.981 	0.045
 3.915 	0.023 	-0.166
 4.123 	0.434 	0.109
 3.967 	-0.296 	-0.378
 3.988 	-0.283 	-0.027
 4.358 	0.258 	-0.042
 4.311 	0.644 	0.093
 3.867 	0.823 	0.119
 3.718 	0.329 	0.440
 3.427 	-0.104 	0.170
 3.290 	0.316 	0.187
 2.983 	0.699 	0.243
 2.624 	1.060 	0.302
 2.925 	1.170 	0.231
 3.545 	0.923 	0.049
 4.637 	0.001 	-0.468
 5.254 	-0.258 	-0.592
 4.948 	-0.407 	0.214
 3.206 	0.666 	0.284
 3.085 	0.704 	-0.452
 2.724 	0.110 	0.195
 2.060 	0.004 	0.306
 2.338 	0.217 	-0.062
 3.379 	0.362 	-0.017
 3.790 	-0.004 	0.093
 3.329 	-0.295 	0.201
 2.629 	-0.322 	0.266
 2.725 	0.089 	0.099
 3.275 	0.249 	-0.153
 3.818 	0.236 	-0.370
 4.318 	0.365 	-0.668
 3.831 	0.795 	0.144
 3.764 	0.745 	-0.151
 4.097 	0.525 	-0.339
 4.400 	0.356 	-0.243
 4.852 	-0.179 	-0.185
 5.336 	-0.685 	0.057
 5.105 	-0.161 	0.266
 4.619 	0.152 	0.427
 4.533 	0.164 	0.383
 4.921 	-0.367 	-0.136
 5.081 	-0.390 	-0.633
 5.265 	-0.273 	-0.595
 5.382 	0.032 	-0.307
 5.394 	0.286 	-0.060
 5.036 	0.492 	-0.118
 5.352 	0.733 	-0.253
 3.824 	0.762 	-0.075
 3.611 	0.787 	-0.161
 3.902 	0.246 	-0.043
 4.231 	-0.343 	0.061
 4.493 	-0.326 	0.247
 4.804 	-0.267 	0.396
 4.840 	-0.424 	0.327
 5.019 	-0.023 	0.024
 5.334 	0.333 	-0.014
 4.941 	-0.088 	0.062
 4.791 	-0.398 	0.147
 5.279 	-0.850 	-0.193
 5.435 	-1.200 	-0.382
 5.701 	-0.329 	-0.469
 6.486 	0.411 	-0.296
 6.748 	0.252 	-0.076
 4.020 	0.573 	0.699
 4.291 	0.463 	0.791
 5.306 	0.105 	0.415
 6.097 	-0.602 	-0.172
 4.662 	-0.385 	0.461
 4.254 	-0.704 	0.826
 4.633 	-0.559 	0.724
 4.769 	-0.041 	0.315
 4.811 	0.143 	0.022
 5.286 	0.091 	-0.104
 5.380 	-0.586 	-0.276
 5.631 	-1.084 	-0.017
 6.258 	-1.109 	-0.145
 6.422 	-0.847 	-0.389
 5.792 	-0.082 	0.023
 5.741 	0.397 	-0.039
 6.087 	0.130 	-0.025
 6.245 	-0.126 	0.000
 6.594 	-0.601 	0.064
 6.575 	-0.775 	-0.336
 6.614 	-0.295 	-0.060
 6.132 	-0.074 	-0.110
 5.344 	-0.773 	1.015
 4.929 	-0.376 	0.898
 5.343 	-0.300 	0.497
 5.765 	-0.610 	0.077
 6.315 	-0.722 	-0.374
 6.700 	-1.155 	-0.164
 6.616 	-1.201 	0.182
 6.585 	-0.695 	-0.511
 6.931 	-0.243 	-0.524
 6.576 	0.380 	-0.020
 6.446 	-0.535 	-0.207
 6.514 	-0.737 	-0.197
 6.374 	-0.511 	-0.337
 6.339 	-0.187 	-0.529
 6.518 	-0.601 	-0.294
 6.770 	-0.022 	-0.015
 6.323 	0.449 	0.587
 5.603 	0.616 	0.206
 5.648 	0.277 	-0.248
 6.300 	-0.250 	-0.748
 6.786 	-1.568 	-0.095
 6.818 	-1.517 	-0.045
 6.137 	-0.341 	0.270
 6.215 	-0.402 	-0.168
 6.191 	-0.611 	-0.484
 6.725 	-0.262 	0.005
 6.706 	-0.612 	-0.091
 6.850 	-1.055 	-0.227
 6.499 	-0.263 	-0.235
 6.456 	-0.097 	-0.612
 6.694 	-0.142 	-0.426
 6.861 	-0.058 	-0.160
 7.053 	0.767 	-0.052
 7.256 	0.579 	-0.247
 6.984 	-0.141 	-0.422
 6.707 	-0.575 	-0.617
 6.527 	-1.654 	0.092
 5.220 	-1.159 	0.065
 5.168 	0.232 	0.286
 5.631 	0.238 	-0.079
 5.500 	-0.019 	-0.044
 5.284 	-0.593 	0.621
 7.313 	-0.632 	-0.488
 7.250 	-0.678 	0.231
 6.610 	-0.160 	-0.421
 6.292 	-0.244 	-0.670
 6.508 	-0.048 	-0.726
 7.092 	-0.066 	-0.550
 7.515 	0.296 	-0.441
 7.070 	0.240 	-0.278
 7.120 	-0.445 	-0.714
 7.822 	-0.661 	-0.637
 7.727 	0.152 	-0.999
 5.412 	-0.024 	0.876
 4.648 	-0.354 	0.883
 5.481 	0.193 	0.182
 5.364 	0.923 	0.047
 4.401 	-0.506 	0.871
 6.600 	-0.431 	0.064
 6.632 	0.065 	-0.004
 6.341 	-0.062 	-0.260
 6.699 	-0.390 	-0.690
 6.413 	0.149 	0.053
 7.060 	0.671 	-0.830
 6.848 	0.345 	-0.321
 5.579 	0.093 	-0.456
 4.981 	-0.632 	0.418
 5.284 	-0.886 	0.699
 5.237 	0.235 	0.122
 5.034 	0.397 	0.196
 4.211 	0.190 	0.575
 3.118 	0.714 	0.980
 2.776 	0.867 	1.162
 2.932 	-0.083 	0.620
 6.361 	0.213 	0.178
 5.996 	-0.334 	-0.108
 6.309 	-0.234 	-0.374
 6.329 	-0.179 	0.035
 5.846 	0.450 	-0.004
 5.675 	0.466 	-0.339
 5.670 	-0.053 	-0.074
 5.978 	-0.157 	-0.587
 5.526 	0.619 	0.384
 4.139 	-0.510 	1.181
 3.489 	-0.256 	0.754
 3.719 	-0.026 	-0.113
 3.337 	0.693 	0.413
 2.901 	0.846 	0.682
 3.319 	0.363 	0.123
 3.838 	-0.176 	-0.152
 7.029 	0.997 	-0.137
 6.281 	0.084 	-0.055
 6.250 	-0.344 	0.167
 6.683 	0.328 	-0.334
 6.768 	0.702 	0.236
 7.090 	0.545 	-0.489
 6.789 	0.082 	-0.604
 6.073 	0.104 	-0.384
 5.967 	0.987 	-0.205
 5.586 	0.463 	0.505
 5.249 	-0.182 	0.762
 4.717 	0.475 	-0.121
 4.113 	1.003 	0.495
 4.302 	0.539 	0.538
 4.834 	-0.490 	0.377
 5.423 	-1.048 	-0.066
 6.914 	1.036 	-0.012
 6.526 	0.315 	-0.025
 6.316 	0.166 	-0.035
 6.015 	-0.084 	-0.018
 6.308 	0.230 	-0.085
 6.573 	0.179 	0.047
 6.702 	0.279 	-0.159
 6.246 	0.246 	-0.051
 5.984 	0.947 	-0.396
 5.792 	1.136 	0.011
 4.720 	0.782 	0.981
 4.810 	1.153 	0.500
 5.415 	1.341 	0.299
 5.446 	0.848 	-0.395
 5.765 	-0.595 	-0.753
 6.396 	-1.145 	-0.725
 5.557 	0.266 	-0.267
 5.127 	-0.089 	-0.463
 5.136 	-0.158 	-0.435
 5.180 	0.149 	-0.047
 4.828 	-0.033 	-0.115
 4.244 	-0.486 	-0.213
 4.477 	-0.090 	-0.058
 4.098 	-0.139 	0.187
 4.225 	0.282 	0.434
 5.160 	1.228 	0.149
 5.258 	1.501 	0.761
 5.229 	1.403 	0.942
 6.194 	1.498 	-0.338
 6.750 	0.505 	-1.063
 6.724 	-0.251 	-0.912
 6.625 	-0.478 	-0.592
 4.055 	-0.340 	0.373
 4.097 	-0.083 	-0.143
 4.186 	-0.020 	0.069
 4.095 	-0.212 	0.193
 3.695 	-0.263 	0.349
 3.791 	-0.234 	0.467
 3.978 	-0.870 	0.249
 4.168 	-0.030 	0.281
 4.486 	0.179 	0.326
 4.735 	0.559 	0.618
 5.571 	1.197 	0.231
 6.224 	1.436 	-0.493
 6.856 	0.851 	-0.935
 7.265 	0.582 	-1.140
 6.913 	0.288 	-0.970
 6.458 	0.540 	-0.807
 4.165 	0.372 	-0.411
 4.804 	-0.351 	-0.234
 4.547 	-0.781 	0.751
 3.589 	0.480 	0.699
 4.059 	0.222 	0.527
 5.573 	-0.353 	-0.101
 5.580 	-1.108 	0.221
 4.902 	-1.113 	-0.088
 4.764 	-0.343 	-0.437
 5.340 	0.195 	-0.203
 6.014 	0.232 	-0.132
 6.577 	0.507 	-0.143
 6.777 	0.450 	-0.318
 6.815 	0.405 	-0.501
 6.416 	0.566 	-0.316
 5.955 	0.985 	-0.372
 5.733 	-0.021 	-0.269
 6.074 	0.340 	-0.455
 5.556 	0.276 	0.046
 5.696 	0.470 	0.401
 5.715 	0.200 	-0.041
 6.262 	-0.123 	-0.306
 5.531 	-0.461 	0.458
 4.222 	-0.870 	-0.030
 3.651 	-0.538 	0.717
 4.022 	0.016 	0.735
 4.783 	0.319 	0.606
 5.301 	0.453 	0.384
 5.532 	0.506 	0.312
 5.890 	0.719 	0.066
 5.830 	1.061 	-0.267
 5.388 	1.388 	-0.232
 5.189 	-0.069 	-0.474
 5.395 	-0.046 	-0.358
 5.516 	0.390 	0.171
 5.993 	0.385 	-0.266
 5.869 	0.200 	-0.107
 6.186 	-0.093 	0.089
 5.380 	0.619 	0.439
 4.998 	0.354 	-0.597
 5.266 	-0.386 	0.307
 4.776 	-0.252 	0.496
 4.601 	-0.099 	0.538
 4.908 	0.294 	0.330
 5.443 	0.740 	0.119
 5.911 	0.805 	-0.219
 5.859 	1.320 	-0.106
 5.754 	0.992 	-0.356
 5.339 	0.718 	-0.052
 5.499 	0.684 	-0.233
 5.938 	0.850 	-0.298
 5.923 	0.926 	-0.350
 5.683 	0.699 	-0.152
 5.392 	0.754 	0.015
 4.902 	0.421 	0.759
 4.856 	0.271 	0.881
 5.580 	-0.009 	0.307
 6.129 	-0.186 	-0.232
 6.072 	0.070 	-0.458
 5.531 	0.064 	-0.176
 5.129 	-0.258 	0.174
 5.115 	0.241 	0.382
 5.453 	0.957 	-0.120
 5.081 	1.234 	-0.121
 5.266 	0.816 	0.079
 4.749 	0.394 	0.046
 4.383 	0.228 	0.229
 4.473 	0.013 	0.584
 5.220 	0.019 	0.528
 5.950 	0.517 	0.375
 6.109 	0.498 	0.143
 6.051 	0.333 	-0.057
 5.952 	-0.294 	-0.053
 5.504 	-0.322 	0.163
 5.707 	0.135 	-0.060
 5.808 	0.228 	-0.242
 5.498 	-0.198 	0.153
 6.096 	0.268 	0.084
 5.400 	0.941 	0.074
 5.395 	1.146 	0.004
 4.986 	0.629 	0.533
 5.342 	0.385 	0.295
 5.452 	0.060 	0.080
 5.015 	-0.598 	-0.227
 5.207 	-0.312 	0.669
 5.244 	0.207 	0.895
 5.579 	0.219 	0.712
 6.224 	0.222 	0.149
 6.091 	0.258 	-0.048
 5.617 	0.272 	0.101
 5.514 	-0.229 	-0.150
 6.262 	-0.774 	-0.255
 6.871 	-1.059 	-0.012
 6.330 	-0.592 	0.366
 6.281 	0.121 	0.182
 6.438 	0.732 	0.123
 6.051 	0.402 	0.020
 6.106 	0.306 	0.123
 5.904 	0.188 	0.117
 5.493 	0.040 	-0.565
 5.193 	0.037 	0.122
 5.244 	0.294 	0.512
 5.318 	0.307 	0.530
 5.298 	0.407 	0.351
 5.278 	0.359 	0.247
 5.593 	-0.134 	-0.398
 6.068 	-0.960 	-0.483
 6.632 	-1.293 	-0.313
 6.966 	-1.000 	-0.374
 6.721 	-0.733 	-0.581
 6.351 	-0.063 	0.140
 6.405 	0.272 	0.096
 6.616 	0.643 	-0.357
 6.652 	0.387 	-0.205
 6.566 	0.042 	-0.068
 6.409 	-0.413 	-0.163
 6.316 	0.026 	-0.361
 6.235 	0.344 	0.267
 6.284 	0.492 	0.232
 6.134 	0.776 	0.086
 6.163 	0.063 	-0.527
 6.657 	-0.431 	-0.700
 6.721 	-1.629 	0.033
 6.801 	-1.511 	0.601
 6.860 	-0.442 	0.078
 6.626 	-0.551 	-0.348
 6.668 	-0.072 	-0.656
 6.661 	0.159 	-0.261
 6.756 	0.609 	-0.443
 6.904 	0.394 	-0.166
 6.917 	0.034 	-0.003
 6.893 	-0.658 	-0.142
 6.571 	-0.360 	-0.488
 6.617 	0.178 	-0.204
 7.080 	0.411 	0.159
 7.506 	0.397 	-0.050
 7.776 	-0.117 	-0.340
 7.416 	-0.368 	-0.324
 6.791 	-1.659 	-0.237
 6.102 	-1.374 	0.817
 6.266 	-0.560 	0.077
 6.236 	-0.324 	-0.282
 6.215 	-0.037 	-0.181
 6.386 	0.002 	0.381
 6.561 	0.800 	-0.328
 6.773 	0.263 	0.113
 6.678 	-0.269 	-0.035
 6.742 	-0.718 	-0.546
 7.047 	-0.717 	-0.518
 7.081 	-0.108 	-0.730
 7.186 	0.070 	-0.491
 7.503 	-0.072 	-0.482
 7.175 	-0.173 	-0.479
 7.736 	-0.907 	-0.554
 6.935 	-0.518 	-0.438
 5.095 	-0.817 	1.676
 4.884 	-0.765 	0.413
 4.635 	-0.420 	-0.045
 4.732 	-0.107 	-0.085
 5.228 	0.057 	0.466
 6.849 	0.320 	-0.164
 6.758 	0.185 	-0.160
 7.026 	-0.249 	-0.816
 7.011 	-0.802 	-0.939
 7.047 	-0.492 	-0.510
 6.840 	-0.092 	-0.842
 6.646 	0.043 	-0.434
 6.268 	0.467 	0.093
 5.578 	-0.106 	0.454
 4.387 	-0.691 	0.513
 3.566 	-0.850 	1.042
 3.970 	-0.347 	0.928
 3.844 	-0.229 	0.556
 3.487 	-0.126 	0.360
 3.420 	0.162 	0.501
 3.901 	0.189 	0.588
 6.731 	0.489 	0.415
 6.892 	0.311 	-0.202
 6.931 	-0.303 	-0.553
 6.863 	-0.555 	-0.204
 7.175 	-0.218 	-0.078
 7.083 	0.376 	-0.163
 6.649 	0.795 	-0.111
 6.622 	0.354 	-0.420
 6.088 	0.440 	-0.057
 5.291 	0.795 	0.819
 5.425 	-0.180 	0.307
 4.675 	-0.507 	0.961
 2.972 	0.452 	1.409
 3.732 	0.161 	0.646
 4.518 	-0.002 	0.155
 4.769 	-0.036 	0.111
 6.526 	0.344 	-0.435
 6.459 	0.131 	-0.190
 6.337 	-0.358 	-0.027
 6.428 	-0.257 	-0.016
 6.794 	0.102 	-0.116
 6.771 	0.559 	-0.202
 6.811 	0.851 	-0.211
 6.616 	0.414 	-0.083
 6.402 	0.991 	0.164
 6.536 	0.978 	-0.423
 6.485 	0.303 	-0.405
 5.590 	0.608 	0.928
 4.947 	0.329 	0.707
 5.035 	0.106 	0.443
 5.444 	0.268 	-0.149
 6.286 	0.044 	-0.813
 5.984 	0.506 	0.115
 6.025 	0.130 	0.274
 5.890 	-0.082 	0.027
 5.972 	-0.359 	-0.090
 6.035 	-0.429 	-0.019
 6.244 	-0.387 	0.266
 6.357 	-0.314 	0.488
 7.070 	0.191 	0.266
 6.844 	0.642 	0.054
 6.355 	0.754 	0.086
 6.304 	0.789 	0.132
 6.553 	0.771 	-0.194
 7.126 	0.587 	-0.204
 7.007 	0.425 	-0.097
 6.752 	-0.009 	-0.520
 7.211 	-0.536 	-0.864
 5.733 	0.544 	0.975
 5.565 	0.103 	0.387
 5.176 	-0.397 	0.371
 4.280 	-0.511 	0.339
 4.354 	-0.378 	0.577
 4.501 	-0.565 	0.381
 4.962 	-0.704 	0.364
 5.745 	-0.369 	0.015
 6.067 	0.247 	0.061
 6.293 	0.394 	0.161
 6.121 	0.407 	0.392
 6.640 	0.787 	0.270
 6.899 	0.817 	-0.345
 7.154 	0.191 	-0.738
 7.235 	-0.486 	-0.839
 7.165 	-0.332 	-0.845
 5.675 	0.740 	0.699
 5.294 	-0.438 	0.143
 5.027 	-0.302 	0.274
 5.155 	-0.056 	0.035
 5.284 	-0.463 	-0.155
 4.954 	-0.387 	0.094
 4.387 	-1.014 	0.417
 4.398 	-0.591 	1.144
 5.024 	0.009 	1.098
 5.622 	0.063 	0.758
 6.223 	-0.761 	0.334
 6.646 	-0.403 	-0.056
 7.116 	0.317 	-0.239
 6.726 	-0.169 	-0.469
 6.521 	-0.625 	-0.899
 6.838 	-0.475 	-1.157
 6.106 	0.688 	-0.042
 5.318 	0.192 	-0.066
 4.962 	0.306 	0.520
 5.843 	-0.166 	0.300
 6.079 	-0.463 	-0.083
 5.468 	-0.507 	-0.302
 5.146 	-0.628 	0.124
 5.397 	-0.746 	0.181
 5.363 	-0.943 	0.284
 5.694 	-0.974 	0.357
 6.276 	-1.071 	0.013
 6.584 	-0.838 	-0.312
 6.882 	-0.504 	-0.315
 6.721 	-0.180 	-0.264
 6.512 	-0.374 	-0.397
 6.599 	-0.450 	-0.734
 7.284 	0.260 	-0.302
 7.043 	0.310 	-0.035
 6.628 	0.527 	-0.009
 6.454 	0.170 	0.075
 6.096 	-0.004 	-0.230
 5.535 	0.000 	-0.360
 5.425 	-0.356 	0.140
 5.228 	-0.474 	0.348
 5.240 	-1.129 	-0.004
 5.767 	-1.334 	0.064
 6.258 	-1.075 	-0.080
 6.323 	-0.592 	-0.336
 6.396 	-0.171 	-0.420
 6.564 	-0.177 	-0.162
 6.820 	-0.288 	-0.410
 6.703 	0.182 	-0.467
 6.236 	0.323 	0.039
 5.846 	-0.329 	-0.000
 5.883 	0.079 	0.070
 5.956 	0.242 	-0.046
 5.791 	0.247 	-0.207
 5.692 	0.203 	-0.248
 5.874 	0.142 	-0.021
 6.510 	-0.115 	-0.405
 6.716 	-0.565 	-0.660
 6.329 	-0.489 	-0.238
 6.347 	-0.577 	0.525
 6.291 	-0.324 	0.179
 5.805 	0.047 	-0.129
 5.532 	0.103 	-0.251
 5.882 	-0.158 	-0.354
 5.516 	0.477 	0.133
 5.352 	1.231 	0.338
 5.429 	1.027 	0.198
 5.364 	0.891 	0.043
 5.512 	0.523 	-0.104
 5.676 	0.280 	-0.173
 5.926 	0.007 	-0.119
 6.283 	0.164 	0.299
 6.367 	0.574 	0.436
 6.542 	0.560 	0.232
 6.516 	0.693 	0.079
 6.419 	0.330 	-0.314
 6.568 	0.108 	-0.333
 6.722 	0.003 	0.447
 6.644 	0.170 	-0.017
 5.925 	0.506 	-0.234
 5.941 	0.386 	-0.046
 5.216 	0.971 	0.458
 5.122 	0.773 	0.563
 4.791 	0.290 	0.622
 4.665 	-0.111 	0.906
 5.135 	-0.172 	1.107
 5.718 	-0.152 	0.900
 6.097 	-0.180 	0.226
 6.335 	0.161 	0.192
 6.275 	0.266 	0.220
 6.427 	-0.060 	0.207
 6.625 	0.033 	0.197
 6.413 	0.328 	-0.351
 6.418 	0.344 	0.240
 6.295 	0.451 	0.659
 6.511 	0.281 	0.350
 6.606 	-0.068 	0.018
 5.643 	0.749 	0.473
 5.695 	0.615 	0.348
 5.696 	0.508 	0.146
 5.931 	-0.214 	-0.030
 6.271 	-0.617 	0.431
 6.433 	-0.484 	0.774
 6.607 	-0.307 	0.552
 6.544 	0.160 	0.113
 6.151 	0.156 	0.092
 5.861 	-0.179 	0.134
 5.964 	-0.095 	0.190
 5.908 	0.565 	0.065
 5.712 	0.699 	-0.103
 5.824 	0.021 	0.615
 6.379 	-0.069 	0.601
 6.739 	-0.391 	0.306
 6.323 	0.739 	-0.102
 6.311 	0.684 	-0.175
 6.605 	0.097 	-0.139
 6.812 	-0.586 	-0.004
 6.804 	-0.387 	0.004
 6.819 	-0.155 	0.405
 6.407 	0.016 	0.578
 5.744 	0.655 	0.462
 5.473 	0.358 	0.183
 5.856 	-0.301 	-0.154
 5.923 	-0.520 	-0.086
 6.277 	-0.430 	-0.007
 6.423 	-0.058 	-0.184
 6.327 	0.009 	-0.232
 6.695 	-0.044 	0.079
 7.249 	-0.299 	0.357
 6.837 	0.983 	-0.088
 7.065 	0.574 	-0.047
 7.397 	-0.023 	0.059
 7.022 	-0.460 	0.004
 6.291 	-0.751 	0.186
 6.546 	-0.104 	0.358
 6.600 	0.455 	0.383
 6.841 	0.683 	0.240
 6.738 	0.203 	-0.396
 6.547 	-0.363 	-0.409
 6.276 	-1.199 	0.327
 6.693 	-1.386 	0.698
 7.201 	-0.593 	0.239
 7.206 	-0.838 	-0.108
 7.122 	-0.710 	-0.110
 7.209 	-0.340 	0.016
 7.050 	0.525 	-0.330
 7.387 	0.316 	-0.297
 7.651 	0.187 	-0.051
 7.725 	-0.420 	0.035
 7.287 	-0.550 	0.007
 6.753 	-0.169 	0.008
 6.815 	0.151 	-0.080
 7.181 	0.386 	-0.213
 7.368 	0.195 	-0.216
 7.318 	-0.418 	-0.165
 7.149 	-1.359 	-0.315
 7.468 	-1.576 	0.717
 7.247 	-0.677 	0.355
 6.975 	-0.983 	-0.175
 6.188 	-0.889 	-0.227
 6.192 	-0.837 	-0.229
 7.007 	-0.114 	-0.122
 7.244 	0.087 	0.155
 7.559 	0.136 	-0.004
 7.401 	-0.391 	-0.170
 7.298 	-0.390 	-0.347
 7.192 	-0.356 	-0.493
 7.306 	-0.117 	-0.529
 7.388 	0.249 	-0.366
 7.148 	0.191 	-0.220
 7.305 	-0.888 	-0.265
 6.651 	-0.945 	0.815
 6.487 	-0.391 	1.521
 6.706 	-0.491 	0.401
 6.793 	-0.579 	-0.293
 5.490 	-0.695 	-0.088
 5.420 	-0.655 	0.198
 6.473 	-0.563 	-0.173
 6.877 	-0.156 	-0.319
 7.079 	-0.290 	-0.486
 7.082 	-0.770 	-0.528
 7.309 	-0.731 	-0.660
 7.191 	-0.616 	-0.929
 6.775 	-0.032 	-0.450
 6.615 	0.452 	0.053
 6.535 	0.117 	0.253
 4.988 	-0.447 	1.064
 3.925 	-0.777 	1.255
 4.821 	-0.608 	0.741
 5.385 	-0.339 	0.115
 4.637 	-0.039 	0.157
 4.573 	-0.213 	0.478
 5.056 	-0.751 	0.864
 6.858 	-0.559 	0.217
 6.875 	-0.445 	-0.232
 6.990 	-0.439 	-0.467
 6.861 	-0.859 	-0.505
 6.523 	-0.882 	-0.439
 6.372 	-0.519 	-0.325
 6.693 	0.377 	-0.029
 6.707 	0.029 	0.165
 6.421 	-0.197 	0.220
 5.771 	0.173 	0.655
 5.467 	-0.021 	0.438
 5.461 	-0.706 	1.210
 6.035 	-0.301 	0.869
 6.224 	0.018 	-0.115
 6.188 	-0.093 	-0.583
 6.745 	-0.755 	-0.675
 7.409 	-0.295 	-0.514
 7.237 	-0.306 	-0.357
 6.757 	-0.259 	-0.268
 6.447 	-0.493 	-0.296
 6.367 	-0.840 	-0.138
 6.448 	-0.800 	-0.103
 6.648 	-0.580 	-0.111
 6.741 	-0.604 	0.094
 6.872 	-0.584 	0.339
 6.835 	-0.436 	0.113
 6.482 	-0.222 	-0.162
 6.395 	-0.057 	0.330
 6.843 	-0.091 	0.642
 7.392 	-0.485 	0.226
 7.447 	-0.508 	-0.231
 7.214 	-0.469 	-0.453
 6.075 	-0.151 	0.088
 6.113 	0.004 	0.200
 6.099 	-0.115 	0.074
 6.350 	-0.291 	-0.013
 6.663 	-0.468 	0.003
 6.825 	-0.574 	0.142
 6.857 	-0.586 	0.255
 6.899 	-0.652 	0.171
 6.779 	-0.565 	0.244
 6.591 	-0.815 	-0.003
 6.558 	-0.598 	0.066
 6.608 	-0.344 	-0.073
 6.951 	-0.248 	-0.201
 7.531 	-0.339 	-0.320
 7.792 	-0.397 	-0.489
 7.854 	-0.654 	-0.757
 5.345 	0.224 	0.777
 5.558 	0.082 	0.777
 6.070 	-0.028 	0.326
 6.604 	-0.233 	-0.084
 6.531 	-0.632 	0.267
 6.184 	-0.408 	0.161
 6.030 	-0.698 	0.247
 6.167 	-0.875 	0.308
 6.181 	-0.533 	0.583
 6.382 	-0.654 	0.747
 6.620 	-0.855 	0.477
 6.799 	-0.904 	0.187
 7.079 	-0.844 	0.046
 7.465 	-0.521 	-0.638
 7.946 	-0.448 	-1.300
 8.038 	-0.447 	-1.271
 5.869 	0.214 	0.538
 6.481 	-0.056 	0.011
 6.908 	-0.175 	0.074
 7.037 	0.004 	-0.048
 6.615 	0.167 	0.289
 6.486 	0.058 	0.228
 6.227 	-0.515 	0.358
 5.426 	-0.655 	0.841
 5.444 	-0.438 	1.117
 5.860 	-0.741 	0.902
 6.650 	-1.021 	0.450
 7.108 	-1.259 	0.292
 7.152 	-1.217 	0.144
 7.013 	-1.015 	-0.188
 7.416 	-0.492 	-0.700
 7.863 	-0.284 	-1.098
 6.728 	0.050 	-0.211
 6.826 	-0.171 	-0.245
 7.036 	-0.376 	-0.013
 7.314 	-0.335 	-0.032
 7.584 	0.215 	-0.050
 7.647 	0.390 	0.020
 7.409 	-0.133 	-0.122
 7.432 	-0.493 	-0.028
 7.583 	-0.424 	-0.113
 7.682 	-0.681 	-0.195
 7.613 	-0.958 	-0.205
 7.397 	-1.042 	-0.263
 7.141 	-1.065 	-0.069
 6.840 	-1.103 	-0.049
 6.735 	-1.077 	-0.279
 7.185 	-0.928 	-0.735
 6.638 	-0.070 	-0.064
 6.239 	-0.378 	0.200
 6.157 	-0.476 	0.190
 6.250 	-0.514 	-0.210
 6.637 	-0.175 	-0.381
 7.109 	-0.016 	-0.397
 7.371 	-0.104 	-0.262
 7.596 	-0.142 	-0.231
 7.684 	-0.408 	-0.498
 7.570 	-0.901 	-0.406
 7.644 	-1.133 	-0.420
 7.810 	-1.008 	-0.547
 7.757 	-0.539 	-0.612
 7.352 	-0.487 	-0.353
 6.980 	-1.090 	-0.525
 7.340 	-1.193 	-0.640
 6.060 	-0.170 	0.508
 6.070 	-0.379 	0.589
 5.976 	-0.261 	0.310
 6.235 	-0.328 	-0.148
 6.483 	-0.194 	-0.422
 6.817 	-0.027 	-0.650
 7.233 	0.062 	-0.585
 7.466 	0.062 	-0.519
 7.532 	-0.082 	-0.544
 7.379 	-0.383 	-0.691
 7.453 	-0.571 	-0.180
 7.425 	-0.490 	0.118
 7.589 	-0.136 	-0.309
 7.773 	-0.172 	-0.484
 7.410 	-0.718 	-0.650
 6.753 	-0.506 	-0.143
 5.457 	1.464 	0.836
 5.802 	1.160 	0.470
 5.681 	1.000 	0.278
 5.502 	0.675 	0.469
 5.837 	0.502 	0.586
 6.178 	0.255 	0.401
 6.462 	0.049 	0.319
 6.781 	0.181 	0.434
 6.902 	0.465 	0.515
 6.985 	0.005 	-0.036
 7.002 	-0.284 	-0.350
 6.911 	-0.306 	-0.420
 6.719 	-0.021 	-0.210
 6.949 	0.221 	0.173
 6.817 	0.298 	0.027
 6.525 	0.244 	-0.007
 5.638 	0.984 	0.561
 5.497 	1.223 	0.656
 5.447 	0.846 	0.797
 5.487 	0.439 	0.448
 5.774 	0.050 	0.511
 6.138 	-0.331 	0.558
 6.612 	-0.239 	0.231
 6.577 	-0.009 	0.270
 6.538 	0.268 	0.536
 6.719 	-0.010 	0.660
 6.783 	-0.529 	0.499
 6.760 	-0.274 	-0.095
 6.217 	0.310 	0.124
 6.261 	0.273 	0.425
 6.495 	-0.022 	0.340
 6.765 	-0.138 	0.201
 5.649 	1.149 	0.484
 5.644 	1.354 	0.368
 5.625 	0.974 	-0.006
 5.735 	0.612 	0.119
 5.978 	0.050 	0.240
 6.515 	-0.635 	0.505
 6.609 	-0.545 	0.766
 6.800 	0.067 	0.309
 6.852 	0.374 	0.310
 6.750 	-0.043 	0.158
 6.723 	-0.584 	0.305
 6.637 	-0.604 	0.215
 6.702 	0.164 	0.125
 6.622 	0.432 	0.318
 6.768 	0.152 	0.112
 6.912 	-0.156 	-0.057
 5.966 	1.254 	-0.133
 5.869 	1.148 	-0.275
 6.112 	0.714 	-0.098
 6.529 	0.122 	0.092
 7.052 	-0.567 	0.096
 6.972 	-0.800 	0.006
 6.668 	-0.346 	0.720
 6.531 	-0.023 	0.618
 6.776 	0.018 	0.033
 6.707 	0.009 	-0.017
 6.497 	-0.433 	0.285
 6.430 	-0.517 	0.621
 6.403 	-0.397 	0.520
 6.651 	-0.124 	0.280
 6.984 	-0.002 	0.107
 7.158 	-0.255 	0.015
 6.600 	1.130 	0.129
 6.637 	0.892 	0.099
 6.701 	0.279 	-0.017
 6.690 	-0.229 	0.115
 6.678 	-0.572 	0.320
 6.704 	-0.780 	0.363
 6.730 	-0.501 	0.504
 7.111 	-0.302 	0.515
 7.051 	-0.227 	0.023
 6.782 	-0.053 	-0.006
 6.484 	-0.474 	0.543
 6.791 	-0.681 	0.728
 7.025 	-0.427 	0.510
 6.987 	-0.325 	0.443
 7.085 	-0.331 	0.407
 7.174 	-0.551 	0.350
 6.735 	1.039 	-0.119
 7.005 	0.716 	-0.282
 7.007 	0.304 	-0.221
 6.992 	-0.129 	0.006
 7.042 	-0.513 	-0.010
 7.040 	-0.773 	-0.165
 7.132 	-0.814 	-0.110
 7.492 	-0.349 	-0.091
 7.260 	-0.129 	-0.191
 7.156 	-0.103 	-0.147
 7.326 	-0.498 	-0.237
 7.472 	-0.707 	-0.060
 7.785 	-0.551 	-0.093
 7.829 	-0.562 	-0.026
 7.787 	-0.555 	-0.017
 7.379 	-0.880 	-0.064
 7.055 	0.885 	0.166
 7.395 	0.607 	0.153
 7.293 	0.349 	0.023
 7.286 	0.002 	-0.312
 7.347 	-0.220 	-0.653
 7.388 	-0.542 	-0.563
 7.374 	-0.644 	-0.324
 7.109 	-0.616 	-0.154
 7.168 	-0.290 	0.010
 7.345 	-0.484 	0.213
 7.567 	-0.849 	0.466
 7.722 	-0.811 	0.564
 7.893 	-0.468 	0.121
 7.896 	-0.329 	-0.209
 8.043 	-0.376 	-0.456
 7.633 	-0.637 	0.001
 7.041 	0.096 	-0.017
 7.220 	-0.035 	0.024
 7.433 	0.104 	0.082
 7.434 	-0.071 	-0.042
 7.348 	-0.348 	-0.253
 7.140 	-0.509 	-0.243
 6.720 	-0.631 	-0.147
 6.323 	-0.802 	-0.066
 6.274 	-0.710 	0.248
 6.457 	-0.385 	1.064
 6.699 	-0.750 	1.210
 6.665 	-0.886 	0.854
 6.412 	-0.686 	0.585
 6.992 	-0.345 	0.189
 7.319 	-0.191 	-0.010
 6.455 	-0.006 	0.368
 7.441 	-0.240 	-0.215
 7.611 	-0.572 	-0.254
 7.514 	-0.561 	-0.112
 7.427 	-0.483 	-0.084
 7.245 	-0.449 	-0.307
 7.186 	-0.638 	-0.074
 6.957 	-0.896 	0.247
 6.658 	-0.898 	0.583
 6.579 	-0.818 	0.783
 6.670 	-0.619 	0.543
 7.049 	-0.453 	0.526
 7.099 	-0.675 	0.556
 7.237 	-0.563 	0.762
 7.380 	-0.675 	0.334
 7.440 	-0.509 	-0.137
 7.496 	0.041 	-0.224
 7.618 	-0.541 	-0.514
 7.505 	-0.612 	-0.493
 7.424 	-0.499 	-0.308
 7.575 	-0.236 	-0.374
 7.716 	-0.107 	-0.480
 7.884 	-0.515 	-0.055
 7.692 	-0.722 	0.307
 7.240 	-0.735 	0.430
 6.959 	-0.819 	0.659
 7.067 	-0.677 	0.673
 7.263 	-0.995 	0.260
 7.394 	-0.936 	0.247
 7.666 	-0.671 	0.388
 7.796 	-0.706 	0.216
 7.676 	-0.714 	-0.231
 7.644 	-0.306 	-0.254
 6.912 	-0.636 	0.301
 6.808 	-0.556 	0.096
 7.023 	-0.489 	-0.140
 7.174 	-0.378 	-0.076
 7.393 	-0.255 	-0.041
 7.732 	-0.246 	0.009
 7.983 	-0.344 	0.096
 7.928 	-0.511 	0.342
 7.480 	-0.794 	0.363
 7.190 	-0.923 	0.286
 7.098 	-1.282 	0.257
 7.178 	-1.494 	0.012
 7.765 	-1.185 	-0.418
 8.010 	-0.890 	-0.370
 7.928 	-0.549 	-0.278
 7.752 	-0.356 	-0.594
 6.591 	-0.413 	0.551
 6.841 	-0.592 	0.356
 7.157 	-0.636 	0.126
 7.368 	-0.385 	-0.121
 7.343 	-0.331 	-0.140
 7.350 	-0.277 	0.374
 7.055 	-0.221 	0.504
 6.892 	-0.537 	0.546
 6.928 	-0.822 	0.545
 7.140 	-1.072 	0.365
 7.071 	-1.277 	0.232
 6.941 	-1.554 	0.297
 7.243 	-1.449 	-0.089
 8.021 	-0.987 	-1.059
 8.151 	-0.614 	-1.558
 7.880 	-0.436 	-1.406
 6.834 	-0.626 	0.364
 6.966 	-0.960 	0.179
 6.962 	-1.053 	0.070
 7.073 	-0.824 	0.056
 7.212 	-0.374 	0.050
 7.450 	-0.021 	0.191
 7.420 	-0.056 	0.326
 7.247 	-0.359 	0.529
 7.211 	-0.725 	0.513
 7.319 	-0.779 	0.389
 7.411 	-0.788 	0.183
 7.405 	-1.090 	0.163
 7.345 	-1.232 	0.107
 7.428 	-1.040 	-0.286
 7.759 	-0.710 	-0.873
 8.071 	-0.416 	-1.028
 6.577 	-0.815 	-0.048
 6.378 	-1.022 	-0.023
 6.439 	-1.028 	0.004
 6.554 	-0.855 	-0.031
 6.795 	-0.608 	0.108
 7.201 	-0.246 	0.130
 7.691 	-0.134 	0.085
 7.984 	-0.302 	-0.241
 7.921 	-0.532 	-0.484
 7.890 	-0.612 	-0.368
 7.921 	-0.642 	-0.235
 7.735 	-0.747 	-0.174
 7.572 	-0.960 	-0.130
 7.512 	-1.082 	-0.187
 7.404 	-0.824 	-0.315
 7.496 	-0.629 	-0.553
 6.302 	-1.033 	-0.079
 6.203 	-1.088 	0.135
 6.309 	-1.361 	0.094
 6.521 	-1.044 	-0.235
 6.968 	-0.883 	-0.533
 7.347 	-0.433 	-0.531
 7.692 	-0.073 	-0.547
 7.920 	0.176 	-0.641
 8.015 	0.236 	-0.745
 8.029 	-0.006 	-0.864
 8.077 	-0.288 	-0.872
 7.956 	-0.559 	-0.873
 7.772 	-0.728 	-0.760
 7.713 	-0.791 	-0.727
 7.733 	-0.713 	-0.754
 7.488 	-0.533 	-0.544
 6.095 	-0.794 	0.731
 6.279 	-1.025 	0.567
 6.471 	-1.374 	0.140
 6.624 	-1.391 	-0.297
 6.760 	-1.176 	-0.406
 7.163 	-0.998 	-0.898
 7.712 	-0.199 	-1.017
 8.013 	0.359 	-1.039
 8.021 	0.371 	-1.354
 8.126 	0.221 	-1.101
 8.239 	-0.169 	-0.528
 7.971 	-0.571 	-0.458
 7.965 	-0.770 	-0.533
 8.039 	-0.612 	-0.507
 7.847 	-0.571 	-0.544
 7.581 	-0.437 	-0.397
 6.150 	0.933 	0.554
 6.513 	1.145 	0.285
 6.418 	1.138 	0.277
 6.165 	0.939 	0.293
 6.076 	0.808 	0.306
 6.179 	0.658 	0.282
 6.417 	0.478 	0.335
 6.641 	0.315 	0.456
 6.819 	0.161 	0.404
 6.914 	-0.011 	0.136
 6.989 	-0.187 	-0.072
 7.076 	-0.289 	-0.287
 7.068 	-0.323 	-0.244
 7.202 	-0.078 	-0.021
 7.391 	0.142 	0.161
 7.234 	0.086 	0.099
 5.963 	1.009 	0.723
 5.735 	1.295 	0.766
 5.592 	1.357 	0.594
 5.672 	1.277 	0.344
 5.907 	1.035 	0.317
 6.126 	0.542 	0.158
 6.496 	0.247 	0.209
 6.797 	0.178 	0.374
 6.958 	0.008 	0.451
 7.074 	-0.198 	0.423
 7.077 	-0.384 	0.434
 7.165 	-0.489 	0.430
 7.145 	-0.350 	0.222
 7.023 	-0.012 	0.190
 6.825 	0.201 	0.210
 6.793 	0.331 	0.140
 5.978 	1.063 	0.456
 5.839 	1.457 	0.493
 5.867 	1.336 	0.223
 5.927 	1.148 	0.059
 5.985 	0.957 	0.320
 6.394 	0.152 	0.776
 6.783 	-0.414 	0.949
 7.140 	-0.288 	0.649
 7.229 	-0.103 	0.381
 7.280 	-0.010 	0.310
 7.288 	-0.170 	0.306
 7.147 	-0.530 	0.301
 7.195 	-0.354 	0.410
 7.206 	-0.318 	0.248
 7.271 	-0.075 	0.127
 7.314 	0.185 	0.055
 6.462 	1.030 	0.154
 6.297 	1.150 	0.105
 6.229 	0.900 	0.078
 6.359 	0.851 	0.229
 6.505 	0.556 	0.154
 6.771 	0.064 	0.100
 7.145 	-0.423 	0.308
 7.386 	-0.470 	0.390
 7.372 	-0.370 	0.252
 7.087 	-0.364 	0.274
 6.923 	-0.347 	0.353
 6.753 	-0.342 	0.326
 6.514 	-0.356 	0.422
 6.499 	-0.340 	0.467
 6.627 	-0.346 	0.385
 6.913 	-0.182 	0.290
 6.900 	1.175 	0.213
 6.797 	1.029 	0.231
 6.760 	0.855 	0.120
 6.822 	0.567 	0.020