# vtk DataFile Version 3.0
HighT1
ASCII
DATASET STRUCTURED_POINTS
DIMENSIONS 16 16 19
ORIGIN 929.001000000000 929.001000000000 5.001000000000
SPACING 10.000000000000 10.000000000000 10.000000000000
POINT_DATA 4864
FIELD attributes 1
U 3 4864 float
2.619 	-0.895 	0.276
 2.864 	-0.737 	0.130
 3.089 	-0.633 	0.243
 3.067 	-0.685 	0.292
 3.050 	-0.548 	0.133
 3.222 	-0.685 	0.039
 3.380 	-0.669 	-0.093
 3.641 	-0.371 	-0.026
 3.482 	-0.068 	0.053
 3.555 	-0.039 	0.130
 3.748 	-0.032 	0.185
 3.643 	-0.294 	0.130
 3.313 	-0.082 	0.073
 3.630 	0.148 	-0.261
 4.293 	0.340 	-0.587
 4.859 	0.235 	-0.559
 4.777 	0.299 	-0.520
 4.009 	-0.366 	-0.131
 3.287 	-0.704 	0.094
 3.174 	-0.248 	-0.178
 2.804 	-0.087 	-0.101
 2.714 	-0.149 	-0.040
 2.894 	-0.275 	0.019
 3.130 	-0.483 	0.129
 3.604 	-0.586 	0.123
 4.005 	-0.393 	0.096
 4.125 	-0.211 	0.125
 4.012 	-0.294 	0.120
 3.579 	-0.369 	-0.001
 3.711 	-0.370 	0.080
 4.582 	0.305 	0.125
 4.692 	0.804 	-0.016
 4.432 	0.799 	-0.103
 4.726 	0.774 	-0.209
 4.532 	-0.176 	0.179
 3.604 	0.287 	0.252
 3.465 	-0.296 	0.408
 3.830 	-0.852 	0.322
 3.956 	-0.879 	0.150
 4.493 	-0.946 	-0.029
 5.190 	-1.182 	-0.535
 4.506 	-0.751 	0.094
 3.734 	-0.380 	0.208
 3.258 	-0.066 	0.343
 3.744 	-0.687 	0.110
 4.307 	-0.629 	-0.135
 4.142 	-0.850 	-0.146
 4.792 	-0.113 	0.404
 4.495 	1.093 	-0.187
 4.676 	0.704 	-0.117
 5.057 	0.501 	0.010
 5.311 	-0.192 	0.024
 5.201 	-0.764 	-0.072
 4.336 	-0.808 	0.035
 4.192 	-0.791 	0.136
 4.134 	-1.193 	-0.132
 4.116 	-1.192 	-0.131
 3.868 	-0.921 	0.179
 4.066 	-0.252 	0.052
 4.317 	-0.973 	0.137
 4.420 	-0.971 	0.204
 4.286 	-0.719 	0.302
 5.202 	-1.295 	-0.061
 5.749 	-0.754 	-0.439
 4.128 	0.709 	-0.112
 4.720 	0.626 	-0.175
 5.158 	0.058 	-0.024
 5.122 	-0.260 	-0.133
 4.947 	-0.194 	-0.208
 4.472 	-0.145 	-0.040
 3.956 	-0.417 	-0.010
 3.763 	-0.647 	0.094
 3.828 	-1.024 	0.240
 3.193 	-1.255 	0.421
 3.440 	-1.816 	0.509
 3.978 	-2.203 	0.368
 4.525 	-1.855 	-0.054
 4.766 	-2.014 	-0.022
 5.548 	-1.904 	-0.302
 5.750 	0.331 	-0.204
 4.443 	0.318 	-0.022
 4.489 	0.449 	0.045
 4.257 	0.378 	0.081
 4.077 	0.189 	0.030
 4.042 	0.258 	0.073
 4.076 	0.229 	0.051
 4.078 	0.143 	-0.129
 3.958 	-0.691 	-0.060
 3.982 	-0.323 	0.226
 4.272 	-0.705 	-0.006
 5.015 	-1.158 	-0.164
 5.676 	-1.766 	-0.511
 6.245 	-1.680 	-0.590
 6.475 	-0.961 	-0.202
 5.169 	-0.705 	-0.109
 3.743 	0.653 	0.348
 3.641 	-0.361 	0.376
 4.037 	0.004 	0.219
 4.071 	-0.004 	0.181
 4.229 	-0.385 	0.123
 4.400 	-0.525 	0.046
 4.609 	-0.300 	0.118
 4.768 	0.152 	0.004
 5.529 	0.166 	-0.686
 4.908 	0.045 	-0.060
 4.550 	-0.964 	0.021
 5.480 	-0.421 	-0.742
 5.960 	-0.854 	-0.559
 5.572 	-1.165 	0.280
 5.679 	0.910 	-0.919
 4.592 	0.988 	-0.086
 4.287 	0.686 	0.044
 5.406 	-0.393 	-0.099
 5.102 	-0.347 	0.001
 4.874 	-0.504 	0.048
 4.718 	-0.603 	-0.002
 4.985 	-0.691 	-0.266
 5.112 	-0.672 	-0.213
 5.460 	-0.276 	-0.244
 5.480 	0.072 	-0.412
 5.912 	0.676 	-0.216
 4.738 	-0.622 	-0.076
 5.122 	-0.186 	-0.945
 4.826 	-0.529 	0.186
 4.846 	-0.472 	0.226
 4.167 	0.537 	0.542
 4.591 	1.849 	-0.036
 4.879 	1.138 	0.060
 4.995 	-0.039 	-0.077
 4.711 	-0.126 	0.048
 4.350 	-0.119 	0.015
 4.311 	-0.501 	-0.177
 4.407 	-0.353 	-0.252
 4.603 	-0.242 	-0.184
 4.896 	-0.179 	-0.070
 5.376 	0.581 	-0.323
 5.679 	1.535 	-0.180
 5.196 	0.522 	-0.316
 4.774 	0.048 	-0.018
 4.852 	0.192 	-0.290
 4.096 	-0.613 	0.513
 3.996 	0.346 	0.217
 4.139 	1.166 	0.032
 2.957 	1.198 	0.343
 5.010 	-0.392 	-0.110
 4.987 	-0.070 	0.120
 4.853 	0.012 	0.080
 4.381 	-0.163 	0.122
 4.039 	-0.280 	-0.034
 4.164 	-0.464 	-0.086
 4.596 	-0.002 	0.008
 4.908 	0.650 	-0.029
 5.377 	0.756 	-0.038
 5.254 	0.739 	0.072
 5.363 	0.605 	-0.279
 5.694 	0.198 	-0.215
 6.495 	0.432 	0.026
 3.791 	0.064 	0.347
 3.140 	1.282 	0.222
 3.339 	1.419 	0.112
 4.789 	0.075 	0.353
 4.326 	-0.511 	0.138
 4.413 	-0.183 	0.062
 4.126 	0.146 	0.262
 4.357 	-0.145 	0.069
 5.215 	-0.352 	-0.159
 5.519 	-0.528 	-0.035
 4.809 	0.256 	-0.067
 5.137 	0.144 	-0.249
 4.891 	0.959 	0.123
 5.564 	0.382 	-0.243
 6.611 	0.574 	-0.251
 5.798 	1.480 	-0.089
 5.320 	0.623 	-0.204
 3.873 	1.005 	0.226
 2.960 	0.782 	0.509
 3.680 	-0.541 	0.134
 2.468 	-1.210 	0.658
 2.922 	-1.619 	-0.065
 4.117 	-0.745 	-0.771
 4.769 	-0.331 	-0.832
 5.279 	-0.001 	-0.398
 5.410 	0.476 	-0.089
 4.722 	0.339 	0.030
 5.097 	0.553 	-0.356
 4.672 	0.831 	0.379
 4.861 	0.955 	0.113
 4.960 	1.370 	0.045
 5.578 	1.643 	-0.095
 4.853 	1.113 	0.451
 4.432 	1.054 	0.337
 4.377 	-0.072 	0.319
 4.896 	-0.575 	0.365
 3.263 	-0.752 	-0.002
 2.741 	-1.313 	-0.059
 3.185 	-0.580 	0.155
 3.761 	0.178 	0.052
 4.308 	0.440 	0.077
 4.473 	0.423 	0.139
 4.057 	0.841 	0.326
 3.979 	1.086 	0.290
 3.989 	1.487 	0.197
 3.801 	0.687 	-0.212
 4.102 	0.503 	0.137
 4.384 	0.905 	0.422
 5.093 	1.529 	0.301
 5.581 	1.191 	0.023
 5.953 	0.180 	-0.457
 4.881 	0.024 	0.312
 3.351 	-0.502 	0.101
 3.856 	-0.112 	-0.341
 3.342 	-0.710 	-0.054
 2.911 	-0.458 	0.197
 3.303 	0.250 	-0.008
 2.695 	0.525 	0.369
 2.864 	0.556 	0.135
 2.907 	0.679 	0.163
 3.196 	0.627 	0.119
 3.637 	0.340 	-0.289
 3.956 	0.496 	-0.012
 3.919 	0.023 	0.193
 4.093 	0.239 	0.052
 4.446 	0.078 	0.007
 5.190 	0.433 	-0.768
 5.174 	0.656 	0.150
 3.447 	-0.078 	0.002
 3.348 	-0.341 	0.138
 3.745 	-0.204 	-0.144
 3.573 	-0.757 	0.027
 4.271 	-0.013 	-0.185
 4.427 	0.100 	0.363
 4.006 	-0.642 	-0.078
 4.188 	0.014 	0.279
 4.133 	0.185 	-0.341
 3.957 	0.458 	0.061
 3.415 	0.316 	0.567
 3.296 	0.103 	0.305
 3.475 	-0.169 	0.253
 3.288 	0.246 	0.152
 2.229 	0.487 	0.779
 4.608 	1.477 	0.340
 4.069 	-0.118 	0.084
 4.296 	-0.298 	0.024
 4.639 	-0.094 	-0.370
 5.069 	-0.213 	-0.355
 5.693 	-0.108 	-0.253
 4.474 	0.422 	0.338
 3.610 	0.251 	-0.255
 2.456 	0.001 	0.409
 2.279 	0.534 	0.168
 3.097 	0.619 	0.018
 3.713 	-0.043 	-0.110
 3.839 	-0.378 	-0.010
 3.689 	-0.387 	0.051
 3.150 	-0.114 	0.127
 3.263 	0.214 	0.048
 5.222 	0.752 	0.055
 4.363 	1.396 	0.546
 4.200 	0.707 	0.162
 4.031 	0.757 	0.169
 3.754 	0.655 	0.038
 4.215 	0.536 	-0.284
 4.570 	0.249 	-0.409
 4.797 	-0.044 	-0.325
 5.109 	-0.597 	0.093
 5.358 	-0.807 	0.073
 4.351 	0.036 	0.383
 4.314 	0.147 	0.293
 4.685 	-0.053 	0.134
 4.935 	-0.376 	-0.336
 5.260 	-0.048 	-0.750
 5.059 	0.284 	-0.057
 5.333 	0.638 	-0.418
 5.177 	1.118 	-0.160
 4.988 	0.506 	0.031
 4.411 	0.639 	0.266
 4.162 	0.513 	-0.202
 4.128 	0.405 	-0.177
 4.062 	0.156 	-0.069
 3.899 	0.228 	0.099
 4.112 	-0.403 	0.528
 4.670 	-0.827 	0.665
 4.877 	-0.348 	0.391
 5.368 	0.249 	0.224
 5.200 	-0.026 	-0.093
 4.602 	0.063 	0.346
 4.621 	-0.550 	0.063
 5.738 	-0.838 	-0.297
 5.027 	0.357 	-0.343
 5.198 	1.160 	-0.440
 4.020 	0.881 	0.303
 3.828 	1.018 	0.313
 3.909 	0.990 	0.429
 4.350 	0.413 	0.476
 5.191 	-0.136 	0.044
 5.951 	-0.299 	0.136
 5.604 	-0.845 	-0.215
 6.103 	-0.777 	1.123
 4.729 	-0.651 	0.798
 4.679 	0.212 	0.176
 4.871 	0.595 	-0.077
 5.319 	-0.135 	-0.473
 5.307 	-0.592 	-0.305
 5.880 	-1.051 	0.192
 4.485 	0.597 	-0.312
 4.499 	1.302 	-0.321
 4.973 	1.117 	-0.073
 5.389 	0.651 	-0.077
 5.784 	0.135 	-0.170
 6.094 	-0.416 	-0.121
 6.281 	-1.011 	0.142
 6.364 	-0.416 	-0.327
 5.993 	-0.963 	0.035
 6.498 	-0.586 	0.322
 6.739 	-0.309 	0.528
 5.194 	-0.083 	1.016
 4.801 	0.140 	0.796
 5.042 	-0.135 	0.455
 5.894 	-0.626 	-0.193
 6.622 	-1.672 	-0.203
 5.295 	0.491 	-0.030
 5.376 	0.886 	-0.067
 5.980 	0.649 	-0.067
 6.304 	0.366 	-0.322
 6.568 	-0.065 	-0.221
 6.530 	-0.760 	-0.044
 6.409 	-0.726 	-0.090
 6.206 	-0.339 	-0.126
 6.137 	-0.192 	-0.021
 6.821 	-0.412 	-0.264
 6.902 	0.171 	0.286
 6.105 	0.405 	-0.021
 5.193 	0.388 	-0.196
 6.210 	-0.496 	-0.738
 6.267 	-1.270 	-0.535
 6.054 	-1.809 	-0.341
 5.987 	0.523 	0.133
 6.131 	0.566 	0.229
 6.353 	0.583 	0.151
 6.560 	0.383 	-0.064
 6.550 	0.042 	-0.178
 6.898 	-0.471 	-0.312
 6.829 	-0.691 	-0.132
 6.413 	-0.447 	-0.261
 6.447 	-0.061 	-0.405
 6.861 	-0.238 	-0.731
 6.902 	0.005 	-0.343
 6.625 	0.511 	-0.766
 6.688 	-0.274 	-0.111
 7.306 	-0.810 	-0.371
 6.786 	-0.723 	-0.461
 5.263 	-0.283 	0.517
 4.313 	0.537 	0.252
 4.394 	0.561 	0.752
 4.906 	0.417 	0.691
 5.811 	0.564 	0.046
 6.429 	0.638 	-0.569
 7.029 	-0.115 	-0.440
 7.190 	-0.398 	-0.154
 6.312 	-0.561 	-0.379
 6.668 	-0.646 	-0.322
 6.993 	-0.371 	-0.823
 6.703 	-0.212 	-0.996
 6.910 	-0.065 	-0.229
 6.835 	-0.587 	-0.293
 7.312 	-0.591 	-0.232
 7.802 	0.260 	-0.642
 5.270 	1.126 	0.898
 6.303 	0.761 	-0.389
 6.334 	0.905 	-0.215
 6.466 	0.389 	-0.278
 6.562 	1.009 	-0.600
 5.946 	0.421 	-0.626
 6.411 	-0.209 	-0.387
 6.421 	-0.163 	0.124
 6.849 	-0.456 	-0.846
 7.044 	-0.321 	-0.149
 6.844 	-0.089 	-0.379
 6.324 	0.104 	-1.046
 5.582 	0.320 	-0.101
 4.963 	-0.200 	0.019
 4.632 	-1.011 	0.278
 4.917 	0.525 	0.155
 5.826 	1.208 	0.179
 6.176 	0.404 	-0.084
 6.345 	0.653 	-0.186
 6.610 	0.230 	-0.344
 6.673 	0.846 	-0.638
 7.477 	0.310 	-0.320
 6.466 	-0.138 	0.001
 6.416 	-0.466 	-0.059
 6.828 	-0.375 	-0.415
 6.493 	0.068 	0.014
 5.546 	0.208 	-0.152
 5.378 	0.526 	0.339
 5.585 	0.354 	-0.115
 4.556 	-0.394 	0.068
 4.174 	0.654 	1.290
 3.842 	0.077 	-0.161
 4.476 	0.540 	0.001
 6.191 	0.715 	0.148
 6.661 	0.527 	0.160
 6.795 	0.437 	0.100
 7.260 	0.204 	0.066
 7.403 	0.397 	-0.277
 6.599 	0.419 	-0.104
 6.302 	-0.206 	0.155
 6.327 	-0.202 	-0.403
 5.942 	0.338 	0.460
 6.312 	0.383 	0.078
 6.363 	0.462 	-0.461
 5.934 	0.541 	-0.383
 4.374 	0.436 	0.661
 2.856 	0.175 	1.139
 3.796 	0.582 	-0.148
 3.399 	1.568 	0.287
 5.578 	0.074 	0.781
 6.368 	0.592 	0.282
 6.465 	0.568 	0.450
 6.770 	0.741 	0.003
 7.036 	0.723 	-0.423
 6.750 	0.542 	-0.131
 6.556 	0.133 	-0.115
 6.019 	-0.169 	-0.114
 6.276 	0.292 	-0.148
 6.760 	0.060 	0.028
 6.486 	0.294 	-0.122
 6.493 	0.789 	-0.176
 6.072 	1.326 	0.438
 6.009 	0.532 	-0.145
 4.365 	1.216 	0.806
 4.661 	1.807 	0.095
 6.307 	-0.171 	0.909
 5.327 	0.389 	1.024
 6.308 	1.359 	-0.338
 6.735 	0.619 	-0.968
 6.120 	0.240 	-0.282
 5.296 	-0.085 	-0.587
 5.096 	0.003 	-0.186
 5.257 	0.385 	0.012
 4.183 	-0.257 	-0.105
 3.805 	-0.461 	-0.104
 4.606 	0.149 	0.058
 4.518 	0.057 	0.189
 5.640 	1.272 	-0.416
 4.962 	1.606 	0.123
 4.000 	1.550 	0.700
 4.896 	1.550 	0.169
 6.021 	0.173 	0.549
 5.832 	-0.188 	0.444
 6.019 	0.210 	-0.082
 5.422 	0.175 	-0.049
 4.252 	0.029 	0.003
 4.297 	-0.074 	0.098
 4.594 	-0.027 	0.201
 3.909 	0.326 	0.381
 3.796 	0.196 	0.314
 4.742 	-0.698 	-0.273
 4.490 	-0.446 	0.311
 4.803 	-0.551 	0.410
 5.040 	-0.480 	0.974
 5.394 	0.710 	0.701
 6.215 	0.889 	0.560
 6.247 	1.124 	0.528
 6.322 	-0.245 	0.398
 7.039 	0.174 	-0.019
 5.870 	0.323 	-0.193
 4.849 	0.936 	0.070
 4.686 	0.277 	-0.094
 5.362 	-1.266 	0.114
 4.679 	0.293 	0.521
 3.122 	0.848 	1.006
 4.508 	0.104 	0.404
 5.600 	-0.538 	-0.545
 5.530 	-0.968 	-0.160
 4.741 	-0.494 	0.071
 4.915 	0.193 	0.078
 5.594 	0.183 	0.003
 6.129 	0.176 	-0.410
 6.497 	1.201 	-0.702
 6.014 	0.756 	-0.074
 6.792 	0.769 	-0.631
 5.250 	0.759 	0.062
 5.309 	0.317 	0.116
 5.591 	-0.369 	-0.181
 6.000 	0.160 	-0.285
 4.267 	1.027 	0.610
 4.791 	-0.047 	-0.167
 5.140 	0.419 	0.359
 5.517 	0.093 	-0.098
 3.818 	-0.348 	0.128
 2.698 	-0.395 	0.689
 2.978 	-0.480 	0.731
 3.768 	-0.240 	0.737
 4.534 	0.184 	0.492
 5.259 	0.239 	0.132
 4.299 	1.018 	0.957
 5.561 	0.871 	-0.019
 6.034 	1.177 	-0.891
 6.243 	0.580 	-0.173
 5.365 	-0.242 	-0.513
 5.238 	0.057 	0.274
 5.831 	0.592 	0.345
 5.679 	-0.014 	-0.122
 5.758 	0.129 	-0.053
 6.249 	0.464 	-1.088
 5.029 	1.024 	0.470
 4.835 	-0.373 	-0.384
 4.833 	-0.414 	0.291
 4.324 	-0.463 	0.394
 4.518 	-0.000 	0.242
 4.250 	0.361 	0.448
 6.025 	0.809 	0.789
 5.892 	1.255 	0.833
 5.891 	1.414 	0.779
 5.229 	0.724 	0.672
 5.153 	0.790 	-0.164
 5.422 	1.445 	-0.148
 5.685 	1.009 	-0.473
 5.674 	0.588 	-0.364
 5.639 	0.451 	-0.306
 5.164 	0.444 	0.146
 5.054 	0.185 	0.849
 4.668 	0.523 	0.808
 5.376 	-0.123 	0.226
 5.784 	-0.048 	-0.176
 6.206 	0.431 	-0.370
 5.389 	0.297 	0.054
 4.911 	0.571 	-0.461
 5.499 	1.279 	0.054
 5.182 	1.062 	0.546
 5.441 	0.959 	0.022
 5.323 	0.449 	-0.148
 4.814 	0.612 	-0.165
 4.622 	0.632 	0.196
 5.091 	0.496 	0.341
 5.530 	0.440 	0.457
 6.040 	0.514 	0.465
 6.424 	0.220 	0.089
 6.006 	0.425 	0.068
 5.694 	-0.142 	-0.118
 5.233 	-0.350 	0.295
 5.705 	0.306 	-0.186
 6.291 	0.408 	-0.529
 4.914 	0.012 	-0.098
 5.006 	0.674 	-0.076
 5.524 	1.181 	0.037
 5.163 	1.038 	0.150
 4.845 	0.779 	0.256
 5.054 	0.913 	0.137
 5.250 	-0.065 	0.062
 4.893 	-0.258 	0.066
 4.898 	0.262 	0.541
 4.659 	0.259 	0.939
 5.078 	-0.218 	0.880
 6.001 	0.185 	0.355
 6.356 	0.340 	-0.212
 5.733 	0.344 	-0.145
 5.404 	-0.125 	-0.207
 6.079 	-0.955 	-0.277
 5.856 	0.122 	-0.169
 4.957 	0.673 	0.234
 4.916 	1.223 	-0.014
 5.257 	1.055 	0.189
 5.735 	0.423 	0.184
 6.154 	0.237 	-0.021
 5.963 	0.108 	0.308
 5.386 	-0.148 	-0.159
 5.143 	0.040 	-0.087
 5.044 	0.230 	-0.007
 5.192 	-0.026 	0.925
 5.597 	0.045 	0.601
 5.443 	0.488 	0.265
 5.558 	0.433 	-0.204
 5.869 	-0.691 	-0.548
 6.330 	-1.598 	0.050
 6.359 	0.466 	-0.382
 6.332 	0.702 	0.116
 6.255 	0.993 	-0.103
 6.833 	0.788 	-0.655
 7.213 	0.637 	-0.569
 6.881 	0.532 	-0.466
 6.712 	0.133 	-0.203
 6.418 	-0.327 	0.166
 6.024 	-0.377 	-0.226
 6.288 	0.069 	-0.234
 6.161 	0.226 	0.044
 6.831 	0.422 	0.219
 6.245 	0.713 	-0.203
 6.529 	-0.303 	-0.550
 7.382 	-0.956 	-0.933
 6.583 	-1.824 	0.404
 6.423 	0.297 	-0.184
 6.738 	0.493 	0.246
 6.577 	0.742 	0.177
 6.503 	0.495 	-0.316
 6.769 	0.255 	-0.631
 6.891 	0.454 	-0.539
 7.024 	0.207 	-0.321
 6.833 	-0.196 	0.050
 6.776 	-0.764 	0.013
 6.775 	-0.706 	-0.308
 6.810 	-0.008 	-0.389
 6.926 	0.344 	-0.290
 7.209 	-0.215 	-0.003
 7.663 	-0.228 	-0.435
 7.889 	-1.053 	-0.675
 7.474 	-0.766 	0.602
 6.542 	0.555 	-0.060
 6.964 	0.852 	0.256
 6.751 	1.076 	-0.061
 6.852 	0.513 	-0.601
 6.845 	0.209 	-0.712
 6.739 	0.631 	-0.399
 6.782 	0.142 	0.003
 6.956 	-0.264 	-0.248
 7.129 	-0.829 	-0.489
 7.013 	-0.713 	-0.644
 6.922 	-0.295 	-0.846
 7.095 	-0.005 	-0.443
 6.909 	-0.454 	-0.264
 6.950 	-0.726 	-0.463
 6.952 	-0.420 	-0.546
 6.990 	0.293 	0.620
 6.468 	0.381 	-0.049
 6.692 	0.986 	-0.066
 7.029 	1.369 	-0.138
 6.686 	0.592 	-0.142
 6.585 	0.304 	-0.080
 6.467 	0.224 	-0.215
 6.704 	-0.012 	-0.388
 6.656 	-0.745 	-0.752
 6.543 	-1.029 	-0.642
 6.634 	-0.595 	-0.347
 6.420 	-0.381 	-0.614
 6.305 	0.262 	-0.143
 5.537 	0.213 	0.637
 4.739 	-0.759 	0.338
 4.335 	-0.812 	0.615
 4.306 	0.417 	1.129
 6.397 	0.372 	0.031
 6.292 	0.730 	-0.020
 6.572 	0.456 	0.078
 6.784 	0.119 	-0.201
 6.801 	-0.009 	0.286
 6.755 	0.354 	0.278
 6.780 	-0.260 	-0.302
 6.691 	-0.707 	-0.501
 6.587 	-0.728 	-0.412
 6.910 	-0.223 	-0.311
 6.430 	0.375 	0.147
 6.074 	0.922 	0.187
 5.898 	-0.023 	0.346
 6.593 	-0.043 	0.780
 5.186 	-0.139 	-1.076
 3.616 	0.749 	1.331
 5.811 	0.211 	0.124
 5.951 	0.436 	0.154
 6.216 	0.035 	-0.086
 6.908 	-0.189 	-0.350
 6.859 	0.138 	-0.534
 6.661 	0.224 	-0.471
 6.387 	-0.062 	-0.110
 6.112 	-0.501 	-0.156
 6.401 	-0.321 	0.156
 6.748 	-0.125 	-0.098
 6.568 	0.588 	-0.112
 6.615 	0.656 	-0.250
 6.027 	1.150 	0.751
 6.180 	1.108 	0.449
 6.093 	0.047 	-1.014
 4.685 	0.834 	0.551
 5.549 	-0.501 	0.989
 6.108 	-0.099 	0.457
 6.380 	-0.282 	-0.180
 6.672 	-0.305 	-0.628
 6.225 	0.579 	-0.334
 5.834 	0.127 	0.233
 5.983 	-0.122 	0.184
 5.834 	-0.290 	-0.073
 5.695 	-0.358 	0.269
 5.887 	-0.399 	0.034
 5.954 	-0.215 	0.216
 6.683 	0.507 	0.274
 6.884 	0.852 	0.215
 6.739 	0.780 	0.065
 6.625 	0.721 	0.288
 5.994 	1.337 	-0.092
 5.387 	-0.475 	0.362
 6.097 	-0.071 	0.553
 6.198 	-0.152 	-0.179
 6.206 	0.490 	-0.538
 5.735 	0.457 	0.567
 5.407 	0.224 	0.937
 4.465 	-0.169 	0.347
 4.492 	-0.271 	0.126
 4.949 	-0.515 	-0.157
 4.206 	-1.212 	0.250
 4.429 	-0.929 	0.831
 5.372 	-0.132 	0.306
 5.858 	0.482 	-0.086
 6.063 	0.812 	0.194
 6.660 	0.894 	0.224
 6.477 	0.946 	0.147
 5.819 	-0.056 	0.038
 5.776 	-0.105 	0.196
 6.229 	0.188 	-0.367
 5.983 	0.331 	0.917
 5.472 	0.743 	0.721
 4.828 	-0.226 	0.384
 5.100 	-0.075 	0.374
 5.240 	0.057 	-0.100
 5.244 	-0.337 	-0.260
 4.967 	-0.433 	-0.206
 4.788 	-1.107 	0.395
 4.732 	-0.532 	0.738
 4.702 	0.282 	1.148
 5.214 	0.847 	0.808
 5.518 	0.672 	0.795
 6.591 	-0.217 	0.057
 6.128 	0.212 	0.035
 5.764 	0.110 	0.407
 5.799 	-0.622 	-0.158
 6.358 	1.092 	0.824
 5.549 	0.693 	0.040
 4.769 	0.491 	-0.165
 4.998 	-0.235 	1.231
 5.823 	-0.214 	0.196
 6.165 	-0.300 	-0.223
 6.310 	-0.297 	-0.487
 5.248 	-0.775 	0.019
 4.965 	-0.954 	0.337
 4.777 	-1.048 	0.271
 5.701 	-1.027 	0.253
 6.656 	-1.108 	-0.082
 7.325 	-1.005 	-0.351
 6.693 	0.191 	-0.282
 6.767 	0.333 	-0.275
 6.616 	0.297 	-0.169
 6.595 	0.691 	0.003
 6.735 	0.768 	-0.313
 6.967 	-0.028 	0.018
 6.855 	0.481 	0.363
 6.895 	0.205 	0.122
 6.499 	-0.106 	0.071
 5.975 	0.058 	-0.501
 5.364 	-0.063 	0.128
 5.369 	-0.241 	0.578
 5.335 	-0.724 	0.105
 5.602 	-1.103 	0.427
 6.265 	-1.431 	0.438
 6.761 	-1.187 	-0.178
 6.118 	-0.105 	-0.274
 6.239 	0.014 	-0.737
 6.313 	0.723 	-0.496
 6.521 	0.602 	-0.155
 6.625 	0.637 	-0.006
 6.268 	-0.151 	0.196
 6.110 	-0.045 	0.301
 6.206 	0.314 	0.142
 6.136 	0.229 	-0.053
 5.856 	0.487 	-0.454
 5.648 	0.634 	0.005
 6.368 	0.208 	-0.128
 6.641 	-0.175 	-0.590
 6.622 	-0.462 	-0.331
 6.824 	-0.514 	-0.200
 6.901 	-0.704 	0.205
 5.406 	0.342 	0.407
 5.687 	0.921 	0.741
 5.668 	1.188 	1.220
 5.692 	0.783 	0.794
 5.458 	1.367 	0.447
 5.710 	1.477 	0.261
 5.703 	0.941 	-0.054
 5.644 	0.873 	-0.235
 5.683 	0.779 	-0.253
 5.791 	0.494 	-0.209
 6.099 	0.352 	0.313
 6.100 	0.413 	0.506
 6.253 	0.486 	0.070
 6.231 	0.799 	0.133
 6.338 	0.634 	-0.146
 6.331 	0.224 	-0.366
 4.827 	0.174 	0.093
 5.036 	0.422 	0.257
 5.860 	1.030 	0.277
 5.747 	0.899 	0.165
 5.474 	0.959 	0.118
 5.283 	0.854 	0.194
 5.169 	0.728 	0.395
 5.168 	0.275 	0.903
 5.847 	0.444 	1.077
 5.488 	0.560 	0.921
 5.480 	0.624 	0.253
 6.193 	0.467 	-0.067
 6.134 	0.320 	-0.020
 6.126 	0.151 	0.046
 6.498 	0.009 	0.002
 6.541 	0.286 	-0.101
 5.826 	0.108 	0.137
 5.443 	0.031 	0.049
 5.267 	0.510 	0.057
 5.176 	0.910 	0.380
 5.446 	0.683 	0.441
 5.374 	0.708 	0.382
 5.160 	0.704 	0.345
 5.629 	-0.431 	0.157
 5.602 	-0.522 	0.640
 5.770 	-0.083 	0.803
 6.163 	0.153 	0.915
 6.482 	0.028 	0.364
 6.477 	0.359 	-0.055
 5.944 	0.180 	0.027
 5.740 	-0.280 	0.052
 5.939 	0.037 	0.198
 6.410 	0.180 	-0.075
 6.649 	0.246 	0.011
 6.528 	0.506 	-0.199
 6.087 	0.746 	0.317
 5.901 	0.806 	0.005
 6.112 	0.622 	0.013
 6.315 	0.604 	-0.138
 6.519 	-0.275 	0.012
 6.283 	-0.713 	0.184
 6.653 	-0.153 	0.331
 6.402 	0.013 	0.550
 5.710 	0.193 	0.486
 5.545 	0.780 	0.258
 5.704 	-0.043 	-0.356
 5.628 	-0.364 	-0.259
 6.046 	-1.381 	0.626
 6.824 	0.183 	-0.244
 7.000 	0.286 	0.065
 6.931 	0.504 	-0.026
 7.142 	0.637 	-0.453
 7.406 	0.689 	-0.347
 6.769 	0.915 	-0.316
 6.926 	0.475 	-0.070
 7.349 	-0.084 	0.190
 7.057 	-0.470 	0.028
 6.420 	-0.724 	0.545
 6.376 	0.043 	0.280
 5.998 	0.817 	0.348
 6.605 	0.500 	-0.102
 6.896 	-0.109 	-0.691
 6.832 	-0.409 	-0.658
 7.079 	-1.789 	0.244
 6.863 	0.265 	-0.348
 6.485 	0.349 	0.120
 6.405 	0.396 	0.098
 6.559 	0.205 	-0.361
 6.820 	0.526 	-0.358
 7.044 	0.717 	-0.190
 7.285 	0.199 	-0.266
 7.507 	0.122 	-0.134
 7.648 	-0.285 	0.063
 7.188 	-0.378 	0.083
 6.647 	-0.128 	-0.050
 6.995 	0.100 	-0.113
 7.384 	0.092 	-0.203
 7.301 	-0.123 	-0.323
 7.639 	-0.572 	-0.340
 6.884 	-0.990 	0.423
 6.488 	0.721 	-0.178
 6.179 	0.509 	-0.050
 6.482 	0.222 	-0.080
 6.450 	-0.547 	-0.145
 6.601 	-0.401 	-0.225
 6.900 	-0.189 	-0.250
 7.191 	-0.088 	0.031
 7.545 	0.088 	0.043
 7.428 	-0.284 	-0.121
 7.233 	0.006 	-0.469
 7.199 	-0.266 	-0.536
 7.324 	-0.358 	-0.530
 7.386 	0.063 	-0.150
 6.709 	-0.546 	0.196
 5.339 	-0.754 	0.518
 5.016 	-0.410 	1.349
 6.326 	0.368 	0.202
 6.701 	0.327 	-0.167
 6.809 	-0.301 	-0.082
 6.916 	-0.889 	0.114
 6.863 	-0.953 	-0.005
 6.704 	-0.551 	-0.311
 6.877 	-0.379 	-0.425
 7.104 	-0.248 	-0.413
 7.071 	-0.647 	-0.392
 7.143 	-0.691 	-0.536
 7.298 	-0.652 	-0.896
 6.633 	-0.229 	-0.243
 6.512 	0.193 	0.541
 6.196 	0.560 	0.532
 5.491 	-1.297 	1.293
 4.987 	-0.559 	1.267
 6.843 	-0.010 	0.281
 6.753 	0.023 	0.051
 6.862 	-0.094 	0.027
 7.021 	-0.363 	-0.376
 6.984 	-0.483 	-0.007
 7.054 	-0.473 	0.126
 7.311 	-0.647 	-0.156
 7.638 	-0.620 	-0.306
 6.997 	-0.808 	-0.463
 6.505 	-0.877 	-0.435
 6.178 	-0.495 	-0.099
 6.394 	0.306 	0.127
 6.604 	0.070 	-0.009
 6.248 	0.015 	0.643
 5.750 	-0.255 	0.535
 6.058 	-0.317 	1.235
 6.260 	-0.259 	0.033
 6.496 	-0.187 	0.041
 6.839 	-0.240 	-0.074
 7.097 	-0.367 	-0.313
 7.450 	-0.357 	-0.563
 7.692 	-0.208 	-0.513
 7.559 	-0.164 	-0.331
 6.871 	-0.280 	-0.083
 6.650 	-0.380 	-0.213
 6.545 	-0.706 	-0.188
 6.726 	-0.747 	0.045
 6.792 	-0.433 	0.059
 6.815 	0.080 	0.429
 6.934 	-0.178 	0.042
 6.631 	-0.246 	0.044
 6.062 	0.437 	1.212
 6.079 	-0.280 	0.553
 6.439 	-0.317 	0.121
 6.360 	-0.543 	-0.315
 6.440 	-0.733 	-0.398
 5.991 	-0.401 	-0.199
 6.007 	0.058 	0.368
 5.989 	0.045 	0.412
 6.045 	-0.151 	0.211
 6.390 	-0.460 	0.004
 6.653 	-0.520 	-0.152
 6.825 	-0.581 	-0.124
 6.867 	-0.465 	-0.091
 6.922 	0.045 	0.082
 7.069 	0.172 	0.314
 6.613 	-0.071 	0.071
 6.701 	-0.040 	-0.005
 7.244 	0.059 	0.078
 7.434 	-0.335 	0.007
 6.993 	-0.679 	-0.267
 5.992 	-0.170 	-0.286
 5.204 	0.198 	0.577
 5.186 	-0.086 	1.041
 5.613 	-0.070 	0.623
 6.136 	0.047 	-0.118
 6.033 	-0.307 	0.093
 5.442 	-0.264 	0.111
 5.458 	-0.724 	0.384
 6.051 	-0.749 	0.167
 5.982 	-0.247 	0.390
 6.377 	0.512 	0.892
 6.458 	-0.219 	1.133
 6.733 	-0.353 	0.854
 7.019 	-0.105 	0.202
 6.432 	-0.223 	0.346
 5.844 	-0.317 	-0.348
 5.266 	0.432 	0.170
 5.453 	0.553 	0.651
 6.089 	0.053 	-0.060
 6.770 	-0.274 	0.023
 6.986 	-0.304 	-0.217
 6.508 	0.154 	0.075
 6.228 	0.157 	0.078
 6.128 	-0.016 	0.144
 5.294 	-0.513 	0.867
 5.503 	-0.788 	1.164
 5.990 	-0.787 	1.057
 6.897 	-0.837 	0.441
 7.575 	-0.909 	0.164
 6.296 	0.094 	0.438
 5.772 	0.304 	0.506
 5.886 	-0.348 	0.068
 5.609 	0.341 	0.298
 6.500 	0.283 	0.111
 6.783 	0.066 	-0.129
 6.923 	0.029 	0.267
 6.750 	-0.427 	-0.091
 6.796 	-0.381 	-0.332
 7.306 	0.101 	-0.147
 7.561 	0.328 	-0.158
 7.561 	-0.113 	-0.077
 7.632 	-0.326 	0.133
 7.607 	-0.357 	-0.071
 7.771 	-0.706 	-0.199
 7.890 	-1.120 	-0.308
 6.262 	0.041 	-0.257
 6.966 	0.123 	-0.421
 6.971 	0.249 	-0.275
 6.699 	0.437 	-0.138
 6.923 	0.397 	-0.091
 6.656 	-0.104 	0.251
 6.398 	-0.133 	0.477
 6.245 	-0.382 	0.218
 6.372 	-0.564 	-0.274
 6.499 	-0.454 	-0.594
 6.933 	-0.245 	-0.482
 7.448 	-0.101 	-0.181
 7.777 	-0.246 	-0.313
 7.689 	-0.530 	-0.325
 7.768 	-0.775 	-0.527
 7.871 	-1.012 	-0.559
 5.511 	-0.427 	-0.577
 5.804 	-0.294 	-0.542
 6.210 	-0.008 	-0.432
 6.609 	0.245 	-0.222
 6.275 	0.344 	0.245
 6.134 	-0.165 	0.652
 6.092 	-0.251 	0.557
 6.192 	-0.316 	0.339
 6.378 	-0.432 	-0.090
 6.327 	-0.775 	-0.481
 6.801 	-0.387 	-0.398
 7.369 	-0.032 	-0.776
 7.637 	0.047 	-0.796
 7.686 	0.080 	-0.863
 7.977 	0.108 	-0.907
 7.974 	-0.218 	-0.558
 5.431 	-0.210 	0.334
 5.580 	0.265 	0.836
 6.028 	1.376 	1.092
 6.328 	1.260 	0.927
 5.953 	1.552 	0.641
 5.669 	1.593 	0.647
 5.791 	1.086 	0.348
 5.650 	0.633 	0.237
 5.774 	0.298 	0.258
 6.043 	0.226 	0.304
 6.223 	0.043 	0.199
 6.599 	-0.153 	0.174
 6.866 	0.359 	0.328
 6.822 	0.587 	0.311
 6.878 	0.079 	-0.192
 6.978 	-0.153 	-0.347
 5.577 	0.237 	0.145
 4.776 	0.122 	0.573
 5.322 	0.586 	0.516
 5.497 	1.241 	0.548
 5.545 	1.475 	0.734
 5.418 	1.106 	0.445
 5.256 	0.799 	0.606
 5.147 	0.305 	0.807
 5.352 	-0.215 	0.952
 6.006 	-0.575 	0.622
 6.409 	-0.677 	0.386
 6.725 	-0.130 	0.125
 6.503 	0.175 	0.117
 6.657 	0.548 	0.342
 6.637 	-0.077 	0.540
 6.718 	-0.466 	0.219
 5.819 	0.731 	0.167
 5.915 	0.112 	0.128
 5.842 	0.193 	0.161
 5.539 	0.497 	0.545
 5.288 	1.069 	0.586
 5.466 	1.161 	0.678
 5.555 	0.947 	0.421
 5.501 	0.755 	0.140
 5.694 	-0.023 	0.284
 6.326 	-0.567 	0.649
 6.766 	-0.921 	0.450
 6.664 	-0.225 	0.693
 6.796 	0.499 	0.239
 6.525 	0.497 	0.284
 6.416 	-0.272 	0.129
 6.479 	-0.523 	0.320
 6.906 	0.564 	0.080
 7.069 	0.482 	-0.021
 6.692 	0.557 	-0.017
 6.221 	0.626 	0.201
 6.296 	0.865 	0.145
 6.145 	1.240 	0.104
 5.805 	0.979 	-0.275
 5.938 	0.506 	-0.123
 6.482 	-0.316 	0.117
 6.575 	-0.763 	0.334
 6.797 	-0.771 	0.288
 6.137 	0.193 	0.748
 6.282 	0.247 	0.268
 6.756 	0.084 	-0.266
 6.483 	-0.019 	-0.171
 6.254 	-0.392 	0.590
 6.852 	0.164 	-0.134
 6.888 	0.224 	0.107
 7.227 	0.699 	0.030
 7.202 	0.955 	-0.148
 6.622 	1.070 	-0.115
 6.285 	1.143 	-0.276
 6.428 	0.828 	-0.125
 6.623 	0.069 	-0.045
 6.551 	-0.272 	0.158
 6.608 	-0.655 	0.518
 6.573 	-0.982 	0.469
 6.809 	-0.328 	0.600
 7.328 	-0.504 	0.242
 6.983 	-0.365 	-0.158
 6.854 	0.028 	-0.206
 6.790 	-0.387 	0.006
 7.161 	0.202 	-0.011
 6.860 	0.233 	0.075
 6.748 	0.614 	0.170
 6.780 	0.936 	0.060
 6.775 	1.024 	-0.014
 6.792 	1.061 	0.045
 6.995 	0.572 	-0.095
 7.008 	0.117 	-0.273
 7.032 	-0.237 	-0.025
 7.106 	-0.481 	0.053
 7.157 	-0.592 	-0.187
 7.166 	-0.759 	-0.160
 7.451 	-0.653 	-0.137
 7.514 	-0.363 	-0.152
 7.368 	-0.192 	-0.184
 7.670 	-0.634 	-0.109
 7.101 	0.396 	-0.102
 6.828 	0.507 	0.083
 6.532 	0.661 	0.150
 6.541 	0.924 	-0.020
 6.636 	1.083 	-0.223
 6.890 	1.005 	-0.296
 7.233 	0.637 	-0.175
 7.295 	0.300 	0.026
 7.367 	-0.037 	-0.211
 7.314 	-0.078 	-0.465
 7.182 	-0.473 	-0.434
 7.143 	-0.639 	-0.218
 6.802 	-0.634 	-0.153
 6.504 	-0.795 	0.671
 6.456 	-0.343 	0.962
 6.268 	-0.260 	1.453
 6.394 	0.119 	0.400
 6.690 	0.546 	0.170
 6.682 	0.623 	0.103
 6.560 	0.804 	-0.018
 6.724 	0.680 	-0.012
 7.026 	0.249 	-0.087
 7.266 	-0.025 	-0.067
 7.447 	0.064 	0.054
 7.409 	-0.131 	0.046
 7.339 	-0.202 	-0.219
 7.029 	-0.375 	-0.176
 6.828 	-0.681 	0.051
 6.067 	-0.487 	0.357
 6.056 	-0.060 	0.779
 5.581 	-0.760 	1.144
 6.119 	-1.111 	1.055
 6.923 	-0.037 	0.527
 6.673 	-0.075 	0.314
 6.865 	0.173 	0.080
 6.962 	0.349 	-0.079
 7.024 	0.199 	-0.145
 7.427 	-0.191 	-0.261
 7.552 	-0.529 	-0.317
 7.509 	-0.545 	-0.299
 7.574 	-0.487 	-0.032
 7.351 	-0.153 	-0.273
 7.527 	-0.604 	0.131
 7.019 	-0.786 	0.453
 6.613 	-0.670 	0.701
 6.623 	-0.302 	0.945
 6.631 	-0.147 	0.656
 7.126 	-0.806 	0.158
 6.675 	-0.352 	0.241
 6.881 	-0.222 	0.273
 7.024 	-0.228 	0.085
 7.329 	-0.361 	-0.102
 7.554 	-0.529 	-0.127
 7.581 	-0.598 	-0.194
 7.260 	-0.701 	-0.366
 7.181 	-0.641 	-0.279
 7.307 	-0.475 	-0.272
 7.624 	-0.057 	-0.449
 7.800 	-0.256 	-0.148
 7.702 	-0.609 	0.229
 7.609 	-0.656 	0.475
 7.349 	-0.680 	0.368
 7.175 	-0.766 	0.484
 7.251 	-0.980 	0.528
 7.256 	-0.639 	0.342
 7.505 	-0.490 	0.033
 7.441 	-0.544 	-0.091
 7.130 	-0.930 	0.034
 7.080 	-0.514 	0.072
 6.629 	-0.539 	0.223
 6.710 	-0.546 	0.099
 6.964 	-0.482 	-0.121
 7.103 	-0.437 	-0.122
 7.174 	-0.308 	-0.001
 7.481 	-0.269 	0.153
 7.678 	-0.384 	0.224
 7.532 	-0.530 	0.278
 7.053 	-0.707 	0.259
 7.032 	-0.805 	0.275
 7.256 	-1.023 	0.174
 7.281 	-0.547 	-0.284
 7.450 	-0.518 	-0.205
 7.376 	-0.507 	0.015
 7.087 	-0.562 	0.104
 6.437 	-0.441 	0.472
 6.320 	-0.232 	0.589
 6.879 	-0.711 	0.274
 6.999 	-0.907 	0.037
 7.195 	-0.471 	0.041
 7.305 	-0.296 	-0.184
 7.122 	-0.139 	0.365
 6.808 	-0.466 	0.503
 6.475 	-0.924 	0.625
 6.363 	-0.947 	0.661
 6.659 	-0.830 	0.581
 7.083 	-0.920 	0.352
 6.959 	-0.204 	0.379
 6.847 	-0.208 	0.402
 6.663 	-0.293 	0.232
 6.507 	-0.319 	0.324
 6.662 	-0.332 	0.276
 6.899 	-0.687 	0.140
 6.700 	-0.869 	-0.014
 6.609 	-0.904 	0.005
 6.734 	-0.753 	0.127
 6.991 	-0.465 	0.123
 7.303 	-0.007 	0.109
 7.409 	0.121 	0.340
 7.188 	-0.144 	0.601
 7.341 	-0.465 	0.379
 7.659 	-0.655 	0.153
 7.724 	-0.690 	-0.225
 6.659 	0.056 	0.492
 6.857 	0.115 	0.244
 6.568 	-0.056 	0.155
 6.641 	-0.305 	0.277
 6.696 	-0.576 	0.049
 6.385 	-0.765 	-0.118
 6.192 	-1.137 	0.043
 6.283 	-1.044 	-0.099
 6.548 	-0.887 	-0.335
 6.772 	-0.696 	-0.162
 7.047 	-0.406 	0.067
 7.574 	-0.199 	0.188
 8.125 	-0.282 	-0.065
 8.024 	-0.374 	-0.582
 7.721 	-0.380 	-0.857
 7.912 	-0.431 	-0.633
 5.934 	-0.117 	-0.132
 6.171 	-0.057 	-0.126
 6.319 	-0.138 	0.029
 6.562 	-0.479 	-0.035
 6.450 	-0.729 	0.004
 6.212 	-0.401 	0.419
 6.233 	-0.860 	0.524
 6.438 	-1.332 	0.049
 6.745 	-1.259 	-0.271
 6.819 	-1.362 	-0.591
 7.242 	-0.853 	-0.543
 7.762 	-0.250 	-0.631
 7.981 	0.026 	-0.663
 7.913 	0.137 	-0.821
 7.794 	-0.061 	-0.831
 7.426 	-0.152 	-0.954
 6.540 	-0.304 	-0.487
 6.305 	-0.214 	-0.427
 6.477 	-0.848 	0.062
 5.994 	-0.814 	0.178
 5.793 	-0.647 	0.624
 6.077 	-0.477 	0.886
 6.397 	-0.873 	0.547
 6.688 	-1.405 	0.204
 7.023 	-1.248 	-0.267
 7.265 	-0.967 	-0.693
 6.946 	-1.407 	-0.634
 7.268 	-0.836 	-0.755
 7.771 	-0.049 	-1.036
 8.133 	0.124 	-1.100
 7.806 	0.258 	-1.231
 7.929 	-0.273 	-0.781
 6.217 	0.281 	0.278
 5.644 	0.040 	0.717
 5.624 	0.670 	1.039
 5.821 	1.235 	0.959
 5.848 	1.277 	0.608
 6.062 	1.317 	0.423
 6.253 	1.202 	0.310
 6.464 	0.859 	0.251
 6.361 	0.651 	0.204
 6.246 	0.505 	0.178
 6.379 	0.495 	0.183
 6.570 	0.411 	0.213
 6.776 	0.287 	0.368
 6.913 	0.186 	0.272
 6.852 	0.019 	0.022
 6.952 	-0.245 	0.007
 5.560 	0.612 	0.273
 5.080 	0.446 	0.282
 5.163 	0.446 	0.722
 5.423 	0.998 	1.200
 5.659 	1.216 	0.974
 5.969 	1.178 	0.626
 5.809 	1.319 	0.656
 5.627 	1.148 	0.607
 5.634 	0.995 	0.565
 5.963 	0.712 	0.454
 6.116 	0.273 	0.196
 6.597 	-0.025 	0.090
 6.782 	0.068 	0.294
 6.899 	-0.039 	0.323
 7.022 	-0.051 	0.489
 6.976 	-0.367 	0.251
 6.492 	1.157 	0.194
 6.110 	0.597 	0.019
 5.972 	0.324 	0.297
 5.906 	0.592 	0.471
 6.032 	0.849 	0.521
 5.767 	1.311 	0.618
 5.587 	1.455 	0.636
 5.581 	1.104 	0.351
 5.704 	1.165 	0.038
 5.940 	0.598 	0.298
 6.503 	-0.285 	0.828
 6.750 	-0.695 	0.808
 6.871 	-0.517 	0.395
 7.064 	-0.040 	0.272
 7.151 	0.051 	0.220
 7.291 	-0.240 	0.259
 6.816 	0.532 	0.282
 7.067 	0.561 	0.023
 7.006 	0.641 	0.212
 6.536 	0.622 	0.360
 6.317 	0.976 	0.122
 6.147 	1.472 	0.200
 5.996 	1.240 	0.030
 5.901 	1.032 	-0.076
 6.148 	0.830 	0.152
 6.522 	0.274 	0.241
 6.727 	-0.409 	0.208
 6.971 	-0.589 	0.587
 7.118 	-0.551 	0.483
 7.262 	-0.376 	0.203
 6.951 	-0.289 	0.213
 6.744 	-0.194 	0.305
 6.726 	0.245 	0.178
 6.697 	0.328 	0.118
 7.018 	0.604 	0.082
 7.231 	1.019 	0.023
 7.019 	1.019 	0.072
 6.781 	1.100 	-0.029
 6.574 	0.965 	-0.023
 6.570 	0.822 	0.029
 6.603 	0.562 	0.002
 6.914 	0.101 	0.148
 6.728 	-0.111 	0.501
 6.819 	-0.469 	0.655