# vtk DataFile Version 3.0
HighT1
ASCII
DATASET STRUCTURED_POINTS
DIMENSIONS 16 16 19
ORIGIN 929.001000000000 929.001000000000 5.001000000000
SPACING 10.000000000000 10.000000000000 10.000000000000
POINT_DATA 4864
FIELD attributes 1
U 3 4864 float
2.717 	0.340 	0.694
 2.162 	0.227 	0.530
 2.538 	0.511 	0.177
 2.816 	-0.412 	0.090
 3.660 	0.224 	0.080
 4.954 	1.186 	-0.465
 4.383 	1.780 	0.374
 4.834 	1.240 	-0.267
 5.063 	0.322 	0.039
 5.427 	-0.290 	-0.455
 3.836 	-0.045 	0.567
 3.347 	-0.537 	0.178
 3.614 	-0.525 	0.307
 4.107 	-0.717 	0.018
 4.967 	-0.018 	-0.657
 5.221 	0.776 	-0.574
 3.131 	0.648 	-0.287
 3.738 	-0.118 	-0.359
 4.293 	0.057 	-0.098
 4.017 	-1.150 	-0.145
 3.619 	-0.210 	-0.058
 3.197 	1.248 	-0.097
 3.288 	0.984 	0.293
 3.958 	1.597 	0.050
 4.663 	0.837 	-0.272
 5.149 	-0.050 	-0.626
 4.888 	0.101 	-0.279
 5.213 	0.570 	-0.264
 3.894 	-0.137 	-0.213
 4.311 	0.237 	-0.271
 3.977 	-0.021 	0.109
 3.506 	0.362 	0.365
 3.747 	0.546 	-0.006
 3.082 	0.291 	0.233
 2.900 	-0.295 	0.235
 3.461 	0.536 	-0.049
 2.648 	0.117 	0.558
 3.095 	0.429 	0.463
 3.937 	1.032 	0.092
 4.106 	0.546 	-0.241
 4.182 	0.343 	-0.392
 3.894 	0.353 	0.031
 3.296 	-0.232 	0.613
 3.419 	-0.249 	0.348
 3.767 	0.644 	0.249
 4.044 	0.712 	0.305
 3.858 	0.834 	0.015
 3.141 	-0.171 	0.273
 4.064 	0.661 	-0.149
 4.531 	-0.219 	-0.236
 3.756 	-0.373 	-0.053
 3.508 	0.386 	0.032
 3.189 	0.137 	0.088
 3.468 	0.115 	0.087
 2.718 	0.379 	0.044
 3.014 	0.717 	0.036
 2.303 	0.276 	0.415
 2.920 	0.441 	0.290
 3.224 	-0.554 	0.592
 2.999 	-0.743 	-0.241
 3.854 	0.752 	0.245
 3.707 	-0.109 	0.167
 3.589 	1.157 	-0.080
 3.301 	-0.723 	0.026
 3.409 	0.320 	0.110
 2.752 	0.191 	0.473
 2.990 	0.258 	0.030
 3.183 	0.035 	-0.047
 3.254 	0.261 	0.067
 2.429 	-0.494 	0.335
 2.767 	-0.364 	0.375
 3.023 	-0.223 	-0.243
 2.958 	0.337 	0.298
 3.073 	-0.128 	0.156
 3.205 	-0.755 	-0.381
 3.489 	-0.447 	-0.247
 3.116 	0.185 	-0.053
 3.258 	-0.142 	0.072
 3.171 	0.339 	-0.196
 3.885 	-0.101 	0.017
 3.630 	-0.025 	-0.010
 3.786 	-0.367 	-0.056
 4.131 	-0.247 	0.232
 4.292 	0.234 	-0.173
 4.166 	0.113 	-0.242
 4.520 	-0.471 	-0.192
 4.158 	-0.554 	0.079
 3.337 	-0.557 	0.367
 4.008 	0.401 	-0.219
 3.882 	0.213 	0.247
 3.709 	-0.036 	-0.161
 3.543 	-0.799 	0.139
 2.954 	-0.333 	0.433
 3.415 	-0.742 	0.196
 3.974 	0.036 	0.130
 4.276 	-0.353 	0.258
 4.756 	0.568 	-0.089
 4.478 	-0.160 	-0.206
 4.401 	-0.006 	-0.046
 4.128 	-0.098 	0.194
 4.503 	-0.261 	0.027
 4.763 	-0.286 	-0.220
 4.343 	-0.009 	0.223
 3.955 	-0.150 	0.336
 3.956 	0.008 	0.041
 3.573 	0.174 	0.127
 3.552 	0.061 	0.047
 3.922 	0.085 	-0.179
 4.102 	-0.282 	-0.187
 3.810 	-0.909 	-0.102
 4.227 	-0.358 	-0.315
 4.113 	-0.417 	0.141
 4.520 	0.508 	0.003
 4.686 	0.282 	-0.265
 3.617 	0.339 	0.375
 3.278 	-0.615 	0.074
 3.840 	-0.213 	-0.252
 4.275 	0.563 	-0.453
 3.679 	0.480 	0.040
 2.865 	0.631 	0.101
 2.907 	0.013 	-0.100
 3.579 	-0.037 	-0.338
 3.647 	-0.265 	-0.134
 4.203 	-0.073 	-0.498
 4.397 	-0.078 	-0.372
 4.455 	-0.220 	0.009
 4.211 	-0.648 	0.060
 4.562 	0.180 	-0.875
 3.693 	0.469 	0.597
 3.918 	0.811 	-0.090
 4.497 	-0.059 	-0.169
 4.881 	0.003 	-0.087
 2.777 	-0.051 	0.263
 2.320 	0.897 	0.359
 3.431 	0.918 	-0.194
 3.960 	0.855 	-0.266
 4.284 	0.304 	-0.263
 4.367 	-0.210 	-0.280
 3.897 	-0.112 	0.149
 3.991 	-0.111 	0.125
 4.252 	-0.453 	0.037
 4.083 	-0.202 	-0.012
 4.131 	0.050 	0.044
 4.377 	-0.011 	-0.233
 3.699 	0.251 	0.156
 4.089 	0.381 	-0.375
 4.090 	-0.093 	-0.289
 4.368 	0.575 	0.297
 4.479 	0.921 	0.041
 3.906 	0.693 	-0.047
 3.660 	0.686 	-0.106
 3.921 	1.077 	-0.005
 4.386 	0.928 	-0.098
 4.696 	0.235 	-0.162
 4.423 	-0.271 	-0.160
 3.813 	-0.220 	-0.119
 3.557 	-0.842 	0.454
 3.536 	0.390 	0.127
 3.598 	0.046 	-0.124
 3.608 	0.013 	0.107
 3.769 	-0.517 	-0.054
 2.902 	-0.135 	0.323
 3.292 	-0.223 	0.001
 3.505 	0.171 	0.032
 4.038 	0.877 	0.108
 4.284 	0.569 	-0.075
 4.201 	0.529 	-0.046
 4.121 	0.534 	-0.062
 4.389 	0.839 	-0.055
 4.025 	0.483 	-0.459
 3.779 	0.178 	-0.240
 4.022 	0.375 	0.048
 4.127 	0.233 	-0.293
 3.171 	-0.115 	-0.000
 3.175 	-0.094 	-0.066
 3.662 	-0.269 	-0.047
 3.006 	-0.413 	0.222
 3.348 	0.268 	0.065
 2.732 	-0.533 	-0.020
 3.243 	0.131 	-0.153
 3.068 	0.591 	0.256
 2.647 	-0.209 	0.178
 2.717 	-0.003 	0.234
 2.901 	-0.227 	0.233
 3.130 	0.280 	-0.034
 3.253 	0.538 	0.124
 3.234 	0.318 	-0.024
 2.826 	0.303 	0.444
 3.171 	0.018 	0.328
 3.628 	0.068 	-0.018
 4.089 	-0.182 	-0.103
 4.102 	0.224 	-0.236
 3.993 	-0.670 	-0.313
 3.642 	-0.174 	0.361
 3.291 	-0.445 	0.329
 2.972 	-0.173 	0.273
 2.981 	0.347 	0.370
 3.753 	-0.780 	0.036
 4.002 	-0.415 	0.049
 2.844 	-0.636 	0.176
 2.447 	0.174 	0.178
 1.983 	-0.045 	0.499
 2.593 	0.692 	0.351
 3.356 	-0.286 	0.164
 3.649 	-0.484 	-0.264
 3.727 	-0.369 	-0.120
 3.282 	-0.091 	0.352
 3.402 	0.142 	0.095
 4.310 	-0.469 	-0.391
 3.859 	-0.612 	-0.031
 4.078 	-0.163 	-0.008
 3.830 	0.300 	-0.191
 3.928 	0.086 	-0.148
 4.100 	0.093 	0.175
 2.704 	-0.755 	0.150
 3.152 	-0.591 	-0.057
 3.582 	-0.168 	-0.323
 3.744 	0.045 	0.009
 3.772 	0.336 	-0.277
 4.199 	-0.069 	-0.355
 4.057 	0.161 	-0.281
 4.192 	0.066 	0.152
 4.016 	-0.434 	0.091
 4.386 	-0.606 	0.067
 4.663 	0.534 	-0.052
 3.474 	-0.261 	0.310
 2.693 	-0.180 	0.136
 3.254 	-0.097 	-0.105
 3.304 	0.170 	0.057
 3.783 	0.205 	-0.131
 4.031 	-0.375 	-0.200
 3.837 	-0.286 	0.186
 3.358 	-0.167 	-0.054
 3.201 	-0.112 	0.053
 3.489 	0.251 	-0.114
 3.581 	0.293 	-0.070
 3.955 	0.375 	-0.008
 4.035 	0.313 	-0.170
 3.382 	-0.452 	-0.072
 2.975 	-0.326 	0.384
 3.375 	-0.031 	-0.080
 3.257 	0.190 	0.051
 3.662 	-0.718 	0.036
 2.934 	-0.451 	0.306
 3.025 	-0.151 	0.095
 3.433 	0.279 	-0.297
 3.294 	-0.075 	0.112
 2.969 	-0.226 	0.148
 2.937 	0.127 	0.010
 2.405 	0.362 	0.354
 2.690 	-0.143 	-0.221
 2.836 	0.121 	0.092
 3.044 	0.145 	0.088
 3.096 	0.157 	0.175
 3.015 	0.006 	0.035
 2.820 	-0.173 	-0.076
 5.458 	1.204 	0.549
 4.890 	0.105 	0.419
 4.757 	0.248 	0.065
 4.287 	0.022 	0.717
 4.781 	-0.536 	0.259
 5.255 	0.429 	0.284
 5.605 	0.907 	0.263
 4.968 	1.054 	0.548
 5.743 	1.828 	-0.239
 6.382 	1.151 	-0.214
 5.438 	0.322 	-0.016
 5.613 	0.286 	0.196
 6.022 	-0.104 	-0.433
 6.631 	-0.309 	-0.192
 5.769 	-0.616 	-0.006
 6.274 	-0.583 	-0.990
 6.020 	0.565 	-0.101
 6.619 	0.205 	-0.253
 6.840 	0.571 	-0.697
 5.760 	0.777 	-0.444
 5.215 	-0.225 	-0.345
 5.267 	0.264 	-0.011
 4.709 	0.578 	0.360
 5.499 	0.169 	-0.020
 5.243 	1.011 	0.385
 5.797 	1.463 	0.181
 5.652 	0.493 	-0.274
 5.702 	0.294 	-0.066
 5.978 	0.557 	-0.433
 5.081 	-0.388 	-0.124
 4.886 	-0.433 	-0.836
 5.556 	-0.440 	-0.847
 4.762 	0.342 	0.599
 4.343 	0.181 	0.613
 4.776 	0.753 	-0.168
 5.466 	0.654 	-0.328
 5.699 	0.413 	-0.124
 4.949 	-0.532 	0.351
 5.527 	0.570 	-0.166
 5.773 	0.750 	-0.205
 5.588 	0.541 	-0.450
 5.090 	0.516 	-0.185
 5.787 	0.539 	-0.165
 5.144 	0.829 	0.255
 4.334 	-0.153 	0.025
 4.325 	0.269 	-0.020
 4.615 	-0.194 	0.107
 5.301 	-0.178 	0.578
 4.814 	0.272 	0.608
 4.097 	0.096 	0.545
 3.882 	0.287 	0.105
 4.422 	0.043 	-0.010
 4.767 	0.404 	0.154
 4.990 	0.031 	0.111
 4.444 	0.661 	-0.120
 4.104 	0.221 	0.301
 3.214 	0.370 	0.968
 3.409 	0.812 	0.771
 4.064 	0.421 	0.381
 4.401 	0.502 	-0.345
 3.924 	0.291 	0.176
 3.776 	-0.400 	0.265
 4.468 	-0.193 	-0.255
 4.604 	-0.016 	0.097
 5.178 	-0.316 	0.168
 5.076 	-0.102 	0.102
 3.886 	0.293 	0.309
 3.867 	0.163 	0.285
 3.926 	0.362 	0.263
 3.379 	0.198 	0.387
 3.819 	-0.023 	0.503
 4.352 	0.107 	0.174
 4.311 	0.293 	-0.144
 4.415 	0.529 	0.029
 4.334 	0.121 	-0.058
 4.246 	0.226 	0.290
 4.670 	0.126 	-0.056
 4.471 	-0.522 	-0.031
 4.262 	0.264 	-0.041
 4.551 	0.729 	0.241
 5.304 	-0.074 	0.252
 5.597 	-0.620 	0.306
 5.310 	-0.162 	-0.013
 5.563 	0.114 	0.095
 5.765 	0.123 	-0.004
 4.934 	-0.153 	-0.181
 4.415 	-0.611 	0.288
 4.863 	-0.321 	0.519
 4.464 	0.532 	0.369
 4.902 	0.500 	-0.086
 4.860 	0.508 	-0.337
 4.452 	-0.018 	0.250
 4.193 	0.161 	0.261
 4.558 	-0.647 	0.256
 4.214 	-0.092 	0.400
 4.408 	0.115 	0.654
 5.560 	-0.203 	-0.077
 5.466 	-0.426 	-0.177
 5.344 	-0.281 	-0.840
 5.828 	-0.105 	0.015
 6.043 	-0.089 	-0.342
 5.951 	0.109 	-0.517
 5.362 	-0.033 	0.202
 5.106 	-0.003 	0.333
 4.757 	0.219 	0.260
 4.329 	0.043 	0.457
 5.065 	0.313 	-0.015
 5.246 	0.822 	-0.560
 5.405 	0.245 	-0.334
 4.927 	-0.515 	-0.166
 5.082 	-0.022 	-0.260
 5.101 	-0.125 	0.003
 4.767 	-0.319 	-0.172
 5.147 	-0.164 	-0.612
 5.082 	-0.095 	-0.483
 5.243 	-0.267 	-0.338
 5.514 	0.083 	-0.494
 5.551 	0.668 	-0.035
 5.482 	0.308 	-0.126
 5.159 	0.291 	-0.292
 5.236 	0.245 	-0.070
 5.232 	0.540 	-0.133
 4.685 	-0.120 	0.088
 4.499 	0.483 	0.015
 4.447 	0.177 	-0.215
 4.830 	-0.349 	-0.144
 4.727 	-0.192 	-0.098
 4.987 	-0.079 	-0.352
 3.830 	-1.142 	0.030
 3.700 	-0.222 	0.371
 4.606 	-0.478 	0.196
 4.786 	-0.279 	0.067
 5.243 	0.094 	0.140
 5.110 	0.110 	-0.076
 4.779 	0.377 	-0.488
 4.738 	-0.203 	-0.450
 4.927 	-0.253 	-0.701
 4.814 	0.584 	-0.075
 4.375 	0.342 	0.420
 4.354 	-0.079 	0.486
 4.623 	-0.133 	0.129
 4.451 	-0.927 	0.086
 5.074 	-0.868 	-0.496
 5.301 	-0.263 	-0.443
 3.918 	-0.889 	0.369
 3.534 	-0.742 	0.289
 4.080 	-1.209 	0.053
 3.803 	-0.544 	0.048
 4.172 	0.144 	-0.208
 4.250 	0.264 	-0.096
 4.640 	0.060 	0.163
 4.252 	0.145 	0.281
 4.414 	0.217 	-0.602
 4.687 	0.523 	-0.542
 4.955 	0.528 	-0.491
 5.079 	0.207 	-0.256
 4.429 	-0.323 	0.049
 4.776 	-0.426 	-0.136
 4.689 	-0.549 	-0.289
 4.333 	-0.041 	0.364
 4.529 	-0.171 	0.352
 4.274 	-0.112 	-0.346
 4.114 	-0.887 	-0.085
 4.455 	-0.733 	-0.296
 4.001 	0.223 	0.024
 4.001 	-0.228 	0.711
 4.094 	-0.309 	0.374
 4.323 	-0.129 	0.625
 3.836 	0.412 	-0.066
 4.184 	0.349 	-0.038
 4.256 	0.448 	0.283
 4.907 	0.761 	-0.330
 4.695 	-0.211 	-0.402
 5.043 	0.410 	-0.854
 4.666 	-0.263 	-0.011
 4.915 	0.386 	-0.084
 3.758 	-0.424 	0.468
 4.397 	-0.356 	0.125
 4.086 	-0.804 	0.172
 3.682 	-0.774 	0.241
 4.011 	0.434 	-0.025
 3.081 	0.092 	0.612
 2.974 	-0.468 	-0.032
 3.466 	-0.366 	0.434
 3.050 	-0.171 	0.615
 3.351 	0.451 	0.604
 4.105 	0.883 	-0.405
 4.087 	0.325 	-0.600
 4.448 	0.090 	-0.232
 4.473 	0.628 	0.102
 4.515 	0.099 	0.109
 4.664 	0.007 	0.028
 5.406 	0.710 	-0.392
 5.132 	-0.578 	0.068
 5.170 	-0.904 	0.167
 4.265 	-0.164 	-0.134
 3.543 	0.662 	0.500
 3.599 	0.178 	0.299
 3.651 	0.149 	0.033
 3.735 	-0.133 	0.263
 3.107 	0.019 	0.332
 3.299 	0.151 	0.369
 3.830 	0.368 	-0.241
 3.985 	0.967 	0.070
 4.214 	1.028 	-0.472
 4.471 	0.685 	-0.558
 4.782 	0.264 	-0.502
 4.643 	-0.425 	0.204
 5.299 	0.395 	-0.113
 4.636 	-0.139 	0.363
 4.106 	-0.072 	0.220
 4.101 	-0.399 	-0.140
 4.290 	-0.019 	-0.111
 4.300 	-0.013 	-0.151
 4.371 	-0.200 	-0.123
 4.541 	-0.052 	0.242
 3.783 	-0.262 	0.249
 3.810 	-0.464 	0.465
 4.135 	0.216 	-0.397
 4.094 	0.801 	-0.286
 4.153 	0.788 	-0.334
 4.582 	0.636 	-0.360
 4.774 	0.525 	-0.192
 4.577 	0.131 	0.041
 4.676 	0.362 	0.425
 4.606 	0.220 	-0.004
 4.080 	0.062 	0.388
 4.440 	-0.106 	-0.015
 4.359 	-0.383 	-0.018
 4.050 	-0.325 	-0.052
 4.230 	0.072 	-0.165
 4.110 	-0.150 	-0.040
 3.845 	-0.410 	0.128
 3.640 	-0.641 	0.174
 3.419 	-0.381 	-0.013
 3.887 	0.224 	0.225
 4.100 	0.164 	0.299
 4.550 	0.397 	0.100
 4.763 	0.549 	-0.161
 4.171 	-0.571 	0.227
 3.950 	0.012 	0.802
 4.398 	-0.070 	0.194
 4.090 	-0.265 	0.002
 4.264 	-0.371 	0.007
 4.306 	-0.653 	0.127
 4.312 	-0.083 	-0.321
 4.092 	-0.124 	-0.231
 3.535 	-0.053 	0.139
 3.510 	-0.505 	0.161
 3.388 	-0.716 	0.247
 3.645 	-0.810 	0.370
 3.566 	-0.997 	0.195
 3.911 	-0.983 	-0.084
 4.066 	0.032 	-0.315
 4.444 	0.715 	-0.580
 4.642 	0.544 	0.060
 5.653 	-0.105 	0.208
 5.466 	1.086 	0.519
 5.847 	0.965 	-0.008
 6.676 	0.176 	0.486
 7.097 	-0.202 	-0.467
 6.233 	-0.373 	0.250
 5.956 	0.120 	0.649
 6.674 	0.687 	0.157
 6.657 	1.764 	0.663
 7.093 	0.781 	0.305
 6.192 	1.104 	0.007
 5.687 	1.469 	0.181
 6.042 	1.841 	-0.972
 6.360 	1.123 	-0.788
 6.397 	0.478 	-0.182
 6.436 	0.560 	-0.554
 6.800 	0.953 	0.059
 7.090 	0.567 	-0.250
 6.949 	1.006 	-0.349
 7.308 	0.282 	-0.831
 6.884 	0.455 	-0.621
 6.951 	0.869 	0.326
 7.500 	0.374 	0.285
 6.693 	0.679 	0.766
 6.306 	1.133 	1.012
 6.599 	1.270 	0.118
 5.658 	0.747 	0.475
 6.595 	1.023 	0.202
 6.329 	1.200 	-0.149
 6.607 	0.874 	0.087
 6.315 	0.466 	-0.339
 5.899 	-0.095 	-0.454
 6.692 	0.580 	0.211
 7.354 	0.665 	-0.039
 7.233 	1.072 	-0.250
 7.031 	1.026 	0.006
 5.745 	-0.207 	0.457
 6.184 	0.514 	0.933
 5.743 	0.566 	0.405
 5.030 	-0.696 	0.921
 5.197 	0.137 	-0.089
 5.926 	1.311 	0.035
 6.155 	0.954 	-0.177
 5.558 	1.054 	0.992
 5.062 	0.630 	0.340
 5.349 	0.519 	-0.194
 4.448 	0.176 	-0.283
 4.555 	-0.050 	-0.226
 5.184 	0.192 	0.545
 5.949 	0.853 	0.925
 6.105 	0.999 	0.277
 5.904 	1.392 	-0.042
 5.435 	0.560 	0.949
 4.911 	0.282 	0.890
 4.807 	-0.617 	0.291
 4.791 	-0.312 	0.493
 4.062 	0.065 	0.480
 3.683 	-0.036 	1.229
 4.671 	0.268 	0.098
 5.047 	0.889 	-0.322
 5.329 	0.673 	0.409
 5.166 	0.563 	-0.322
 5.361 	1.061 	-0.542
 5.508 	0.290 	-0.565
 5.968 	-0.147 	0.440
 5.965 	0.164 	0.637
 5.307 	0.704 	-0.281
 5.734 	1.407 	0.682
 5.441 	0.677 	1.241
 5.363 	0.015 	0.522
 4.815 	-0.492 	0.316
 4.720 	-0.135 	0.368
 4.422 	-0.008 	0.527
 4.961 	0.075 	0.544
 4.277 	0.009 	0.572
 4.140 	0.240 	0.762
 4.412 	0.602 	0.845
 4.310 	0.588 	0.517
 4.704 	0.446 	0.099
 5.271 	0.377 	-0.237
 5.962 	-0.197 	0.591
 5.919 	0.479 	0.784
 5.351 	1.122 	0.327
 5.354 	0.394 	0.267
 5.579 	0.222 	0.638
 5.815 	-0.023 	0.250
 5.333 	-0.012 	0.413
 5.437 	-0.207 	0.336
 5.525 	-0.421 	0.103
 5.892 	-0.366 	-0.256
 5.904 	-0.073 	-0.501
 5.098 	0.004 	0.257
 4.486 	0.671 	0.089
 4.720 	0.769 	0.012
 3.974 	-0.032 	0.581
 4.519 	-0.242 	0.596
 6.124 	0.338 	0.340
 5.261 	0.800 	0.320
 5.361 	0.117 	-0.047
 5.993 	-0.016 	-0.005
 6.224 	-0.048 	-0.421
 5.681 	0.186 	-0.044
 5.422 	0.138 	0.300
 5.187 	-0.241 	0.735
 5.711 	-0.087 	-0.251
 5.443 	-0.246 	0.217
 5.454 	-0.220 	-0.115
 5.571 	0.037 	-0.303
 5.875 	0.404 	-0.003
 5.308 	0.694 	-0.286
 4.972 	0.491 	-0.661
 5.022 	0.482 	-0.695
 5.225 	0.366 	0.250
 5.133 	0.011 	0.057
 4.685 	-1.069 	0.238
 5.136 	-0.663 	-0.075
 5.395 	-0.335 	-0.337
 5.378 	0.004 	-0.020
 5.555 	0.240 	0.115
 5.755 	0.100 	-0.028
 5.629 	0.118 	-0.442
 5.071 	0.142 	0.417
 5.401 	-0.034 	-0.462
 5.003 	-0.125 	0.010
 5.085 	0.588 	-0.008
 4.989 	1.268 	-0.030
 5.292 	0.956 	-0.216
 5.815 	0.110 	-0.561
 4.286 	-1.490 	0.441
 3.966 	-0.498 	0.824
 4.904 	-0.734 	-0.702
 4.876 	-0.818 	0.165
 4.476 	-0.250 	0.202
 4.732 	0.059 	0.174
 4.844 	0.084 	0.303
 5.393 	0.257 	-0.211
 5.050 	0.076 	-0.385
 4.970 	0.121 	-0.020
 4.764 	0.238 	-0.037
 4.434 	0.373 	0.429
 4.546 	0.477 	0.294
 5.045 	0.998 	-0.286
 4.950 	0.448 	-0.509
 5.312 	0.183 	0.033
 5.218 	-0.936 	0.956
 5.706 	-0.928 	-0.033
 4.955 	-0.486 	-0.067
 4.413 	-1.079 	-0.060
 4.048 	-0.651 	0.509
 3.946 	-0.606 	0.508
 4.109 	-0.374 	0.052
 4.487 	-1.036 	-0.262
 5.522 	-0.182 	-0.998
 5.103 	0.181 	-0.628
 5.039 	0.685 	-0.198
 4.770 	0.680 	-0.347
 4.489 	0.931 	-0.334
 4.804 	0.714 	-0.767
 5.449 	0.549 	-0.781
 6.013 	0.048 	-0.878
 6.226 	-0.618 	0.287
 6.237 	-1.039 	-0.054
 5.766 	-0.649 	-0.097
 5.166 	-0.349 	-0.224
 4.110 	-0.448 	0.262
 3.102 	-0.343 	0.766
 3.136 	-0.524 	0.424
 3.786 	-0.904 	-0.094
 4.536 	-1.121 	0.525
 4.415 	0.340 	-0.728
 4.884 	0.600 	-0.618
 5.075 	0.677 	-0.477
 5.195 	0.846 	-0.648
 5.490 	0.133 	-0.866
 5.506 	0.643 	-0.346
 5.316 	0.362 	-0.328
 5.400 	-0.212 	0.482
 5.258 	-0.138 	0.348
 5.043 	-0.287 	0.324
 5.061 	-0.871 	0.411
 4.805 	-0.262 	0.149
 3.900 	0.014 	0.405
 3.901 	-0.717 	0.329
 3.926 	-0.078 	0.440
 3.876 	-0.664 	0.734
 4.251 	-0.035 	0.378
 4.540 	0.759 	-0.604
 4.610 	0.779 	-0.512
 4.845 	0.479 	-0.677
 4.974 	0.120 	-0.321
 4.648 	0.396 	0.278
 4.332 	0.212 	0.623
 6.343 	0.090 	-0.622
 6.415 	0.465 	-0.076
 6.470 	0.443 	-0.200
 6.022 	-0.275 	-0.019
 5.198 	-0.261 	0.650
 5.051 	-0.384 	0.377
 5.203 	-1.334 	-0.065
 4.662 	0.385 	0.457
 4.809 	-0.130 	-0.173
 5.224 	-0.030 	0.315
 4.481 	0.640 	-0.181
 5.013 	0.282 	-0.420
 5.464 	0.632 	-0.904
 5.319 	0.231 	-0.828
 4.747 	0.599 	-0.425
 4.620 	0.191 	0.374
 5.361 	0.116 	-0.231
 5.601 	0.243 	0.604
 6.098 	0.642 	0.003
 6.054 	0.453 	0.186
 5.793 	0.054 	0.330
 5.321 	-0.607 	0.287
 4.323 	-0.360 	-0.061
 3.787 	0.325 	0.767
 4.482 	0.581 	0.441
 4.907 	0.424 	0.591
 4.829 	0.088 	0.315
 4.916 	0.321 	0.107
 5.223 	0.424 	-0.192
 4.961 	0.507 	-0.412
 5.261 	0.635 	-0.175
 5.214 	0.402 	-0.101
 4.520 	0.038 	0.512
 4.596 	0.088 	0.704
 5.058 	0.121 	0.516
 5.094 	-0.234 	0.207
 5.382 	-0.285 	-0.260
 4.811 	0.208 	0.237
 4.685 	0.358 	-0.268
 4.059 	-0.033 	0.158
 4.415 	0.032 	-0.037
 4.466 	-0.178 	0.340
 4.202 	-0.087 	0.189
 4.201 	-0.169 	0.388
 4.462 	0.262 	0.412
 4.641 	0.741 	-0.145
 4.828 	0.649 	0.015
 5.001 	0.128 	-0.001
 4.295 	0.082 	0.488
 4.468 	-0.141 	0.567
 4.143 	-0.424 	0.280
 4.273 	-0.345 	0.192
 4.588 	-0.296 	0.373
 4.817 	0.389 	-0.202
 4.731 	0.650 	0.027
 4.865 	0.124 	0.145
 4.786 	-0.285 	0.196
 4.654 	-0.423 	0.212
 4.299 	0.536 	0.134
 4.103 	-0.237 	0.324
 3.976 	0.138 	0.633
 4.208 	-0.048 	0.923
 4.922 	0.398 	-0.159
 5.180 	0.518 	0.068
 6.208 	0.764 	0.284
 6.534 	0.340 	0.455
 7.039 	0.825 	-0.073
 6.951 	-0.590 	-0.775
 8.068 	0.096 	-0.168
 7.143 	-0.249 	-0.704
 6.913 	-0.141 	0.464
 7.394 	0.640 	0.457
 7.182 	0.926 	0.528
 7.351 	1.024 	0.004
 6.426 	0.923 	0.592
 6.421 	1.702 	0.812
 6.519 	0.659 	0.467
 7.114 	1.923 	-0.515
 7.046 	1.574 	-0.169
 6.195 	1.462 	-0.107
 6.850 	0.524 	0.119
 7.321 	0.223 	-0.498
 7.055 	0.551 	-0.055
 6.796 	0.305 	-1.083
 5.374 	-0.069 	0.383
 5.641 	-0.047 	0.040
 5.601 	0.090 	0.706
 5.665 	0.408 	1.408
 5.995 	0.497 	0.680
 6.669 	1.248 	0.531
 6.145 	0.666 	0.743
 6.536 	0.618 	0.423
 6.310 	0.402 	-0.074
 5.979 	0.283 	-0.251
 6.604 	0.319 	0.015
 6.633 	1.000 	-0.031
 6.729 	0.289 	-0.524
 7.321 	0.603 	-0.751
 6.871 	0.936 	-0.572
 7.600 	0.779 	-0.488
 6.679 	0.139 	0.949
 5.352 	-0.115 	1.162
 5.254 	-0.064 	1.047
 5.307 	-0.008 	0.611
 5.258 	0.486 	0.637
 5.743 	0.935 	0.891
 5.596 	-0.043 	0.696
 5.591 	-0.023 	0.625
 5.542 	0.019 	0.467
 5.664 	0.496 	0.426
 5.803 	0.361 	0.393
 5.670 	0.769 	-0.244
 7.238 	0.950 	0.325
 7.102 	0.547 	0.859
 7.260 	0.942 	0.393
 7.157 	1.182 	0.325
 6.316 	0.758 	1.330
 5.238 	0.101 	0.982
 4.597 	0.028 	0.917
 4.401 	0.015 	0.512
 4.418 	-0.163 	0.680
 4.426 	-0.099 	0.843
 4.890 	-0.113 	0.334
 5.122 	0.201 	0.795
 4.865 	-0.463 	0.392
 5.948 	0.322 	-0.191
 5.948 	0.407 	-0.282
 5.756 	0.466 	-0.172
 6.279 	0.602 	1.335
 6.761 	1.336 	0.756
 7.587 	1.295 	0.266
 6.309 	1.261 	1.306
 5.723 	1.146 	1.523
 5.832 	0.413 	1.057
 5.337 	-0.172 	0.766
 5.144 	-0.013 	0.280
 5.066 	0.170 	0.250
 4.936 	-0.005 	1.155
 4.646 	-0.413 	0.854
 5.031 	-0.190 	0.878
 5.332 	-0.418 	0.317
 5.668 	-0.725 	0.333
 5.442 	0.295 	0.030
 5.946 	-0.229 	-0.303
 6.296 	0.509 	0.122
 6.494 	-0.104 	-0.178
 6.354 	1.339 	0.430
 6.412 	1.663 	0.755
 7.215 	1.001 	0.628
 6.351 	0.303 	0.547
 5.994 	-0.341 	0.543
 5.817 	-0.023 	0.627
 5.792 	-0.351 	0.170
 5.703 	-0.227 	0.109
 5.595 	-0.673 	-0.318
 5.935 	-0.151 	0.163
 6.242 	-0.209 	-0.177
 5.737 	-0.136 	0.413
 6.178 	0.195 	0.197
 5.869 	-0.409 	-0.021
 5.739 	0.309 	0.275
 6.175 	0.707 	0.565
 5.316 	0.479 	0.705
 5.684 	0.549 	0.284
 6.472 	0.622 	-0.297
 6.309 	0.053 	0.253
 6.386 	-0.262 	0.069
 6.292 	0.047 	0.002
 6.377 	-0.106 	-0.087
 6.134 	-0.244 	-0.261
 5.935 	-0.323 	-0.335
 5.853 	-0.201 	-0.219
 6.071 	-0.154 	-0.177
 6.231 	-0.011 	-0.489
 6.414 	0.005 	-1.009
 6.862 	0.509 	-1.137
 4.738 	-0.073 	1.237
 5.505 	0.532 	0.816
 5.341 	0.386 	0.696
 5.775 	-0.577 	0.153
 5.736 	-0.817 	0.219
 6.095 	-0.125 	0.221
 6.089 	0.077 	0.234
 6.077 	0.158 	-0.215
 6.081 	0.083 	-0.163
 5.666 	0.212 	0.342
 5.501 	-0.172 	-0.393
 5.459 	-0.436 	-0.174
 4.931 	-0.380 	-0.311
 5.449 	-0.459 	-0.134
 5.979 	0.445 	-0.191
 5.691 	0.679 	-0.365
 4.796 	-0.305 	0.020
 5.029 	-0.168 	0.387
 5.505 	0.416 	-0.182
 5.550 	-1.183 	0.290
 6.387 	-0.820 	-0.485
 6.312 	-0.576 	0.136
 5.450 	-0.154 	-0.143
 5.316 	0.131 	-0.393
 5.187 	0.027 	-0.255
 5.376 	0.077 	0.338
 5.382 	0.155 	-0.152
 4.904 	0.347 	0.250
 5.478 	0.087 	-0.258
 6.083 	-0.015 	-0.805
 5.804 	0.097 	-0.408
 5.613 	0.581 	0.120
 5.211 	-0.458 	-0.366
 5.304 	-0.137 	-0.029
 5.438 	-0.634 	0.063
 5.370 	-0.712 	-0.359
 4.620 	-0.944 	1.026
 4.390 	-0.720 	0.660
 4.751 	0.101 	0.018
 4.982 	0.115 	0.007
 5.105 	-0.036 	-0.067
 5.178 	-0.501 	-0.436
 5.373 	0.427 	-0.017
 5.860 	0.713 	-0.265
 5.736 	0.035 	-0.378
 5.775 	0.003 	-0.510
 6.360 	0.188 	-0.604
 6.418 	0.434 	-0.881
 6.367 	0.326 	-0.595
 6.201 	-0.638 	0.333
 5.996 	-0.496 	-0.086
 5.155 	-0.109 	0.425
 4.684 	-0.380 	1.342
 4.800 	-0.651 	0.312
 5.017 	-0.369 	0.169
 5.367 	-0.035 	-0.531
 5.089 	-0.476 	-0.261
 5.316 	-0.803 	-0.272
 5.192 	0.027 	-0.413
 5.548 	0.485 	-0.416
 5.595 	-0.188 	-0.273
 5.083 	-0.168 	-0.338
 4.715 	-0.528 	-0.137
 5.157 	0.378 	-0.010
 6.563 	-0.269 	0.007
 6.362 	-0.398 	-0.174
 5.660 	0.150 	0.232
 5.625 	0.021 	0.263
 5.500 	-0.517 	0.865
 5.214 	-0.158 	0.740
 4.880 	-0.334 	0.401
 5.229 	-0.421 	0.071
 5.429 	0.109 	-0.158
 5.001 	-0.926 	1.109
 5.469 	-0.271 	-0.366
 5.693 	0.046 	-0.419
 5.409 	-0.370 	-0.164
 5.269 	-0.055 	-0.163
 4.782 	0.069 	-0.228
 4.404 	0.298 	0.525
 6.129 	-0.670 	-0.552
 5.976 	0.016 	-0.352
 6.304 	0.169 	-0.102
 6.069 	0.430 	-0.191
 5.801 	-0.218 	0.930
 5.729 	-0.020 	0.930
 5.699 	0.042 	0.042
 5.957 	-0.701 	-0.140
 6.124 	-0.582 	-0.280
 5.761 	-0.097 	0.054
 5.685 	-0.005 	0.217
 5.797 	-0.118 	-0.708
 6.114 	-0.206 	-0.600
 5.731 	0.155 	-0.404
 5.530 	0.720 	-0.261
 5.577 	0.566 	-0.192
 4.745 	-0.528 	-0.086
 4.718 	-0.613 	-0.074
 5.604 	-0.203 	-0.387
 6.239 	0.621 	0.011
 6.766 	0.299 	0.384
 6.367 	0.202 	0.354
 6.134 	-0.498 	-0.349
 5.895 	-0.117 	0.477
 5.289 	-0.587 	0.343
 5.004 	0.422 	0.199
 5.383 	-0.223 	0.061
 5.524 	-0.378 	-0.256
 5.869 	0.138 	-0.402
 5.914 	0.141 	-0.255
 5.526 	0.413 	-0.326
 5.866 	0.569 	-0.201
 4.373 	-0.663 	0.417
 4.296 	-0.450 	0.871
 4.934 	-0.906 	1.142
 5.459 	0.424 	0.856
 5.926 	0.399 	0.648
 6.403 	0.462 	-0.175
 6.057 	0.177 	-0.288
 5.268 	0.098 	0.451
 4.512 	-0.477 	0.524
 4.444 	-0.156 	0.891
 4.784 	-0.742 	0.644
 4.806 	-0.322 	0.414
 4.878 	-0.180 	0.397
 4.903 	0.278 	0.180
 5.288 	0.294 	-0.550
 5.553 	0.525 	0.236
 4.610 	0.115 	0.107
 4.501 	-0.033 	0.046
 4.459 	-0.181 	-0.074
 4.332 	-0.687 	0.010
 4.786 	-0.327 	0.063
 4.911 	-0.142 	-0.013
 4.655 	0.297 	-0.047
 5.078 	0.182 	0.111
 5.331 	-0.017 	0.057
 4.959 	0.056 	0.050
 4.958 	-1.010 	-0.093
 4.436 	-0.415 	0.832
 4.469 	0.109 	0.669
 4.718 	0.279 	0.429
 5.198 	-0.220 	-0.024
 5.481 	0.032 	-0.441
 6.453 	-0.118 	0.069
 7.366 	-0.088 	0.022
 7.459 	0.545 	0.065
 7.183 	0.343 	-0.438
 8.296 	0.358 	-0.544
 8.281 	1.291 	-0.531
 8.051 	0.069 	0.831
 7.754 	0.539 	0.566
 6.530 	0.805 	0.869
 6.914 	0.725 	0.479
 6.661 	0.760 	0.143
 7.236 	0.885 	0.515
 7.164 	0.758 	0.735
 7.577 	1.200 	0.145
 7.115 	1.818 	-0.391
 7.631 	1.521 	0.369
 7.070 	-0.259 	-0.183
 6.514 	-0.531 	-0.209
 7.059 	0.818 	-0.112
 7.290 	-0.035 	-0.254
 7.170 	-0.226 	0.154
 7.399 	1.258 	0.298
 6.424 	-0.557 	1.321
 5.889 	0.353 	0.569
 6.342 	0.958 	0.901
 5.895 	0.507 	-0.016
 6.421 	0.790 	1.208
 6.535 	0.599 	1.131
 6.688 	0.628 	0.806
 6.575 	0.971 	0.563
 7.333 	1.507 	0.774
 6.909 	1.201 	0.722
 6.484 	-0.264 	-0.624
 6.680 	-0.376 	-0.396
 6.271 	-0.668 	-0.600
 6.526 	0.437 	0.500
 6.051 	0.546 	1.260
 5.788 	0.400 	1.178
 5.530 	-0.038 	0.864
 5.233 	0.466 	1.228
 5.395 	0.562 	1.278
 5.953 	1.063 	1.575
 5.658 	0.060 	0.528
 6.199 	-0.133 	0.810
 6.431 	0.427 	0.737
 6.594 	0.224 	0.110
 7.104 	0.222 	0.231
 6.442 	1.466 	0.405
 6.762 	0.013 	0.521
 5.855 	-0.489 	0.556
 6.536 	-0.320 	-0.015
 5.855 	0.261 	0.953
 5.206 	0.786 	1.209
 5.453 	0.544 	1.080
 5.330 	-0.022 	1.224
 4.734 	-0.489 	0.785
 5.406 	0.002 	0.547
 6.020 	0.729 	0.398
 5.924 	0.636 	0.614
 5.886 	-0.718 	0.919
 5.972 	-0.861 	0.471
 6.950 	0.510 	-0.097
 6.646 	0.653 	-0.171
 6.393 	1.284 	0.404
 6.531 	0.411 	0.335
 6.513 	-0.512 	0.289
 6.393 	0.290 	0.490
 6.765 	1.039 	0.688
 5.936 	0.969 	1.188
 5.798 	-0.005 	1.223
 6.034 	-0.212 	0.728
 5.445 	0.059 	0.892
 4.887 	-0.267 	0.475
 5.480 	0.592 	0.836
 5.288 	0.556 	0.558
 5.998 	-0.862 	0.629
 6.070 	-0.859 	0.043
 5.812 	-0.126 	0.323
 6.693 	0.638 	0.200
 6.638 	1.665 	-0.036
 5.959 	0.186 	0.398
 5.729 	-0.062 	0.184
 5.391 	-0.294 	0.815
 5.938 	0.664 	0.575
 6.755 	0.875 	0.805
 6.309 	-0.274 	1.131
 6.110 	0.674 	0.503
 6.262 	0.223 	0.697
 6.119 	-0.425 	0.442
 6.234 	-0.062 	0.010
 6.040 	-0.118 	0.061
 5.980 	-0.727 	0.009
 6.169 	-0.820 	-0.102
 6.340 	-0.243 	0.392
 6.498 	0.454 	-0.184
 6.718 	0.873 	-0.908
 6.015 	0.170 	0.359
 5.088 	0.277 	1.188
 5.072 	0.130 	1.082
 5.227 	-0.295 	0.921
 6.393 	-0.130 	0.640
 6.841 	0.109 	0.393
 6.954 	0.122 	0.205
 6.597 	0.034 	0.091
 6.522 	-0.223 	0.144
 6.146 	-0.341 	0.059
 6.318 	-0.153 	-0.121
 6.665 	-0.638 	-0.529
 5.953 	-0.909 	-0.188
 6.055 	-0.315 	-0.549
 6.312 	-0.051 	-0.458
 6.846 	0.565 	-0.751
 5.800 	0.731 	1.046
 6.035 	0.402 	0.944
 6.270 	0.632 	0.592
 5.596 	-0.707 	0.094
 5.767 	-0.860 	0.624
 6.329 	-0.552 	0.647
 6.285 	0.104 	0.208
 6.419 	-0.017 	-0.046
 6.038 	-0.436 	0.099
 5.705 	-0.808 	0.156
 5.982 	-0.857 	-0.071
 6.315 	-0.894 	-0.281
 6.819 	-0.560 	-0.656
 6.372 	-0.207 	-0.670
 6.384 	-0.953 	-0.289
 6.607 	0.213 	-0.358
 5.037 	0.285 	0.289
 5.183 	0.186 	0.243
 5.369 	0.251 	-0.080
 6.647 	-1.185 	0.255
 5.786 	-0.905 	0.129
 5.799 	-0.409 	0.494
 5.974 	0.010 	-0.048
 5.899 	0.184 	-0.070
 6.014 	-0.109 	0.046
 6.115 	-0.435 	-0.056
 6.240 	-0.843 	-0.364
 6.549 	-1.180 	-0.337
 6.602 	-0.369 	-0.912
 6.805 	-0.131 	-1.035
 6.500 	-0.372 	-0.465
 5.845 	0.128 	0.299
 5.307 	0.208 	-0.525
 5.292 	0.109 	0.163
 6.130 	-0.469 	-0.005
 6.410 	-0.886 	-0.257
 6.076 	-0.778 	0.620
 5.847 	-0.582 	0.722
 5.325 	0.148 	0.185
 5.391 	0.082 	-0.121
 5.762 	-0.525 	-0.303
 5.972 	-0.745 	-0.169
 6.336 	-0.504 	-0.516
 6.466 	-0.324 	-0.490
 5.916 	-0.517 	-0.055
 5.916 	-0.163 	-0.205
 6.111 	-0.398 	-0.939
 6.149 	0.453 	-0.106
 6.615 	0.517 	0.045
 6.354 	-0.194 	0.343
 6.257 	-0.354 	0.320
 5.653 	-0.371 	0.302
 5.582 	0.048 	0.991
 6.493 	-0.375 	0.787
 5.575 	0.144 	-0.051
 5.819 	-0.046 	-0.479
 5.660 	-0.373 	-0.179
 5.528 	-0.720 	-0.036
 5.896 	-0.206 	-0.150
 6.052 	0.039 	-0.364
 5.830 	0.086 	-0.152
 5.564 	-0.433 	-0.360
 5.521 	-0.074 	-0.314
 5.464 	-0.286 	-0.001
 6.394 	-0.007 	-0.051
 6.631 	-0.527 	-0.057
 6.345 	-0.375 	-0.065
 5.915 	0.265 	0.550
 5.957 	-0.038 	0.644
 6.170 	0.080 	0.439
 5.738 	-0.109 	0.723
 5.968 	-0.387 	0.335
 6.571 	-0.274 	-0.452
 6.276 	-0.392 	0.030
 5.879 	-0.284 	-0.222
 5.827 	0.160 	0.150
 5.684 	-0.360 	-0.402
 5.551 	0.022 	-0.018
 5.699 	-0.022 	-0.538
 5.264 	0.450 	0.368
 5.942 	-0.749 	-0.048
 6.282 	-0.484 	-0.285
 6.336 	0.022 	0.082
 6.466 	0.231 	-0.194
 6.212 	0.620 	0.552
 6.290 	0.128 	0.784
 6.237 	-0.340 	0.428
 6.203 	-0.677 	-0.084
 6.267 	-0.093 	-0.214
 6.192 	-0.498 	-0.260
 5.945 	-0.472 	0.166
 6.065 	-0.194 	-0.530
 6.374 	-0.014 	-0.430
 5.865 	-0.043 	-0.234
 5.767 	0.120 	-0.283
 5.581 	0.702 	-0.330
 5.382 	-0.900 	0.198
 5.442 	-0.714 	-0.025
 5.852 	-0.683 	-0.449
 5.765 	0.528 	-0.092
 5.938 	0.620 	0.464
 6.308 	0.122 	0.228
 6.192 	-0.190 	0.028
 5.387 	-0.318 	0.162
 5.208 	-0.350 	0.358
 5.030 	-0.559 	0.439
 5.035 	-0.857 	-0.107
 5.558 	-0.774 	-0.531
 5.566 	-0.930 	-0.413
 6.157 	-0.132 	-0.423
 6.052 	0.172 	-0.089
 6.109 	0.621 	-0.295
 5.405 	-0.364 	-0.271
 5.544 	-0.842 	-0.483
 5.579 	-0.679 	0.546
 5.727 	0.128 	0.416
 5.437 	0.637 	0.182
 5.363 	-0.349 	0.538
 5.138 	-0.020 	0.289
 5.108 	-0.063 	0.370
 4.723 	-0.173 	0.633
 4.780 	-0.719 	0.588
 4.864 	-0.649 	0.441
 5.318 	-0.498 	0.211
 5.165 	-0.601 	-0.042
 5.086 	-0.256 	-0.166
 5.651 	0.159 	-0.072
 5.713 	0.196 	0.124
 5.995 	-0.020 	0.352
 5.012 	-0.369 	-0.480
 5.388 	-0.167 	-0.154
 5.300 	-0.578 	-0.017
 5.881 	0.392 	0.539
 5.361 	0.029 	0.499
 5.075 	-0.681 	-0.026
 5.379 	-0.179 	0.187
 5.450 	-0.291 	0.012
 5.402 	-0.319 	0.039
 4.898 	-0.203 	0.411
 4.941 	-0.350 	0.767
 5.005 	-0.336 	0.480
 4.670 	-0.127 	0.344
 5.304 	-0.335 	0.240
 5.444 	0.128 	-0.227
 6.728 	-0.322 	0.187
 7.192 	0.224 	0.716
 7.113 	0.408 	0.028
 7.289 	-0.807 	-0.333
 7.388 	-0.603 	-0.516
 7.447 	0.595 	-0.437
 7.798 	-0.077 	1.043
 8.140 	0.233 	1.177
 7.760 	0.805 	0.755
 7.326 	0.995 	0.894
 7.153 	0.723 	0.826
 7.237 	0.954 	0.450
 7.575 	0.877 	0.804
 7.690 	0.624 	0.238
 8.036 	1.127 	-0.242
 8.390 	1.554 	-0.489
 6.434 	-0.192 	-0.316
 6.218 	0.296 	-0.194
 6.646 	0.169 	0.353
 6.750 	-0.994 	-0.300
 6.702 	-0.299 	-0.310
 6.546 	-0.182 	1.264
 6.352 	-0.341 	1.633
 6.345 	0.075 	0.864
 6.598 	0.908 	0.502
 6.560 	1.252 	0.703
 6.567 	0.692 	0.662
 6.653 	0.965 	0.662
 6.587 	0.013 	0.675
 6.749 	0.507 	0.625
 7.243 	0.926 	1.054
 7.416 	1.760 	1.092
 6.753 	0.081 	-0.794
 6.561 	-0.384 	0.432
 6.377 	-0.609 	-0.526
 6.339 	-0.596 	-0.609
 7.032 	-0.283 	0.098
 5.589 	0.063 	1.487
 4.882 	-0.614 	1.231
 5.803 	0.232 	1.265
 5.807 	0.506 	1.786
 5.894 	0.226 	1.635
 6.019 	0.495 	0.545
 6.450 	0.591 	0.863
 7.525 	0.402 	0.233
 7.341 	0.198 	0.424
 7.056 	1.061 	0.431
 6.905 	1.348 	1.226
 7.032 	-0.000 	0.544
 6.691 	-0.260 	0.166
 6.287 	-0.437 	-0.486
 6.156 	0.278 	0.977
 6.519 	1.135 	1.326
 5.762 	0.342 	1.467
 5.875 	-0.153 	1.078
 5.966 	0.076 	1.093
 5.648 	-0.439 	1.178
 5.679 	-0.466 	0.880
 6.568 	0.607 	0.510
 6.329 	0.479 	1.219
 7.309 	1.072 	0.271
 7.468 	0.596 	0.241
 7.306 	1.070 	0.213
 6.689 	1.693 	0.452
 5.873 	-0.781 	-0.324
 6.499 	-0.124 	0.295
 6.044 	-0.035 	0.362
 5.686 	1.368 	1.155
 5.360 	1.204 	1.575
 6.353 	-0.049 	0.843
 6.453 	-0.364 	0.672
 6.937 	0.201 	0.683
 6.174 	-0.223 	0.765
 6.092 	-0.505 	0.530
 5.854 	0.195 	0.925
 6.191 	-0.156 	0.514
 6.662 	-0.459 	0.463
 7.145 	-0.296 	0.469
 7.246 	1.004 	0.399