# vtk DataFile Version 3.0
HighT1
ASCII
DATASET STRUCTURED_POINTS
DIMENSIONS 16 16 19
ORIGIN 929.001000000000 929.001000000000 5.001000000000
SPACING 10.000000000000 10.000000000000 10.000000000000
POINT_DATA 4864
FIELD attributes 1
U 3 4864 float
3.249 	-0.715 	0.045
 3.381 	-0.578 	0.160
 3.589 	-0.574 	0.029
 3.885 	-0.442 	-0.039
 3.761 	-0.022 	0.012
 3.580 	0.172 	-0.140
 3.647 	-0.103 	0.046
 3.466 	-0.153 	0.190
 3.305 	-0.011 	0.215
 3.302 	-0.080 	0.052
 3.732 	0.126 	-0.226
 4.496 	0.282 	-0.536
 5.095 	0.155 	-0.494
 5.191 	-0.036 	-0.102
 4.699 	0.049 	0.060
 4.290 	-0.161 	-0.034
 2.867 	-0.381 	-0.315
 2.797 	-0.314 	-0.149
 2.762 	-0.335 	-0.124
 3.053 	-0.456 	-0.074
 3.460 	-0.396 	-0.007
 3.765 	-0.292 	0.089
 3.809 	-0.178 	0.082
 3.906 	-0.151 	0.012
 3.941 	-0.246 	0.017
 3.963 	-0.259 	-0.002
 4.458 	0.086 	0.050
 4.893 	0.629 	-0.256
 5.109 	0.812 	-0.435
 5.185 	0.613 	-0.161
 4.637 	0.414 	-0.048
 4.663 	-0.122 	-0.153
 3.442 	-0.330 	0.221
 3.273 	-0.466 	0.288
 3.238 	-0.606 	0.236
 3.645 	-0.839 	0.101
 4.016 	-0.976 	0.185
 4.110 	-0.801 	0.098
 3.948 	-0.439 	0.113
 3.451 	-0.035 	0.171
 2.851 	-0.118 	0.292
 3.045 	-0.683 	0.025
 3.509 	-0.904 	-0.044
 4.021 	-0.071 	0.302
 4.203 	1.022 	0.102
 4.300 	1.110 	-0.146
 4.788 	0.563 	-0.164
 5.203 	0.059 	-0.398
 5.391 	-0.608 	-0.212
 5.601 	-0.650 	-0.129
 4.930 	-0.640 	0.014
 4.640 	-0.585 	-0.104
 4.654 	-0.969 	-0.166
 4.382 	-1.208 	0.190
 4.456 	-0.652 	0.090
 4.278 	-0.101 	0.137
 4.418 	-0.410 	0.118
 4.535 	-0.479 	-0.081
 4.679 	-0.579 	-0.231
 4.932 	0.059 	-0.155
 3.953 	0.988 	0.118
 3.948 	0.895 	-0.202
 3.927 	0.621 	-0.108
 3.490 	0.793 	0.186
 4.695 	-0.138 	-0.192
 4.675 	0.002 	-0.115
 4.378 	-0.250 	-0.097
 4.259 	-0.513 	-0.091
 4.206 	-0.946 	0.059
 3.626 	-1.219 	0.305
 3.434 	-1.526 	0.280
 3.628 	-1.561 	0.347
 4.242 	-1.643 	0.105
 5.545 	-0.772 	-0.087
 6.146 	-0.683 	-0.470
 5.186 	0.225 	-0.302
 4.150 	1.170 	0.211
 3.473 	1.131 	0.128
 3.778 	1.131 	0.027
 4.312 	0.547 	0.054
 3.839 	0.216 	-0.005
 3.992 	0.165 	-0.072
 4.115 	-0.038 	-0.064
 4.081 	-0.520 	-0.035
 4.257 	-0.869 	0.006
 3.710 	-0.867 	-0.013
 3.127 	-1.463 	0.244
 3.307 	-2.044 	0.231
 3.891 	-2.002 	-0.352
 4.633 	-1.271 	-0.100
 4.539 	0.228 	0.039
 3.912 	1.309 	0.312
 3.337 	1.138 	0.270
 3.613 	0.398 	-0.029
 4.525 	-0.050 	0.015
 4.753 	0.238 	0.357
 4.077 	-0.231 	0.079
 4.383 	-0.006 	0.045
 4.644 	0.267 	-0.139
 5.126 	-0.102 	-0.528
 4.089 	-0.190 	0.084
 3.282 	-0.207 	0.174
 3.879 	-1.344 	-0.275
 4.410 	-1.938 	-0.545
 4.812 	-1.121 	-0.156
 4.972 	-0.281 	-0.677
 4.414 	0.804 	-0.015
 4.319 	1.144 	0.197
 4.016 	0.735 	0.218
 3.276 	0.523 	-0.230
 3.118 	0.019 	0.148
 2.789 	-0.235 	0.320
 4.566 	-0.778 	-0.109
 4.790 	-0.683 	-0.133
 5.429 	0.033 	-0.370
 5.557 	0.586 	-0.345
 4.753 	0.950 	-0.020
 4.729 	-0.439 	-0.313
 5.346 	-1.019 	-0.703
 5.065 	-0.902 	-0.326
 3.901 	-0.896 	0.356
 3.726 	0.172 	0.075
 4.294 	0.801 	-0.099
 4.012 	0.734 	0.012
 3.626 	0.716 	0.274
 2.876 	1.203 	0.239
 2.601 	0.042 	0.228
 2.391 	-0.630 	0.186
 4.245 	-0.487 	-0.153
 4.349 	-0.343 	-0.051
 4.671 	0.009 	-0.043
 4.848 	1.133 	0.111
 5.188 	1.129 	-0.294
 5.404 	0.340 	-0.496
 5.121 	-0.199 	-0.581
 4.989 	0.448 	0.083
 5.008 	-0.663 	0.129
 4.084 	-0.335 	0.216
 2.975 	0.361 	0.168
 3.366 	1.149 	0.148
 2.894 	1.282 	0.225
 2.716 	0.845 	0.245
 2.582 	-0.353 	0.099
 1.828 	-1.035 	0.120
 4.351 	-0.490 	-0.075
 4.267 	-0.424 	0.083
 4.443 	-0.079 	0.062
 5.024 	0.436 	-0.044
 5.069 	0.516 	0.087
 4.918 	0.880 	0.039
 5.120 	0.330 	-0.439
 5.731 	0.715 	-0.574
 5.361 	0.534 	-0.079
 3.967 	0.089 	0.365
 2.872 	0.404 	0.166
 2.753 	0.726 	0.092
 2.940 	0.594 	0.146
 3.191 	0.236 	0.109
 3.107 	0.031 	0.044
 3.271 	-0.536 	-0.165
 4.644 	0.216 	-0.207
 4.973 	-0.230 	-0.078
 4.781 	-0.461 	0.073
 4.350 	0.023 	0.004
 4.619 	0.612 	-0.259
 5.094 	0.874 	-0.086
 5.786 	0.704 	-0.514
 5.565 	1.091 	-0.345
 5.933 	1.308 	-0.162
 5.385 	0.914 	0.254
 4.451 	0.872 	0.314
 3.007 	0.579 	0.423
 2.689 	-0.185 	0.382
 3.341 	-0.701 	-0.207
 3.320 	-0.364 	-0.233
 2.960 	0.038 	-0.039
 4.360 	-0.215 	-0.612
 5.266 	0.242 	-0.312
 4.938 	0.432 	-0.027
 4.302 	0.425 	-0.010
 4.242 	0.701 	-0.147
 4.695 	1.164 	-0.032
 5.144 	1.482 	0.241
 5.038 	1.818 	0.535
 4.948 	1.813 	0.407
 5.509 	1.554 	0.336
 5.323 	1.006 	0.219
 4.151 	0.240 	0.414
 4.238 	-0.484 	-0.258
 4.375 	-0.357 	-0.514
 3.869 	0.045 	-0.314
 3.731 	-0.033 	-0.058
 3.447 	-0.321 	0.139
 4.252 	0.573 	0.072
 4.316 	0.413 	0.172
 3.930 	0.331 	0.148
 3.596 	0.942 	0.204
 3.179 	1.078 	0.300
 2.856 	1.060 	0.305
 3.287 	0.406 	-0.024
 3.954 	-0.014 	0.058
 4.232 	0.208 	0.245
 4.399 	0.364 	0.230
 4.760 	0.343 	-0.294
 4.862 	0.741 	-0.756
 4.018 	0.667 	-0.489
 3.577 	0.518 	-0.075
 3.253 	0.241 	-0.140
 2.942 	-1.206 	-0.013
 3.326 	-0.282 	0.146
 3.190 	0.379 	0.324
 2.743 	0.217 	0.378
 3.175 	0.381 	0.299
 3.539 	0.674 	0.304
 3.799 	0.774 	0.016
 4.087 	0.602 	-0.403
 3.916 	0.097 	-0.131
 3.607 	-0.136 	0.189
 3.297 	0.126 	0.234
 3.223 	0.657 	0.305
 3.276 	1.344 	0.353
 3.526 	1.982 	0.016
 3.499 	1.550 	-0.101
 3.298 	0.779 	-0.103
 3.305 	-0.736 	-0.116
 3.301 	-0.781 	0.085
 4.105 	0.380 	-0.193
 3.943 	0.154 	0.064
 3.968 	-0.260 	-0.235
 4.046 	-0.168 	-0.066
 4.407 	0.517 	0.050
 4.173 	0.798 	0.211
 3.865 	0.717 	0.218
 3.642 	0.124 	0.317
 3.299 	0.020 	0.187
 3.155 	0.499 	0.209
 2.903 	0.838 	0.257
 2.828 	1.075 	0.245
 3.240 	1.033 	0.157
 3.927 	0.740 	-0.065
 4.773 	-0.141 	-0.340
 5.334 	-0.499 	-0.602
 3.822 	0.040 	0.469
 3.047 	0.796 	-0.071
 2.986 	0.501 	-0.188
 2.440 	0.036 	0.231
 2.057 	0.041 	0.256
 2.641 	0.229 	-0.185
 3.611 	0.300 	0.121
 3.570 	-0.075 	0.131
 3.000 	-0.382 	0.261
 2.509 	-0.206 	0.213
 2.812 	0.153 	-0.018
 3.437 	0.221 	-0.248
 3.967 	0.297 	-0.524
 4.344 	0.401 	-0.705
 3.734 	0.769 	0.038
 3.818 	0.705 	-0.217
 4.150 	0.482 	-0.448
 4.532 	0.037 	-0.224
 5.066 	-0.370 	-0.032
 5.327 	-0.474 	0.052
 4.953 	0.154 	0.394
 4.499 	0.175 	0.486
 4.718 	-0.036 	0.098
 4.972 	-0.413 	-0.423
 5.176 	-0.330 	-0.756
 5.327 	-0.200 	-0.377
 5.525 	0.166 	-0.141
 5.212 	0.477 	-0.025
 5.096 	0.648 	-0.231
 5.619 	0.483 	-0.201
 3.661 	0.806 	-0.051
 3.720 	0.582 	-0.132
 4.022 	-0.166 	0.044
 4.544 	-0.464 	0.172
 4.827 	-0.296 	0.286
 4.912 	-0.307 	0.364
 4.955 	-0.260 	0.131
 5.183 	0.047 	-0.019
 5.168 	0.258 	0.059
 4.832 	-0.024 	0.143
 4.952 	-0.641 	-0.025
 5.428 	-1.049 	-0.370
 5.463 	-0.760 	-0.462
 6.139 	0.035 	-0.424
 6.664 	0.410 	-0.147
 6.684 	0.132 	-0.123
 4.206 	0.514 	0.692
 4.719 	0.371 	0.684
 6.145 	-0.375 	-0.016
 5.408 	-0.450 	0.306
 4.217 	-0.565 	0.740
 4.394 	-0.663 	0.880
 4.640 	-0.247 	0.431
 4.812 	0.073 	0.132
 5.059 	0.224 	0.067
 5.326 	-0.239 	-0.253
 5.562 	-0.705 	-0.212
 5.950 	-1.027 	0.174
 6.579 	-0.953 	-0.358
 5.821 	-0.696 	0.097
 5.767 	0.256 	-0.023
 5.552 	0.070 	-0.102
 6.156 	-0.048 	0.001
 6.469 	-0.316 	-0.017
 6.753 	-0.434 	-0.133
 6.876 	-0.858 	-0.228
 6.219 	0.061 	0.002
 5.743 	-0.529 	0.628
 5.082 	-0.409 	0.773
 5.247 	-0.296 	0.739
 5.606 	-0.460 	0.300
 6.093 	-0.636 	-0.184
 6.578 	-1.174 	-0.336
 6.383 	-1.268 	0.099
 6.658 	-0.878 	-0.135
 7.078 	-0.713 	-0.804
 6.664 	0.325 	-0.048
 6.703 	0.153 	0.182
 6.559 	-0.591 	-0.211
 6.485 	-0.458 	-0.298
 6.398 	-0.375 	-0.504
 6.456 	-0.448 	-0.581
 6.723 	-0.251 	-0.356
 6.574 	0.433 	0.420
 5.794 	0.579 	0.320
 5.529 	0.445 	0.081
 6.082 	-0.136 	-0.402
 6.646 	-0.625 	-0.402
 7.143 	-1.885 	-0.156
 6.256 	-0.627 	-0.162
 6.220 	-0.282 	0.092
 6.190 	-0.541 	-0.502
 6.517 	-0.466 	-0.156
 6.817 	0.199 	0.154
 6.816 	-1.054 	-0.254
 6.592 	-0.580 	-0.241
 6.383 	-0.238 	-0.507
 6.619 	-0.196 	-0.484
 6.817 	-0.265 	-0.227
 7.071 	0.592 	-0.015
 7.230 	0.786 	-0.125
 7.170 	0.118 	-0.256
 6.848 	-0.416 	-0.483
 6.938 	-0.825 	-0.394
 5.692 	-2.029 	0.121
 5.135 	-0.223 	0.089
 5.468 	0.279 	0.140
 5.816 	0.254 	-0.211
 5.380 	-0.402 	0.288
 5.755 	-0.259 	0.554
 7.577 	-0.671 	0.022
 6.757 	-0.523 	-0.196
 6.310 	-0.135 	-0.502
 6.541 	0.042 	-0.755
 6.842 	-0.046 	-0.596
 7.433 	0.060 	-0.369
 7.329 	0.564 	-0.293
 6.983 	-0.202 	-0.493
 7.416 	-0.556 	-0.725
 7.644 	-0.389 	-1.072
 6.493 	-0.065 	0.635
 4.512 	-0.432 	1.051
 4.970 	-0.078 	0.455
 5.755 	0.633 	-0.248
 5.219 	0.505 	0.416
 3.802 	-0.636 	0.879
 6.749 	-0.188 	0.078
 6.203 	0.100 	-0.117
 6.540 	-0.253 	-0.733
 6.437 	-0.245 	0.074
 6.765 	0.536 	-0.556
 7.338 	0.409 	-0.583
 6.038 	0.626 	-0.252
 5.308 	-0.398 	-0.089
 5.331 	-0.982 	0.592
 5.711 	-0.181 	0.301
 4.935 	0.117 	0.205
 4.707 	0.441 	0.416
 3.447 	0.276 	0.577
 2.816 	0.891 	0.979
 2.815 	0.533 	1.032
 3.190 	-0.142 	0.559
 5.976 	-0.185 	-0.060
 6.103 	-0.401 	-0.144
 6.363 	-0.104 	-0.219
 6.138 	0.137 	0.120
 5.495 	0.498 	-0.275
 5.770 	0.062 	-0.328
 6.229 	0.223 	-0.269
 5.714 	0.297 	-0.437
 5.034 	-0.157 	1.107
 3.862 	-0.467 	1.022
 3.472 	-0.208 	0.468
 3.769 	0.135 	0.061
 2.990 	0.807 	0.628
 3.021 	0.611 	0.494
 3.489 	0.092 	0.023
 3.928 	-0.430 	-0.099
 6.542 	0.335 	-0.127
 6.221 	-0.191 	0.033
 6.465 	-0.053 	-0.192
 6.802 	0.770 	-0.026
 7.046 	0.622 	-0.265
 7.134 	0.372 	-0.555
 6.264 	-0.171 	-0.373
 5.997 	0.655 	-0.506
 6.077 	0.755 	0.060
 5.394 	0.089 	0.600
 5.149 	0.095 	0.324
 4.518 	0.772 	0.232
 4.102 	0.754 	0.511
 4.598 	0.051 	0.471
 5.163 	-0.797 	0.171
 5.550 	-1.125 	-0.191
 6.722 	0.623 	0.015
 6.287 	0.039 	-0.038
 6.115 	-0.039 	-0.079
 6.134 	0.169 	-0.049
 6.514 	0.203 	-0.125
 6.847 	0.204 	-0.145
 6.124 	-0.210 	0.167
 6.181 	0.656 	-0.392
 5.958 	0.990 	-0.396
 5.420 	1.107 	0.568
 4.808 	0.829 	0.860
 5.344 	1.233 	0.451
 5.544 	1.243 	0.032
 5.610 	-0.056 	-0.518
 6.144 	-1.000 	-0.794
 6.618 	-1.194 	-0.944
 5.249 	-0.105 	-0.273
 5.044 	-0.210 	-0.512
 5.207 	0.038 	-0.174
 5.083 	0.097 	-0.059
 4.623 	-0.337 	-0.129
 4.230 	-0.555 	-0.246
 4.517 	0.024 	0.177
 3.978 	0.015 	0.355
 4.489 	0.710 	0.528
 5.169 	1.469 	0.667
 5.102 	1.447 	1.194
 5.977 	1.472 	0.138
 6.681 	0.982 	-0.928
 6.827 	-0.001 	-0.962
 6.571 	-0.424 	-0.787
 6.651 	-0.494 	-0.772
 3.914 	-0.510 	0.173
 4.160 	-0.058 	-0.182
 4.129 	0.013 	0.317
 3.990 	-0.294 	0.198
 3.606 	-0.393 	0.457
 3.888 	-0.810 	0.328
 4.011 	-0.484 	0.331
 4.400 	0.191 	0.299
 4.650 	0.449 	0.445
 5.131 	1.089 	0.304
 5.990 	1.548 	-0.182
 6.592 	1.007 	-0.838
 7.160 	0.591 	-1.053
 7.142 	0.467 	-1.068
 6.516 	0.518 	-0.889
 6.410 	0.512 	-0.569
 4.457 	0.115 	-0.484
 4.874 	-0.569 	0.152
 4.080 	-0.168 	0.846
 3.591 	0.408 	0.548
 5.047 	-0.196 	0.206
 5.737 	-0.913 	0.112
 5.325 	-1.160 	0.160
 4.862 	-0.830 	-0.256
 4.965 	-0.104 	-0.416
 5.686 	0.262 	-0.093
 6.293 	0.441 	-0.106
 6.690 	0.435 	-0.157
 6.854 	0.383 	-0.317
 6.599 	0.341 	-0.473
 6.050 	0.931 	-0.271
 5.779 	1.369 	-0.328
 5.862 	0.153 	-0.454
 5.787 	0.320 	-0.283
 5.544 	0.408 	0.302
 5.854 	0.277 	0.017
 5.897 	0.216 	-0.068
 6.212 	-0.706 	0.202
 5.001 	-0.313 	0.136
 3.976 	-1.112 	0.211
 3.892 	-0.265 	0.735
 4.478 	0.176 	0.688
 5.202 	0.435 	0.465
 5.489 	0.491 	0.370
 5.766 	0.715 	0.277
 5.958 	0.921 	-0.102
 5.488 	1.527 	-0.233
 5.550 	1.266 	-0.465
 5.284 	-0.130 	-0.457
 5.433 	0.260 	-0.106
 5.794 	0.403 	0.007
 6.141 	0.413 	-0.349
 6.178 	0.034 	-0.042
 5.801 	0.145 	0.343
 5.199 	0.595 	-0.082
 5.175 	-0.253 	-0.249
 5.140 	-0.359 	0.522
 4.734 	-0.132 	0.481
 4.766 	-0.000 	0.527
 5.224 	0.602 	0.212
 5.813 	0.797 	-0.154
 5.922 	1.060 	-0.189
 5.886 	1.292 	-0.191
 5.522 	0.797 	-0.376
 5.444 	0.622 	-0.177
 5.722 	0.734 	-0.291
 6.026 	0.887 	-0.361
 5.907 	0.840 	-0.284
 5.613 	0.749 	-0.213
 5.106 	0.620 	0.346
 4.817 	0.410 	1.040
 5.239 	0.187 	0.619
 6.044 	-0.297 	-0.036
 6.136 	-0.108 	-0.264
 5.919 	0.161 	-0.595
 5.253 	-0.130 	0.014
 4.798 	-0.039 	0.336
 5.276 	0.684 	0.048
 5.211 	1.217 	-0.171
 5.005 	1.111 	-0.120
 4.844 	0.670 	0.171
 4.580 	0.376 	0.072
 4.318 	0.022 	0.433
 4.866 	-0.058 	0.682
 5.618 	0.326 	0.418
 6.041 	0.593 	0.181
 6.046 	0.544 	-0.043
 6.049 	-0.059 	-0.136
 5.711 	-0.452 	0.248
 5.563 	-0.191 	0.160
 5.792 	0.386 	-0.348
 5.681 	0.030 	0.013
 5.770 	-0.085 	0.110
 6.001 	0.793 	0.032
 5.418 	1.113 	0.034
 5.952 	0.886 	-0.154
 5.307 	0.419 	0.446
 5.389 	0.319 	0.279
 5.257 	-0.414 	-0.234
 5.118 	-0.553 	0.375
 5.312 	-0.035 	0.823
 5.457 	0.305 	0.759
 5.992 	0.271 	0.381
 6.189 	0.248 	-0.057
 5.741 	0.210 	0.072
 5.468 	-0.005 	0.008
 5.942 	-0.406 	-0.215
 6.708 	-1.036 	-0.102
 6.610 	-0.851 	0.257
 6.159 	-0.274 	0.309
 6.294 	0.504 	0.106
 6.439 	0.629 	0.033
 6.068 	0.294 	0.126
 6.076 	0.195 	0.031
 5.689 	0.146 	-0.285
 5.314 	-0.023 	-0.265
 5.280 	0.164 	0.546
 5.294 	0.406 	0.608
 5.343 	0.525 	0.615
 5.191 	0.338 	0.325
 5.451 	0.115 	0.021
 5.853 	-0.626 	-0.302
 6.405 	-1.318 	-0.388
 6.916 	-1.221 	-0.443
 6.865 	-0.966 	-0.546
 6.440 	-0.349 	-0.268
 6.385 	0.221 	0.191
 6.346 	0.389 	0.178
 6.699 	0.569 	-0.228
 6.638 	0.191 	-0.089
 6.436 	-0.268 	-0.143
 6.466 	-0.270 	-0.394
 6.200 	0.266 	-0.104
 6.148 	0.372 	0.346
 6.117 	0.638 	0.145
 5.971 	0.404 	-0.267
 6.527 	-0.210 	-0.770
 6.639 	-1.045 	-0.331
 6.698 	-1.725 	0.569
 6.909 	-0.832 	0.046
 6.677 	-0.500 	-0.221
 6.709 	-0.245 	-0.585
 6.609 	0.203 	-0.433
 6.891 	0.161 	0.166
 6.805 	0.408 	-0.280
 6.913 	-0.023 	0.000
 6.843 	-0.474 	-0.080
 6.676 	-0.385 	-0.424
 6.598 	0.127 	-0.500
 6.951 	0.441 	0.033
 7.345 	0.416 	0.104
 7.815 	0.007 	-0.016
 7.536 	-0.251 	-0.310
 7.371 	-1.077 	-0.792
 6.188 	-1.756 	1.011
 6.416 	-0.919 	0.225
 6.327 	-0.522 	-0.175
 6.296 	-0.236 	-0.451
 6.252 	0.029 	0.068
 6.891 	0.124 	0.061
 6.648 	0.381 	0.011
 6.734 	-0.268 	0.038
 6.673 	-0.502 	-0.246
 6.926 	-0.690 	-0.441
 7.070 	-0.322 	-0.808
 7.110 	0.063 	-0.514
 7.507 	0.077 	-0.323
 7.424 	0.070 	-0.447
 7.396 	-0.352 	-0.439
 7.547 	-0.984 	-0.689
 5.469 	-0.665 	1.366
 4.949 	-0.912 	0.813
 4.693 	-0.704 	0.068
 4.734 	-0.338 	-0.159
 4.989 	0.020 	0.126
 5.443 	-0.272 	0.476
 6.688 	0.173 	-0.197
 6.995 	-0.177 	-0.574
 7.183 	-0.675 	-0.817
 6.972 	-0.578 	-0.449
 6.951 	-0.324 	-0.634
 6.646 	0.056 	-0.629
 6.381 	0.405 	0.059
 6.154 	0.211 	-0.031
 4.974 	-0.731 	0.671
 3.891 	-0.629 	0.712
 3.703 	-0.818 	1.150
 3.985 	-0.353 	0.661
 3.695 	-0.368 	0.264
 3.502 	-0.103 	0.296
 3.736 	0.169 	0.552
 4.202 	-0.035 	0.644
 6.899 	0.472 	0.057
 6.980 	-0.165 	-0.456
 6.934 	-0.565 	-0.341
 6.920 	-0.428 	-0.138
 7.287 	0.265 	-0.201
 6.707 	0.619 	-0.100
 6.787 	0.546 	0.009
 6.599 	0.450 	-0.253
 5.563 	0.823 	0.418
 5.187 	0.362 	0.585
 6.003 	-0.691 	0.316
 3.478 	0.083 	1.420
 3.387 	0.162 	0.994
 4.357 	-0.133 	0.375
 4.739 	-0.118 	0.153
 4.870 	-0.402 	0.288
 6.508 	0.172 	-0.235
 6.449 	-0.169 	-0.100
 6.478 	-0.302 	-0.120
 6.720 	-0.035 	-0.028
 6.806 	0.381 	-0.176
 6.769 	0.787 	-0.151
 6.777 	0.609 	-0.095
 6.422 	0.494 	0.044
 6.514 	1.251 	-0.082
 6.548 	0.650 	-0.388
 6.426 	0.101 	-0.022
 5.215 	0.625 	1.097
 5.186 	0.067 	0.528
 5.287 	0.246 	0.193
 5.956 	0.136 	-0.489
 6.694 	-0.414 	-0.847
 6.062 	0.252 	0.370
 5.915 	-0.033 	0.055
 5.894 	-0.233 	-0.052
 5.992 	-0.429 	-0.114
 6.188 	-0.457 	0.194
 6.362 	-0.227 	0.459
 6.773 	-0.033 	0.453
 7.091 	0.628 	0.054
 6.476 	0.739 	-0.022
 6.180 	0.649 	-0.068
 6.400 	0.672 	-0.041
 7.003 	0.897 	-0.004
 7.057 	0.499 	-0.048
 6.707 	0.335 	-0.247
 7.014 	-0.374 	-0.784
 7.115 	-0.573 	-0.950
 5.552 	0.309 	0.695
 5.588 	-0.204 	0.274
 4.746 	-0.568 	0.210
 4.328 	-0.386 	0.506
 4.495 	-0.477 	0.626
 4.742 	-0.631 	0.408
 5.618 	-0.486 	0.239
 5.979 	0.142 	0.058
 6.206 	0.252 	0.123
 6.137 	0.393 	0.303
 6.523 	0.775 	0.453
 6.762 	0.754 	-0.296
 7.036 	0.560 	-0.653
 7.300 	-0.187 	-0.783
 7.195 	-0.463 	-0.934
 7.227 	-0.573 	-1.179
 5.525 	-0.003 	0.163
 5.175 	-0.496 	0.083
 5.054 	-0.113 	0.211
 5.288 	-0.313 	-0.052
 5.182 	-0.527 	-0.068
 4.694 	-0.493 	0.189
 4.234 	-0.947 	0.873
 4.677 	-0.319 	1.090
 5.337 	-0.057 	0.948
 5.974 	-0.271 	0.592
 6.391 	-0.651 	0.135
 6.985 	-0.027 	-0.144
 6.965 	0.129 	-0.443
 6.488 	-0.409 	-0.788
 6.676 	-0.534 	-1.221
 6.883 	-0.514 	-1.318
 5.764 	0.202 	-0.209
 5.097 	0.346 	0.271
 5.404 	0.059 	0.507
 6.084 	-0.426 	0.016
 5.772 	-0.509 	-0.144
 5.161 	-0.413 	-0.100
 5.230 	-0.644 	0.086
 5.476 	-0.853 	0.205
 5.515 	-0.999 	0.279
 5.956 	-0.923 	0.157
 6.478 	-0.759 	-0.090
 6.863 	-0.668 	-0.194
 6.812 	-0.226 	-0.189
 6.494 	-0.132 	-0.255
 6.507 	-0.381 	-0.631
 6.637 	-0.327 	-0.924
 7.225 	0.090 	-0.148
 6.709 	0.513 	-0.051
 6.471 	0.313 	0.054
 6.267 	0.013 	-0.049
 5.744 	0.020 	-0.377
 5.373 	-0.189 	-0.163
 5.376 	-0.422 	0.370
 5.195 	-0.783 	0.233
 5.454 	-1.328 	0.144
 6.099 	-1.293 	0.032
 6.268 	-0.747 	-0.231
 6.294 	-0.253 	-0.410
 6.480 	-0.141 	-0.123
 6.760 	-0.122 	-0.178
 6.950 	-0.074 	-0.476
 6.157 	0.493 	-0.499
 5.976 	-0.209 	-0.006
 5.857 	-0.140 	0.021
 5.936 	0.247 	-0.033
 5.830 	0.285 	-0.187
 5.709 	0.246 	-0.305
 5.723 	0.189 	-0.062
 6.230 	0.029 	-0.122
 6.666 	-0.515 	-0.598
 6.330 	-0.535 	-0.497
 6.254 	-0.590 	0.419
 6.308 	-0.439 	0.424
 5.974 	-0.082 	-0.059
 5.607 	0.152 	-0.135
 5.688 	-0.025 	-0.323
 5.762 	0.186 	-0.047
 5.188 	0.704 	0.461
 5.468 	1.253 	0.199
 5.416 	0.845 	0.085
 5.446 	0.579 	-0.003
 5.633 	0.403 	-0.139
 5.836 	-0.019 	-0.182
 6.192 	-0.002 	0.110
 6.414 	0.471 	0.472
 6.479 	0.619 	0.265
 6.585 	0.746 	0.110
 6.503 	0.533 	-0.238
 6.353 	0.135 	-0.431
 6.826 	0.223 	0.002
 6.821 	-0.039 	0.255
 6.099 	0.364 	-0.177
 5.871 	0.421 	-0.163
 6.167 	0.198 	0.039
 5.128 	1.078 	0.489
 5.020 	0.528 	0.553
 4.691 	0.008 	0.739
 4.900 	-0.244 	1.044
 5.431 	-0.206 	1.054
 5.945 	-0.374 	0.393
 6.315 	0.055 	0.241
 6.289 	0.319 	0.217
 6.407 	0.079 	0.200
 6.612 	-0.152 	0.279
 6.483 	0.234 	-0.263
 6.471 	0.384 	0.029
 6.252 	0.410 	0.494
 6.400 	0.420 	0.539
 6.548 	0.082 	0.125
 6.661 	-0.315 	-0.082
 5.681 	0.657 	0.309
 5.709 	0.587 	0.255
 5.828 	0.271 	0.003
 6.202 	-0.560 	0.186
 6.450 	-0.663 	0.630
 6.645 	-0.520 	0.664
 6.596 	-0.042 	0.225
 6.276 	0.262 	0.035
 5.898 	0.035 	0.137
 5.983 	-0.306 	0.175
 5.953 	0.167 	0.175
 5.701 	0.781 	-0.103
 5.721 	0.355 	0.341
 6.152 	0.025 	0.627
 6.622 	-0.249 	0.362
 6.734 	-0.718 	0.100
 6.379 	0.852 	-0.095
 6.488 	0.368 	-0.236
 6.768 	-0.441 	-0.121
 6.856 	-0.524 	0.008
 6.894 	-0.242 	0.124
 6.616 	-0.188 	0.553
 6.020 	0.261 	0.629
 5.467 	0.685 	0.307
 5.712 	0.014 	0.024
 5.852 	-0.660 	-0.144
 6.095 	-0.565 	0.008
 6.410 	0.025 	-0.132
 6.321 	0.126 	-0.323
 6.493 	0.009 	-0.059
 7.125 	-0.221 	0.333
 7.343 	-0.446 	0.339
 6.997 	0.730 	-0.078
 7.305 	0.071 	0.028
 7.225 	-0.384 	0.043
 6.426 	-0.826 	0.116
 6.432 	-0.307 	0.171
 6.618 	0.122 	0.387
 6.706 	0.643 	0.357
 6.831 	0.555 	-0.178
 6.638 	-0.118 	-0.398
 6.243 	-0.866 	0.036
 6.468 	-1.440 	0.726
 7.088 	-0.697 	0.429
 7.210 	-0.729 	0.017
 7.189 	-0.818 	-0.094
 7.206 	-0.471 	-0.074
 7.342 	-0.134 	0.208
 7.262 	0.217 	-0.358
 7.601 	0.084 	-0.122
 7.727 	-0.197 	0.004
 7.434 	-0.628 	-0.027
 6.920 	-0.235 	-0.034
 6.712 	0.101 	-0.149
 7.071 	0.435 	-0.116
 7.323 	0.377 	-0.155
 7.303 	-0.100 	-0.215
 7.094 	-0.973 	-0.352
 7.349 	-1.654 	0.527
 7.297 	-1.082 	0.598
 7.218 	-0.896 	-0.078
 6.535 	-0.982 	-0.199
 6.143 	-0.864 	-0.323
 6.505 	-0.654 	-0.204
 7.159 	-0.005 	0.076
 7.517 	0.149 	0.099
 7.462 	-0.207 	-0.043
 7.320 	-0.516 	-0.307
 7.170 	-0.367 	-0.483
 7.239 	-0.225 	-0.533
 7.376 	0.287 	-0.373
 7.286 	0.348 	-0.240
 7.213 	-0.438 	-0.245
 7.258 	-1.133 	-0.182
 6.697 	-0.707 	1.425
 6.829 	-0.410 	0.889
 7.044 	-0.563 	-0.205
 5.928 	-0.670 	-0.151
 5.329 	-0.653 	0.040
 5.732 	-0.602 	0.332
 6.738 	-0.353 	-0.216
 7.080 	-0.147 	-0.336
 7.113 	-0.455 	-0.482
 7.180 	-0.776 	-0.587
 7.270 	-0.731 	-0.899
 6.950 	-0.167 	-0.618
 6.688 	0.443 	-0.069
 6.687 	0.234 	-0.088
 5.598 	-0.471 	0.795
 4.323 	-0.570 	1.393
 4.424 	-0.637 	1.039
 5.418 	-0.475 	0.427
 5.148 	-0.084 	0.129
 4.523 	0.013 	0.231
 4.842 	-0.351 	0.646
 5.256 	-0.811 	0.873
 6.820 	-0.572 	-0.041
 6.974 	-0.464 	-0.418
 6.856 	-0.761 	-0.546
 6.650 	-0.889 	-0.490
 6.300 	-0.682 	-0.317
 6.578 	0.193 	-0.146
 6.809 	0.278 	0.128
 6.571 	-0.293 	0.176
 6.307 	0.004 	0.544
 5.431 	0.237 	0.560
 5.479 	-0.461 	0.570
 5.676 	-0.590 	1.368
 6.349 	-0.078 	0.152
 6.150 	-0.008 	-0.271
 6.536 	-0.383 	-0.542
 6.770 	-0.651 	-0.512
 7.247 	-0.349 	-0.358
 6.858 	-0.381 	-0.249
 6.478 	-0.427 	-0.328
 6.282 	-0.905 	-0.218
 6.372 	-0.872 	-0.103
 6.576 	-0.515 	-0.078
 6.722 	-0.610 	0.001
 6.798 	-0.713 	0.277
 6.874 	-0.588 	0.211
 6.595 	-0.240 	0.049
 6.401 	-0.183 	-0.033
 6.583 	-0.093 	0.637
 7.100 	-0.425 	0.522
 7.513 	-0.470 	-0.128
 7.269 	-0.363 	-0.399
 7.322 	-0.268 	-0.557
 6.135 	-0.020 	0.176
 6.118 	-0.146 	0.120
 6.270 	-0.170 	-0.021
 6.499 	-0.456 	-0.088
 6.791 	-0.577 	0.110
 6.859 	-0.517 	0.332
 6.952 	-0.593 	0.272
 6.839 	-0.633 	0.183
 6.646 	-0.789 	0.124
 6.640 	-0.559 	-0.027
 6.562 	-0.477 	-0.077
 6.807 	-0.140 	-0.153
 7.408 	-0.256 	-0.170
 7.760 	-0.428 	-0.268
 7.806 	-0.593 	-0.668
 7.836 	-0.754 	-0.932
 5.507 	0.157 	0.774
 5.898 	-0.003 	0.539
 6.441 	-0.117 	0.020
 6.714 	-0.506 	0.149
 6.433 	-0.490 	0.263
 6.068 	-0.371 	0.306
 6.134 	-0.835 	0.257
 6.200 	-0.746 	0.345
 6.296 	-0.661 	0.636
 6.565 	-0.766 	0.556
 6.833 	-1.036 	0.176
 6.910 	-0.845 	-0.062
 7.341 	-0.525 	-0.483
 7.875 	-0.463 	-1.095
 8.032 	-0.520 	-1.247
 7.863 	-0.663 	-0.991
 6.331 	0.068 	0.130
 6.790 	-0.098 	0.017
 7.036 	-0.031 	-0.068
 6.982 	0.135 	0.157
 6.517 	0.177 	0.403
 6.592 	-0.279 	0.262
 5.782 	-0.727 	0.682
 5.382 	-0.675 	0.959
 5.727 	-0.648 	1.008
 6.342 	-0.778 	0.780
 6.913 	-1.238 	0.405
 7.201 	-1.280 	0.158
 6.984 	-0.960 	-0.160
 7.225 	-0.517 	-0.622
 7.732 	-0.277 	-1.038
 7.978 	-0.525 	-1.083
 6.846 	-0.060 	-0.254
 6.948 	-0.340 	-0.044
 7.208 	-0.404 	0.001
 7.525 	0.083 	-0.021
 7.661 	0.407 	0.055
 7.379 	0.148 	-0.114
 7.386 	-0.451 	-0.114
 7.537 	-0.379 	-0.080
 7.699 	-0.480 	-0.167
 7.693 	-0.819 	-0.125
 7.408 	-1.025 	-0.171
 7.134 	-1.086 	-0.104
 6.924 	-1.072 	0.007
 6.608 	-1.098 	-0.186
 7.041 	-0.920 	-0.630
 7.604 	-0.920 	-0.923
 6.451 	-0.298 	0.150
 6.159 	-0.476 	0.276
 6.187 	-0.470 	0.031
 6.510 	-0.327 	-0.368
 6.907 	-0.043 	-0.442
 7.318 	-0.026 	-0.332
 7.541 	-0.098 	-0.143
 7.672 	-0.219 	-0.479
 7.593 	-0.643 	-0.510
 7.579 	-1.034 	-0.423
 7.766 	-1.066 	-0.509
 7.807 	-0.691 	-0.656
 7.407 	-0.526 	-0.308
 6.949 	-0.800 	-0.417
 7.218 	-1.180 	-0.592
 6.949 	-1.219 	-0.657
 6.043 	-0.360 	0.645
 5.995 	-0.366 	0.391
 6.098 	-0.215 	0.077
 6.323 	-0.283 	-0.448
 6.634 	-0.128 	-0.697
 7.072 	0.028 	-0.594
 7.407 	0.111 	-0.534
 7.471 	0.023 	-0.612
 7.318 	-0.280 	-0.722
 7.332 	-0.593 	-0.319
 7.401 	-0.554 	0.208
 7.568 	-0.210 	-0.170
 7.663 	-0.053 	-0.392
 7.511 	-0.547 	-0.696
 7.382 	-0.972 	-0.408
 5.596 	0.225 	0.356
 5.765 	1.332 	0.487
 5.727 	1.009 	0.304
 5.530 	0.821 	0.435
 5.660 	0.496 	0.548
 6.015 	0.315 	0.450
 6.375 	0.188 	0.403
 6.668 	0.011 	0.409
 6.807 	0.323 	0.529
 6.974 	0.151 	0.160
 6.965 	-0.212 	-0.253
 6.983 	-0.266 	-0.396
 6.757 	-0.144 	-0.338
 6.859 	0.121 	0.095
 6.911 	0.221 	0.067
 6.576 	0.259 	0.006
 6.561 	0.177 	0.002
 5.569 	1.180 	0.553
 5.452 	1.042 	0.692
 5.478 	0.733 	0.539
 5.632 	0.189 	0.525
 6.002 	-0.210 	0.495
 6.537 	-0.171 	0.312
 6.621 	-0.035 	0.224
 6.539 	0.120 	0.471
 6.681 	0.101 	0.651
 6.774 	-0.343 	0.655
 6.879 	-0.522 	0.136
 6.371 	0.110 	-0.082
 6.122 	0.301 	0.378
 6.429 	0.198 	0.431
 6.723 	-0.112 	0.297
 6.969 	-0.304 	0.164
 5.665 	1.273 	0.417
 5.638 	1.178 	0.037
 5.709 	0.767 	0.064
 5.858 	0.258 	0.236
 6.325 	-0.382 	0.425
 6.604 	-0.675 	0.737
 6.759 	-0.180 	0.487
 6.889 	0.246 	0.229
 6.838 	0.144 	0.306
 6.753 	-0.401 	0.271
 6.705 	-0.601 	0.315
 6.731 	-0.149 	0.038
 6.695 	0.455 	0.242
 6.737 	0.341 	0.244
 6.909 	-0.043 	-0.001
 6.939 	-0.359 	0.066
 5.933 	1.264 	-0.227
 6.100 	1.016 	-0.149
 6.350 	0.279 	0.109
 6.902 	-0.361 	0.136
 7.109 	-0.760 	0.019
 6.872 	-0.537 	0.374
 6.552 	-0.124 	0.802
 6.753 	-0.148 	0.249
 6.794 	0.065 	-0.035
 6.571 	-0.241 	0.162
 6.424 	-0.474 	0.441
 6.412 	-0.502 	0.507
 6.577 	-0.104 	0.257
 6.864 	0.039 	0.130
 7.076 	-0.181 	0.116
 7.341 	-0.454 	0.088
 6.636 	1.054 	0.073
 6.648 	0.457 	0.067
 6.713 	-0.169 	0.068
 6.738 	-0.483 	0.268
 6.741 	-0.673 	0.295
 6.690 	-0.597 	0.343
 6.960 	-0.273 	0.499
 7.117 	-0.287 	0.187
 6.880 	-0.059 	-0.055
 6.525 	-0.240 	0.308
 6.625 	-0.566 	0.691
 6.969 	-0.471 	0.652
 6.984 	-0.277 	0.487
 7.031 	-0.335 	0.396
 7.132 	-0.521 	0.332
 7.351 	-0.736 	0.409
 6.920 	0.824 	-0.251
 6.988 	0.289 	-0.322
 6.975 	-0.047 	-0.071
 6.992 	-0.382 	0.042
 6.996 	-0.695 	-0.108
 7.054 	-0.845 	-0.163
 7.416 	-0.491 	-0.059
 7.342 	-0.184 	-0.126
 7.086 	-0.105 	-0.090
 7.208 	-0.289 	-0.172
 7.331 	-0.620 	-0.061
 7.669 	-0.630 	0.018
 7.781 	-0.554 	-0.068
 7.838 	-0.588 	0.042
 7.491 	-0.799 	-0.029
 7.354 	-0.978 	0.052
 7.330 	0.639 	0.148
 7.370 	0.441 	0.052
 7.255 	0.173 	-0.188
 7.372 	-0.099 	-0.616
 7.382 	-0.427 	-0.659
 7.438 	-0.658 	-0.386
 7.190 	-0.616 	-0.249
 7.198 	-0.350 	-0.051
 7.307 	-0.310 	0.145
 7.562 	-0.706 	0.258
 7.622 	-0.862 	0.467
 7.839 	-0.570 	0.237
 7.871 	-0.383 	-0.195
 8.085 	-0.357 	-0.419
 7.878 	-0.645 	-0.214
 7.079 	-0.635 	0.229
 7.131 	-0.064 	0.042
 7.374 	0.142 	0.112
 7.447 	0.091 	-0.027
 7.411 	-0.195 	-0.205
 7.247 	-0.514 	-0.306
 6.896 	-0.571 	-0.173
 6.436 	-0.726 	-0.106
 6.312 	-0.806 	0.032
 6.466 	-0.469 	0.696
 6.610 	-0.633 	1.285
 6.809 	-0.842 	1.053
 6.483 	-0.816 	0.714
 6.833 	-0.356 	0.391
 7.410 	-0.161 	-0.073
 6.919 	-0.185 	0.169
 6.164 	-0.132 	0.549
 7.652 	-0.449 	-0.246
 7.559 	-0.467 	-0.158
 7.445 	-0.406 	-0.092
 7.263 	-0.408 	-0.285
 7.142 	-0.576 	-0.189
 7.034 	-0.812 	0.149
 6.658 	-0.983 	0.452
 6.567 	-0.927 	0.729
 6.638 	-0.741 	0.628
 6.895 	-0.451 	0.578
 7.087 	-0.571 	0.389
 7.136 	-0.632 	0.675
 7.284 	-0.651 	0.498
 7.427 	-0.634 	0.009
 7.509 	-0.098 	-0.193
 7.377 	-0.045 	-0.247
 7.569 	-0.605 	-0.482
 7.481 	-0.479 	-0.339
 7.530 	-0.295 	-0.347
 7.678 	-0.129 	-0.486
 7.827 	-0.466 	-0.204
 7.761 	-0.823 	0.220
 7.324 	-0.831 	0.325
 7.002 	-0.851 	0.507
 7.006 	-0.677 	0.709
 7.183 	-0.951 	0.309
 7.325 	-0.890 	0.113
 7.568 	-0.659 	0.396
 7.769 	-0.653 	0.390
 7.697 	-0.738 	-0.093
 7.658 	-0.369 	-0.225
 7.693 	-0.143 	-0.169
 6.811 	-0.535 	0.140
 6.959 	-0.502 	0.004
 7.125 	-0.418 	-0.050
 7.333 	-0.324 	-0.052
 7.677 	-0.263 	0.015
 7.984 	-0.373 	0.083
 8.034 	-0.581 	0.260
 7.662 	-0.774 	0.303
 7.242 	-0.977 	0.247
 7.075 	-1.246 	0.200
 7.128 	-1.369 	0.148
 7.543 	-1.182 	-0.272
 7.912 	-0.974 	-0.302
 7.957 	-0.699 	-0.152
 7.814 	-0.443 	-0.486
 7.690 	-0.415 	-0.692
 6.745 	-0.512 	0.431
 7.070 	-0.579 	0.154
 7.294 	-0.368 	-0.156
 7.313 	-0.291 	-0.274
 7.368 	-0.345 	0.184
 7.210 	-0.269 	0.491
 6.962 	-0.470 	0.498
 6.914 	-0.760 	0.528
 7.117 	-0.972 	0.421
 7.184 	-1.315 	0.234
 6.917 	-1.544 	0.195
 7.079 	-1.524 	-0.046
 7.827 	-1.086 	-0.850
 8.260 	-0.697 	-1.524
 8.085 	-0.466 	-1.477
 8.006 	-0.477 	-1.263
 6.913 	-0.867 	0.294
 6.981 	-1.003 	0.117
 7.064 	-0.871 	0.008
 7.186 	-0.441 	-0.082
 7.347 	-0.125 	0.057
 7.399 	-0.087 	0.197
 7.268 	-0.301 	0.449
 7.211 	-0.643 	0.466
 7.272 	-0.784 	0.375
 7.288 	-0.895 	0.194
 7.337 	-1.125 	0.151
 7.303 	-1.254 	0.103
 7.389 	-1.054 	-0.210
 7.689 	-0.750 	-0.813
 8.069 	-0.417 	-1.077
 8.302 	-0.224 	-0.977
 6.496 	-1.071 	0.012
 6.411 	-1.034 	-0.014
 6.543 	-0.908 	-0.040
 6.726 	-0.650 	0.166
 7.075 	-0.375 	0.181
 7.528 	-0.233 	0.214
 7.897 	-0.320 	-0.072
 7.916 	-0.547 	-0.424
 7.883 	-0.669 	-0.465
 7.929 	-0.676 	-0.363
 7.831 	-0.758 	-0.200
 7.605 	-0.930 	-0.034
 7.473 	-1.112 	-0.037
 7.413 	-0.912 	-0.246
 7.474 	-0.646 	-0.519
 7.717 	-0.628 	-0.725
 6.247 	-1.141 	0.099
 6.217 	-1.298 	0.054
 6.428 	-1.093 	-0.129
 6.782 	-0.925 	-0.523
 7.247 	-0.519 	-0.598
 7.608 	-0.161 	-0.519
 7.845 	0.080 	-0.585
 7.974 	0.186 	-0.710
 8.055 	-0.052 	-0.840
 8.135 	-0.351 	-0.864
 8.048 	-0.583 	-0.874
 7.833 	-0.731 	-0.806
 7.748 	-0.758 	-0.713
 7.769 	-0.732 	-0.750
 7.557 	-0.580 	-0.639
 7.229 	-0.705 	-0.440
 6.185 	-0.980 	0.664
 6.455 	-1.338 	0.261
 6.501 	-1.428 	-0.192
 6.716 	-1.330 	-0.317
 7.092 	-1.049 	-0.803
 7.637 	-0.420 	-1.129
 7.949 	0.257 	-1.037
 8.041 	0.366 	-1.256
 8.120 	0.276 	-1.124
 8.293 	-0.072 	-0.506
 8.001 	-0.439 	-0.384
 7.993 	-0.698 	-0.474
 8.117 	-0.530 	-0.431
 7.972 	-0.499 	-0.554
 7.559 	-0.330 	-0.647
 8.068 	-0.576 	0.130
 6.379 	1.052 	0.375
 6.420 	1.161 	0.342
 6.188 	1.022 	0.365
 6.011 	0.833 	0.248
 6.084 	0.719 	0.275
 6.316 	0.596 	0.407
 6.580 	0.359 	0.434
 6.798 	0.202 	0.442
 6.882 	0.034 	0.208
 6.920 	-0.199 	-0.021
 7.033 	-0.351 	-0.223
 7.069 	-0.396 	-0.268
 7.168 	-0.227 	-0.058
 7.377 	0.112 	0.156
 7.324 	0.149 	0.170
 6.950 	0.111 	0.103
 5.848 	1.205 	0.696
 5.674 	1.402 	0.641
 5.693 	1.294 	0.528
 5.834 	1.039 	0.300
 6.052 	0.776 	0.138
 6.467 	0.467 	0.161
 6.672 	0.119 	0.342
 6.833 	-0.029 	0.466
 7.042 	-0.213 	0.397
 7.094 	-0.345 	0.442
 7.168 	-0.436 	0.435
 7.192 	-0.394 	0.251
 7.083 	-0.084 	0.145
 6.955 	0.140 	0.272
 6.789 	0.318 	0.191
 6.887 	0.257 	0.087
 5.853 	1.413 	0.424
 5.847 	1.421 	0.291
 5.975 	1.170 	0.117
 5.926 	0.889 	0.282
 6.204 	0.624 	0.574
 6.662 	-0.130 	0.905
 7.096 	-0.376 	0.813
 7.266 	-0.217 	0.501
 7.272 	-0.104 	0.333
 7.265 	-0.087 	0.254
 7.175 	-0.363 	0.262
 7.167 	-0.366 	0.427
 7.277 	-0.338 	0.385
 7.245 	-0.236 	0.205
 7.325 	0.090 	0.078
 7.249 	0.112 	0.146
 6.367 	1.077 	0.108
 6.325 	1.080 	0.110
 6.320 	0.876 	0.200
 6.485 	0.636 	0.193
 6.666 	0.330 	0.114
 7.008 	-0.245 	0.177
 7.344 	-0.508 	0.389
 7.432 	-0.413 	0.305
 7.210 	-0.382 	0.260
 6.978 	-0.327 	0.349
 6.877 	-0.332 	0.339
 6.550 	-0.316 	0.326
 6.413 	-0.262 	0.476
 6.541 	-0.372 	0.505
 6.785 	-0.265 	0.337
 7.119 	-0.146 	0.216
 6.857 	1.098 	0.208
 6.783 	0.958 	0.168
 6.753 	0.663 	0.021
 6.993 	0.208 	0.021