# vtk DataFile Version 3.0
HighT1
ASCII
DATASET STRUCTURED_POINTS
DIMENSIONS 16 16 19
ORIGIN 929.001000000000 929.001000000000 5.001000000000
SPACING 10.000000000000 10.000000000000 10.000000000000
POINT_DATA 4864
 FIELD attributes 1
U 3 4864 float
4.902 	0.169 	-1.084
 5.604 	-0.222 	-0.877
 4.497 	-0.080 	-0.134
 3.822 	0.425 	-0.126
 3.130 	0.637 	-0.085
 3.229 	-0.222 	0.157
 3.564 	0.905 	0.300
 3.967 	0.724 	-0.084
 4.843 	0.156 	-0.605
 4.772 	0.652 	-0.418
 4.604 	1.116 	-0.349
 3.731 	0.724 	0.002
 3.930 	0.656 	0.103
 4.794 	-0.683 	-0.102
 4.695 	-0.579 	0.023
 4.221 	-0.849 	0.215
 4.078 	0.653 	-0.257
 3.981 	0.714 	-0.085
 4.060 	0.644 	-0.198
 3.220 	0.479 	0.223
 3.974 	-0.323 	-0.558
 5.120 	-0.167 	-1.387
 5.962 	0.932 	-0.582
 4.579 	0.309 	0.301
 4.517 	1.464 	-0.691
 2.851 	0.898 	0.557
 3.325 	0.722 	-0.164
 4.162 	-0.222 	-0.080
 4.784 	-0.217 	0.186
 4.749 	-0.294 	-0.047
 4.700 	-0.686 	0.109
 4.787 	-1.047 	0.107
 2.072 	0.670 	0.113
 2.895 	0.977 	0.009
 2.703 	0.978 	0.251
 2.876 	-0.009 	0.001
 3.082 	0.421 	0.120
 2.959 	0.557 	0.558
 3.699 	0.788 	0.184
 4.518 	1.481 	0.310
 3.581 	1.629 	0.199
 4.367 	0.586 	-0.435
 4.164 	0.594 	-0.073
 4.472 	-0.107 	-0.046
 4.829 	-0.209 	-0.055
 4.861 	-0.411 	0.066
 4.900 	-1.142 	0.097
 4.498 	-0.789 	-0.257
 3.245 	0.235 	-0.234
 3.636 	0.477 	-0.127
 4.207 	-0.021 	-0.122
 3.325 	0.406 	0.050
 2.661 	-0.284 	0.536
 2.321 	-0.108 	0.582
 2.579 	-0.412 	0.589
 3.560 	-0.243 	-0.366
 3.355 	0.008 	0.419
 3.605 	-0.087 	0.781
 4.189 	-0.354 	0.332
 4.054 	-0.464 	0.007
 4.440 	-0.027 	-0.111
 4.939 	-0.670 	-0.690
 4.624 	-0.439 	0.480
 4.664 	-1.038 	-0.338
 2.445 	-0.104 	0.066
 2.412 	0.388 	0.100
 2.916 	0.216 	-0.053
 3.432 	0.165 	0.079
 3.769 	-0.719 	0.091
 3.742 	-0.768 	-0.395
 4.043 	-0.202 	-0.473
 4.367 	0.748 	-0.379
 4.898 	0.487 	-0.531
 3.079 	-0.948 	0.589
 3.149 	-1.722 	0.673
 3.666 	-0.605 	0.206
 3.517 	-0.315 	-0.013
 3.649 	-0.463 	-0.441
 3.385 	-0.243 	-0.093
 3.932 	-0.058 	0.134
 4.037 	-0.404 	-0.195
 3.635 	-0.009 	0.044
 3.333 	-0.540 	0.173
 3.805 	0.132 	-0.402
 3.734 	0.009 	0.222
 3.417 	0.125 	-0.025
 2.917 	-0.623 	0.438
 3.034 	-0.001 	0.250
 4.233 	-0.140 	0.437
 4.328 	-0.471 	-0.364
 3.828 	-1.372 	0.343
 2.901 	-0.201 	0.049
 2.636 	0.167 	0.396
 2.825 	0.664 	-0.257
 3.686 	0.036 	-0.248
 4.095 	0.080 	-0.428
 4.475 	-0.012 	-0.026
 4.431 	0.170 	0.051
 4.031 	0.049 	-0.150
 3.798 	0.204 	0.084
 3.695 	-0.143 	0.184
 3.379 	-0.761 	-0.135
 3.779 	-0.853 	-0.172
 4.582 	-0.846 	-0.453
 4.568 	-0.523 	-0.436
 4.527 	-0.525 	-0.329
 4.540 	0.049 	0.141
 4.222 	0.121 	-0.061
 3.183 	-0.498 	0.235
 3.041 	-0.282 	0.337
 2.631 	-0.167 	0.404
 2.933 	0.212 	0.256
 3.200 	0.379 	-0.013
 2.849 	0.179 	0.142
 2.466 	-0.066 	0.329
 2.528 	0.125 	0.291
 3.369 	0.432 	-0.078
 3.539 	-0.276 	-0.261
 4.115 	-1.235 	0.177
 3.200 	-1.239 	0.330
 4.348 	-0.272 	-0.545
 4.765 	0.356 	-0.515
 4.392 	0.678 	-0.152
 4.792 	0.820 	-0.445
 4.723 	0.107 	-0.229
 4.752 	0.096 	-0.253
 4.582 	-0.325 	-0.198
 4.387 	-0.432 	0.022
 3.179 	0.242 	-0.408
 3.983 	-0.031 	-0.120
 4.486 	-0.373 	-0.088
 4.199 	0.014 	-0.131
 3.901 	0.314 	-0.402
 4.451 	-0.122 	-0.195
 4.654 	-0.552 	0.030
 4.617 	-0.119 	-0.399
 4.291 	-0.129 	0.526
 3.161 	0.700 	0.250
 3.650 	0.525 	0.104
 4.002 	0.485 	0.120
 3.954 	0.579 	0.203
 3.895 	0.177 	-0.045
 4.267 	-0.289 	-0.331
 4.358 	-0.090 	0.097
 4.189 	0.284 	-0.361
 4.323 	0.272 	-0.441
 4.633 	0.196 	-0.492
 4.479 	0.370 	-0.299
 4.267 	0.341 	-0.180
 4.524 	-0.261 	-0.408
 4.665 	-0.170 	-0.167
 3.873 	-0.196 	0.210
 3.952 	0.597 	0.185
 3.634 	0.192 	0.047
 3.983 	0.564 	-0.180
 4.367 	0.683 	-0.194
 4.019 	0.336 	-0.173
 4.190 	0.399 	-0.305
 3.878 	-0.346 	0.084
 3.802 	-0.084 	-0.101
 4.062 	0.552 	0.244
 3.809 	0.839 	0.136
 3.929 	0.793 	0.138
 3.857 	0.747 	0.026
 3.830 	0.489 	-0.298
 3.916 	0.494 	-0.019
 3.577 	-0.617 	-0.103
 3.629 	0.464 	0.430
 3.506 	0.560 	-0.147
 3.564 	0.504 	-0.377
 3.657 	0.325 	-0.291
 3.260 	0.452 	-0.064
 3.759 	0.666 	-0.083
 4.257 	0.441 	-0.567
 4.577 	0.467 	-0.224
 4.441 	-0.225 	-0.284
 2.547 	-0.511 	0.166
 2.672 	-0.141 	0.186
 2.932 	-0.095 	0.297
 3.316 	0.693 	0.151
 3.650 	0.291 	0.195
 4.322 	0.070 	0.437
 4.048 	-0.753 	-0.011
 3.767 	-0.154 	-0.147
 4.140 	0.659 	-0.024
 4.018 	0.799 	-0.039
 3.938 	0.658 	-0.028
 4.272 	0.845 	-0.200
 4.532 	0.619 	-0.034
 4.291 	0.693 	-0.051
 4.283 	0.355 	-0.214
 3.992 	0.383 	0.089
 3.602 	-0.441 	0.264
 3.705 	-0.785 	0.097
 3.572 	-0.275 	-0.043
 3.579 	-0.428 	0.008
 4.002 	-0.461 	-0.011
 3.824 	-0.204 	0.291
 4.245 	-1.000 	0.105
 3.661 	0.092 	0.032
 3.630 	0.510 	0.155
 3.891 	0.184 	-0.022
 4.432 	-0.015 	0.200
 4.384 	0.452 	0.018
 4.343 	0.839 	0.169
 4.393 	0.741 	-0.109
 3.798 	0.817 	0.003
 3.512 	0.527 	0.294
 3.850 	-0.409 	0.256
 3.619 	-0.427 	-0.080
 3.346 	-0.301 	-0.064
 3.918 	0.223 	-0.281
 4.002 	0.179 	-0.261
 4.612 	0.314 	-0.097
 4.229 	-0.233 	0.067
 4.109 	-0.244 	0.052
 4.424 	-0.396 	-0.275
 4.588 	-0.199 	0.083
 4.728 	0.171 	-0.092
 4.457 	0.319 	-0.128
 4.311 	0.804 	0.200
 3.810 	0.164 	-0.271
 4.174 	1.105 	-0.063
 3.818 	0.243 	-0.254
 3.908 	-0.143 	-0.098
 3.529 	-0.074 	0.018
 3.105 	-0.480 	-0.004
 3.206 	-0.162 	0.116
 3.690 	0.242 	-0.021
 3.992 	-0.070 	-0.283
 4.361 	0.252 	-0.147
 4.147 	-0.158 	0.068
 3.968 	-0.443 	-0.197
 3.973 	-0.011 	0.251
 3.771 	0.648 	0.236
 3.666 	0.528 	0.058
 3.732 	0.517 	-0.159
 4.153 	0.804 	0.156
 3.961 	0.325 	0.385
 4.487 	0.170 	0.253
 3.370 	0.223 	-0.254
 3.670 	0.126 	-0.451
 3.627 	-0.220 	-0.192
 2.931 	0.005 	0.029
 2.336 	0.353 	0.127
 2.395 	-0.321 	0.278
 2.737 	0.324 	0.045
 3.073 	-0.075 	-0.274
 3.166 	0.411 	0.443
 2.228 	-0.287 	0.064
 2.091 	-0.170 	0.294
 2.540 	0.305 	0.208
 3.115 	0.083 	0.101
 2.902 	-0.862 	-0.027
 2.495 	-0.149 	0.609
 2.110 	-0.480 	0.269
 5.578 	0.567 	-0.959
 6.356 	-0.085 	-1.619
 6.085 	-0.136 	-0.410
 6.356 	-0.400 	-0.596
 4.769 	0.476 	0.603
 5.190 	0.016 	-0.964
 6.137 	-0.142 	-0.769
 5.985 	0.133 	-0.465
 6.520 	0.555 	-0.879
 7.411 	0.201 	-1.332
 6.929 	1.069 	-0.285
 6.207 	1.240 	-0.211
 5.967 	1.168 	0.191
 5.503 	0.311 	0.494
 5.384 	0.166 	0.145
 5.647 	-0.732 	0.372
 6.391 	0.600 	-0.413
 5.703 	0.261 	-0.676
 4.992 	0.721 	0.554
 5.095 	0.410 	1.041
 5.189 	-0.120 	-0.699
 5.062 	-0.300 	-1.296
 4.973 	0.293 	-0.672
 5.480 	0.590 	-0.273
 5.330 	0.664 	-0.871
 5.838 	1.244 	0.160
 5.104 	1.370 	0.544
 5.543 	1.415 	-0.023
 5.553 	1.641 	0.501
 5.904 	-0.078 	0.529
 5.325 	0.061 	0.392
 5.079 	-1.028 	0.348
 5.081 	0.331 	-0.292
 4.733 	0.966 	-0.295
 4.485 	0.672 	0.608
 4.976 	-0.387 	0.110
 5.097 	0.200 	-1.476
 4.066 	0.279 	0.552
 4.035 	-0.944 	0.176
 3.548 	0.072 	0.706
 3.670 	0.589 	0.715
 4.506 	-0.497 	1.239
 5.194 	1.102 	0.941
 5.293 	0.590 	0.684
 5.914 	0.120 	0.271
 5.389 	-0.089 	0.427
 5.218 	0.571 	-0.054
 4.878 	-0.582 	-0.475
 3.665 	-0.073 	0.403
 4.080 	0.970 	0.415
 4.520 	1.298 	-0.186
 3.302 	0.194 	0.842
 3.214 	0.874 	0.915
 3.799 	0.139 	0.974
 4.174 	0.151 	0.037
 4.540 	0.291 	-0.211
 5.003 	-0.218 	1.056
 5.187 	-0.904 	0.928
 4.927 	-0.033 	-0.103
 5.467 	-0.762 	0.334
 5.624 	-1.200 	0.030
 5.436 	0.163 	0.115
 4.980 	-0.652 	-0.025
 5.097 	0.140 	-0.934
 4.584 	0.187 	-0.270
 4.583 	-0.338 	0.259
 4.420 	0.340 	0.524
 4.661 	-0.126 	0.017
 4.967 	0.194 	0.014
 4.937 	0.163 	-0.084
 5.313 	-0.072 	-0.030
 5.723 	-0.013 	-0.161
 5.706 	0.011 	-0.577
 5.876 	0.246 	-0.494
 5.586 	0.283 	-0.618
 5.219 	-0.361 	-0.066
 5.336 	-1.047 	-0.307
 5.687 	-0.797 	-0.298
 5.643 	-0.187 	-0.469
 6.208 	-0.357 	-0.587
 4.777 	0.561 	-0.367
 5.046 	0.200 	-0.361
 5.127 	-0.215 	0.298
 5.087 	-0.421 	-0.025
 4.953 	-0.453 	0.319
 5.173 	-0.446 	-0.334
 4.569 	-0.179 	0.396
 4.171 	-0.263 	0.869
 4.703 	0.038 	-0.021
 4.913 	1.046 	-0.750
 5.300 	0.298 	-0.216
 5.820 	-0.345 	-0.159
 5.130 	-0.652 	-0.030
 5.650 	-0.893 	-0.433
 6.129 	-0.003 	-0.712
 6.228 	-0.637 	-0.521
 4.795 	0.180 	0.135
 4.710 	0.462 	0.415
 4.671 	0.384 	-0.218
 4.942 	0.045 	-0.571
 4.829 	-0.080 	-0.434
 4.862 	-0.127 	-0.256
 5.075 	0.118 	-0.481
 5.244 	0.134 	0.023
 4.449 	0.389 	0.313
 4.252 	0.183 	0.201
 5.312 	0.638 	0.050
 5.379 	-0.157 	-0.004
 5.889 	-0.363 	0.292
 5.446 	0.339 	0.027
 4.671 	-0.683 	0.651
 5.849 	-0.787 	-0.864
 4.968 	0.021 	-0.302
 4.710 	0.397 	-0.122
 4.313 	0.348 	0.163
 4.270 	-0.027 	0.216
 4.518 	0.388 	0.135
 4.762 	-0.198 	0.080
 4.998 	-0.274 	-0.435
 5.736 	-0.102 	-0.647
 5.549 	-0.220 	-0.379
 5.394 	-0.338 	-0.523
 5.272 	0.212 	-0.195
 5.580 	-0.329 	-0.404
 5.453 	-0.551 	-0.237
 5.760 	0.228 	0.040
 5.514 	0.004 	-0.022
 5.667 	-0.365 	0.082
 4.944 	0.481 	-0.634
 4.660 	0.678 	0.070
 4.722 	0.549 	0.147
 4.607 	0.008 	0.120
 4.668 	-0.425 	-0.127
 4.835 	-0.805 	-0.066
 5.161 	-0.377 	-0.246
 5.025 	-0.163 	-0.520
 5.281 	-0.107 	0.218
 5.503 	-0.171 	-0.495
 5.418 	-0.105 	-0.321
 5.633 	0.169 	-0.616
 5.162 	-0.026 	0.527
 5.541 	-0.448 	-0.501
 5.235 	-0.134 	-0.289
 4.824 	0.041 	0.384
 4.629 	0.549 	-0.552
 5.072 	0.941 	-0.768
 4.957 	0.577 	-0.673
 5.044 	0.025 	-0.611
 4.773 	-0.372 	-0.493
 4.449 	-0.665 	-0.595
 4.851 	-0.210 	0.199
 5.314 	0.503 	0.069
 5.045 	0.511 	0.006
 5.179 	0.222 	-0.319
 4.791 	-0.355 	-0.290
 5.064 	0.030 	-0.449
 5.482 	0.185 	-0.133
 4.996 	0.617 	-0.011
 4.531 	-0.307 	0.145
 4.695 	-0.093 	0.004
 3.021 	-0.194 	0.348
 3.641 	0.019 	0.174
 3.983 	0.590 	-0.064
 3.911 	0.237 	-0.231
 4.580 	-0.305 	-1.179
 4.630 	0.204 	-0.371
 4.525 	-0.045 	0.152
 4.475 	0.093 	0.513
 4.808 	0.604 	0.080
 4.382 	0.347 	0.058
 4.501 	-0.109 	0.048
 5.162 	-0.209 	0.178
 4.966 	0.654 	-0.296
 4.937 	0.229 	-0.055
 4.663 	-0.170 	-0.231
 4.742 	-0.792 	-0.020
 2.957 	-0.188 	0.523
 2.898 	-0.245 	0.648
 2.982 	0.182 	0.976
 3.199 	-0.124 	-0.485
 3.566 	0.383 	-0.198
 3.740 	0.608 	-0.010
 4.146 	0.284 	-0.063
 4.218 	-0.020 	0.264
 4.674 	0.034 	0.330
 4.231 	-0.239 	0.449
 4.874 	-0.531 	0.000
 4.817 	-0.557 	-0.458
 4.772 	0.511 	0.092
 4.936 	0.461 	0.256
 4.580 	-0.460 	-0.348
 4.376 	-0.285 	0.023
 3.469 	0.025 	0.008
 3.434 	-0.274 	0.418
 3.236 	0.065 	0.450
 3.767 	0.205 	-0.516
 4.352 	0.772 	-0.535
 4.612 	0.735 	-0.485
 4.541 	0.595 	-0.407
 4.380 	-0.128 	-0.245
 4.299 	-0.371 	0.229
 4.964 	-0.194 	0.140
 4.582 	-0.672 	0.072
 4.647 	0.176 	-0.346
 4.061 	-0.097 	0.358
 4.175 	0.011 	0.412
 4.386 	-0.239 	-0.182
 4.323 	0.097 	0.312
 4.045 	0.311 	-0.023
 3.706 	-0.225 	0.273
 3.846 	-0.272 	-0.069
 4.249 	0.216 	-0.286
 4.811 	0.220 	-0.396
 4.643 	0.813 	-0.374
 4.888 	0.583 	-0.189
 4.763 	0.480 	-0.399
 4.609 	0.007 	0.002
 5.057 	-0.433 	-0.107
 4.639 	-0.633 	0.125
 4.288 	0.401 	0.226
 4.482 	-0.163 	0.228
 4.335 	-0.256 	0.048
 3.957 	-0.362 	0.376
 4.442 	0.195 	0.309
 4.189 	0.426 	-0.134
 3.955 	0.136 	-0.024
 3.709 	-0.044 	0.053
 3.956 	-0.217 	-0.089
 4.193 	0.053 	0.057
 4.460 	0.503 	-0.050
 4.940 	0.528 	-0.456
 5.112 	0.694 	-0.324
 5.231 	-0.050 	0.188
 4.533 	-0.449 	0.290
 4.203 	-0.095 	0.286
 4.061 	0.452 	-0.006
 3.660 	0.410 	0.376
 3.474 	-0.278 	0.721
 4.237 	-0.672 	0.955
 4.398 	-1.266 	0.594
 3.770 	0.306 	-0.074
 3.636 	0.041 	-0.125
 3.890 	-0.280 	-0.056
 3.620 	-0.702 	0.198
 3.972 	-0.064 	-0.026
 4.212 	0.017 	-0.002
 4.789 	0.183 	-0.034
 4.897 	0.138 	-0.120
 4.740 	0.127 	0.454
 4.730 	-0.253 	0.192
 3.725 	0.111 	0.160
 3.007 	0.237 	0.357
 3.690 	0.552 	0.879
 4.196 	0.123 	0.163
 4.055 	-1.115 	0.225
 4.463 	-1.331 	-0.525
 6.290 	1.531 	0.217
 6.799 	0.439 	-0.305
 6.315 	0.264 	-1.009
 7.059 	0.333 	-0.621
 7.134 	0.545 	-0.421
 6.308 	-0.348 	-0.680
 6.415 	0.076 	-1.059
 6.589 	0.241 	-1.185
 6.905 	0.351 	-0.695
 6.892 	0.287 	-0.882
 6.544 	-0.408 	-0.187
 6.943 	0.428 	-0.196
 6.590 	1.176 	0.082
 5.305 	0.688 	1.533
 5.491 	0.996 	-0.416
 5.069 	0.236 	0.942
 5.772 	0.063 	0.293
 5.080 	-0.215 	-0.194
 4.938 	0.583 	0.700
 5.594 	0.221 	-0.558
 5.968 	0.837 	-0.097
 5.489 	-0.688 	-0.765
 6.080 	-0.058 	-0.839
 6.129 	-0.328 	-0.194
 6.494 	0.759 	-0.677
 5.665 	-0.141 	0.277
 5.832 	-0.498 	0.653
 5.592 	0.932 	-0.677
 4.841 	1.551 	0.548
 4.945 	0.800 	0.729
 5.274 	1.720 	0.463
 5.497 	0.059 	0.433
 5.051 	-0.450 	-0.307
 4.939 	-0.315 	-0.231
 4.811 	0.862 	0.142
 5.104 	0.589 	-0.400
 5.277 	0.402 	-0.667
 5.743 	0.528 	-0.753
 4.623 	0.556 	-0.277
 4.772 	-0.700 	1.005
 4.953 	0.819 	0.544
 5.018 	0.493 	1.116
 5.557 	0.786 	0.151
 5.075 	1.673 	1.158
 5.005 	0.838 	0.808
 6.319 	0.675 	0.541
 6.167 	0.911 	0.715
 5.200 	0.482 	0.556
 4.452 	0.077 	0.420
 4.412 	-0.454 	0.981
 4.404 	0.258 	1.126
 4.338 	0.170 	0.540
 4.321 	0.713 	-0.218
 5.054 	1.183 	0.353
 5.080 	0.844 	-0.608
 5.612 	0.575 	-0.266
 4.334 	1.041 	1.017
 5.524 	1.461 	0.426
 4.653 	0.987 	1.042
 5.418 	1.112 	0.756
 6.058 	0.289 	0.791
 5.596 	0.619 	0.287
 5.580 	1.056 	0.334
 5.358 	0.126 	0.034
 4.206 	0.421 	-0.252
 3.947 	-0.118 	0.784
 4.023 	-0.471 	0.238
 4.958 	0.476 	0.520
 4.269 	1.162 	0.144
 4.824 	1.266 	0.126
 5.093 	0.004 	0.171
 5.602 	0.503 	0.077
 5.147 	1.028 	-0.161
 5.801 	0.298 	-0.537
 6.128 	0.610 	-1.140
 6.088 	0.308 	-0.678
 5.440 	0.317 	-0.407
 5.028 	0.822 	-0.263
 5.368 	0.651 	-0.190
 5.599 	0.476 	-0.686
 5.866 	-0.727 	-0.142
 5.698 	-0.041 	-0.354
 5.796 	-0.115 	0.415
 5.131 	0.207 	-0.035
 4.376 	1.638 	-0.042
 5.113 	1.165 	0.038
 5.445 	0.724 	-0.024
 5.540 	0.057 	0.108
 5.602 	0.050 	-0.551
 5.841 	0.250 	-0.377
 5.768 	0.580 	-0.341
 5.718 	1.362 	-0.605
 5.756 	0.762 	-0.709
 5.728 	0.462 	-0.419
 5.664 	0.576 	-0.690
 6.325 	0.522 	-0.652
 5.395 	-0.352 	-0.147
 5.090 	-0.428 	-0.156
 5.473 	-0.205 	-0.377
 5.299 	0.480 	-0.994
 5.578 	1.277 	-0.437
 5.479 	0.922 	-0.614
 6.031 	1.350 	-0.475
 6.234 	0.736 	-0.628
 5.747 	0.019 	0.164
 5.733 	0.354 	-0.036
 5.717 	1.093 	-0.235
 5.622 	1.440 	-0.330
 5.694 	0.967 	-0.087
 6.109 	0.490 	0.212
 6.074 	-0.277 	0.298
 6.381 	-0.324 	-0.021
 5.233 	-0.117 	-0.051
 4.736 	0.048 	0.294
 5.033 	0.404 	0.044
 4.568 	0.687 	0.389
 4.627 	0.368 	0.292
 5.351 	0.755 	-0.233
 5.726 	0.737 	-0.024
 5.548 	0.718 	0.162
 5.623 	0.057 	0.040
 6.039 	0.057 	-0.201
 5.964 	1.086 	-0.233
 5.720 	1.092 	-0.328
 6.280 	0.608 	0.140
 5.850 	-0.384 	0.521
 6.332 	-0.161 	-0.123
 5.694 	-0.540 	-0.055
 4.883 	-0.527 	-0.288
 4.860 	0.404 	-0.033
 4.773 	0.703 	0.051
 4.864 	0.968 	0.043
 4.579 	0.704 	-0.163
 4.940 	0.296 	-0.292
 5.322 	-0.408 	-0.496
 5.649 	-0.405 	-0.668
 5.965 	-0.196 	-0.408
 5.734 	-0.223 	-0.143
 5.811 	0.347 	0.383
 5.889 	0.701 	0.290
 6.139 	0.144 	-0.200
 6.605 	-0.032 	-0.717
 6.117 	0.287 	-0.142
 5.462 	0.094 	0.217
 5.192 	-0.745 	-0.688
 4.952 	-0.100 	-0.314
 5.220 	0.599 	-0.276
 5.311 	1.017 	-0.408
 5.204 	0.462 	-0.461
 5.712 	0.001 	-0.808
 5.602 	-0.331 	-0.463
 4.984 	-0.362 	0.115
 5.105 	0.164 	-0.513
 5.911 	0.311 	-0.408
 5.046 	0.113 	-0.107
 5.444 	0.458 	-0.629
 5.634 	-0.057 	-0.009
 5.336 	-0.008 	0.208
 4.824 	0.334 	0.329
 5.048 	0.365 	0.116
 3.807 	-0.674 	0.251
 4.368 	-0.023 	-0.418
 4.847 	-0.203 	-0.719
 5.389 	0.669 	-0.475
 5.378 	0.154 	-1.060
 5.021 	0.055 	-0.830
 5.061 	0.409 	0.047
 5.178 	0.222 	-0.253
 4.131 	0.294 	0.087
 4.304 	0.164 	0.293
 4.860 	0.371 	-0.305
 4.810 	-0.325 	0.261
 4.741 	-0.334 	0.535
 4.775 	-0.010 	0.273
 5.141 	-0.263 	0.123
 5.282 	-0.593 	0.420
 4.487 	0.340 	0.297
 3.762 	-0.131 	0.109
 4.094 	0.777 	0.585
 5.387 	0.356 	-1.494
 4.552 	0.562 	-0.656
 4.608 	0.478 	-0.434
 4.145 	0.404 	-0.033
 3.870 	0.058 	0.566
 4.229 	0.097 	0.927
 4.742 	-0.295 	0.592
 4.946 	-0.552 	0.198
 5.127 	-0.467 	-0.378
 4.925 	-0.574 	0.264
 5.462 	-0.294 	-0.001
 5.867 	-0.668 	-0.311
 5.208 	-0.818 	-0.025
 5.898 	0.440 	-0.139
 4.602 	0.850 	0.123
 4.025 	0.983 	0.196
 5.236 	0.374 	-1.149
 4.638 	0.710 	-0.539
 4.767 	0.629 	-0.739
 4.622 	0.730 	-0.444
 4.919 	0.654 	-0.305
 4.924 	0.217 	-0.418
 5.072 	-0.265 	-0.149
 5.209 	-0.460 	0.005
 4.930 	-0.396 	-0.085
 5.006 	0.050 	-0.095
 5.446 	-0.314 	-0.016
 5.271 	-0.306 	-0.343
 5.169 	-0.238 	-0.169
 4.349 	0.854 	0.502
 4.557 	1.341 	0.104
 5.228 	0.673 	-0.286
 4.799 	0.340 	-0.357
 4.910 	0.477 	-0.471
 5.411 	0.816 	-0.577
 4.779 	0.602 	-0.228
 4.672 	0.569 	-0.063
 5.031 	0.751 	-0.539
 5.193 	-0.121 	0.390
 5.343 	-0.614 	0.220
 4.746 	0.025 	0.492
 5.189 	0.088 	0.145
 5.079 	-0.198 	0.169
 4.532 	-0.067 	-0.031
 4.567 	0.052 	0.228
 4.482 	-0.222 	0.518
 4.521 	0.244 	0.166
 4.542 	0.378 	0.379
 4.583 	0.629 	-0.204
 4.521 	0.358 	0.143
 4.822 	0.331 	-0.307
 5.239 	0.748 	-0.523
 4.966 	0.625 	-0.163
 5.113 	0.435 	0.141
 5.299 	-0.166 	0.162
 5.345 	-0.202 	0.112
 5.310 	0.118 	0.182
 4.971 	0.382 	0.148
 4.906 	0.648 	0.140
 4.459 	0.647 	0.393
 4.870 	0.682 	-0.034
 4.804 	-0.355 	0.055
 4.614 	-0.516 	-0.004
 4.579 	-0.129 	0.226
 4.579 	0.621 	0.089
 4.559 	0.486 	0.226
 4.559 	0.625 	0.295
 5.252 	0.871 	-0.368
 5.289 	0.568 	0.252
 5.521 	0.684 	0.196
 5.275 	0.208 	0.124
 5.278 	-0.064 	0.184
 5.028 	0.063 	0.534
 5.315 	0.774 	0.397
 4.884 	0.863 	0.195
 4.851 	0.957 	0.366
 5.478 	0.636 	-0.407
 6.149 	0.844 	0.668
 6.510 	0.986 	0.380
 6.811 	0.301 	0.048
 7.361 	0.853 	-0.115
 7.346 	0.747 	-0.181
 7.078 	0.563 	-0.354
 7.287 	0.590 	-0.730
 6.897 	0.414 	-0.612
 6.985 	-0.282 	-0.646
 6.762 	0.047 	-0.652
 7.208 	0.077 	0.124
 7.175 	0.849 	-0.179
 6.425 	0.491 	0.348
 7.161 	0.817 	0.641
 7.208 	1.406 	-0.017
 6.774 	0.551 	0.350
 5.944 	0.335 	0.746
 6.434 	-0.023 	0.476
 6.138 	-0.913 	0.373
 5.968 	0.028 	-0.433
 6.219 	0.632 	-0.346
 6.584 	0.534 	-0.501
 5.718 	-0.405 	-0.258
 6.681 	-0.178 	-0.356
 6.101 	-0.660 	-0.144
 6.654 	1.181 	-0.547
 6.894 	0.498 	-0.021
 6.859 	0.506 	-0.395
 6.586 	1.400 	-0.287
 6.172 	1.214 	0.896
 6.758 	1.003 	0.131
 6.671 	0.944 	-1.154
 6.879 	0.351 	-0.423
 6.529 	-0.324 	-0.017
 6.138 	0.032 	0.481
 5.683 	-0.492 	-0.162
 5.783 	0.686 	-0.766
 6.107 	0.884 	-0.859
 6.050 	0.129 	0.177
 5.549 	-0.685 	0.726
 5.373 	-0.643 	-0.420
 5.500 	1.060 	-0.114
 5.599 	0.694 	0.544
 5.623 	0.901 	0.579
 5.669 	1.681 	0.762
 6.145 	1.466 	-0.004
 5.935 	1.323 	1.016
 6.354 	1.483 	0.618
 5.415 	0.361 	0.461
 4.822 	0.498 	0.790
 4.465 	-0.013 	0.817
 5.783 	-0.344 	-0.217
 6.525 	-0.161 	-0.770
 6.553 	0.498 	-0.508
 6.041 	-0.239 	-0.795
 5.416 	0.770 	0.106
 4.975 	0.320 	0.037
 4.900 	0.985 	0.129
 5.088 	1.118 	0.839
 5.192 	1.378 	0.601
 5.387 	1.610 	0.852
 5.935 	1.541 	0.463
 5.742 	1.536 	0.890
 6.269 	1.563 	-0.018
 4.788 	0.188 	0.514
 4.696 	0.177 	1.255
 4.879 	0.194 	-0.585
 5.443 	0.038 	0.400
 5.642 	-0.146 	0.161
 5.863 	0.944 	-0.176
 6.935 	0.924 	-0.986
 6.463 	0.830 	0.138
 5.972 	0.269 	0.457
 6.046 	0.838 	-0.602
 5.767 	1.183 	-0.035
 6.668 	0.600 	-0.265
 5.825 	1.325 	-0.566
 6.093 	1.600 	-0.379
 6.287 	1.753 	-0.704
 6.492 	1.454 	-0.841
 6.103 	-0.050 	-0.379
 5.969 	0.156 	0.366
 6.016 	0.410 	-0.085
 6.150 	0.690 	-0.938
 5.994 	-0.026 	-0.018
 5.833 	0.130 	-0.082
 5.786 	1.038 	0.428
 6.428 	1.076 	0.048
 6.532 	0.682 	-0.021
 6.774 	0.162 	-0.605
 7.271 	0.576 	-0.514
 6.788 	0.456 	-0.367
 7.149 	0.660 	-0.569
 7.300 	0.557 	-0.485
 6.872 	0.738 	0.521
 6.481 	1.098 	0.212
 5.933 	-0.287 	-0.245
 5.921 	-0.151 	-0.155
 6.392 	0.178 	-0.108
 6.374 	0.907 	-0.464
 6.876 	1.095 	-0.591
 6.448 	0.724 	-0.342
 6.314 	0.059 	-0.695
 6.922 	0.529 	-0.434
 6.756 	0.264 	-0.274
 6.825 	-0.113 	-0.183
 6.804 	0.643 	0.070
 7.308 	0.687 	-0.611
 6.556 	0.929 	-0.339
 6.002 	0.690 	0.689
 6.252 	0.099 	0.706
 6.560 	0.609 	0.162
 5.408 	-0.076 	-0.085
 6.024 	0.041 	-0.039
 5.363 	-0.004 	0.104
 5.219 	0.241 	0.344
 5.824 	0.848 	0.001
 5.951 	0.647 	-0.349
 5.123 	0.307 	0.362
 5.211 	0.484 	0.418
 5.619 	0.328 	0.043
 6.242 	-0.059 	0.195
 5.976 	0.116 	-0.098
 5.984 	0.972 	0.097
 6.045 	1.852 	0.121
 6.346 	0.887 	0.286
 6.449 	0.233 	-0.435
 6.899 	-0.019 	0.018
 5.370 	0.245 	0.007
 5.564 	0.505 	-0.091
 5.371 	0.461 	-0.048
 5.075 	0.355 	-0.299
 4.713 	0.874 	-0.061
 5.313 	0.548 	-0.373
 5.537 	0.016 	-0.367
 5.608 	0.264 	-0.309
 6.055 	0.225 	-0.301
 5.970 	-0.371 	-0.415
 6.077 	0.303 	0.138
 5.822 	0.893 	0.160
 6.351 	1.366 	-0.048
 6.707 	0.397 	-0.161
 7.121 	0.398 	-0.200
 6.430 	0.618 	0.214
 5.179 	-0.396 	-0.276
 5.579 	0.360 	-0.021
 5.607 	0.960 	-0.302
 5.748 	0.801 	-0.634
 5.929 	0.840 	-0.819
 6.283 	0.290 	-0.913
 6.156 	-0.122 	-0.576
 6.267 	-0.027 	-0.369
 5.710 	-0.235 	-0.863
 5.644 	0.070 	-0.572
 5.427 	0.510 	-0.079
 5.473 	0.657 	0.116
 5.260 	0.118 	0.633
 5.409 	0.107 	0.602
 5.439 	0.190 	0.401
 6.097 	0.821 	0.182
 5.706 	-0.656 	-0.063
 5.235 	-0.117 	-0.481
 5.294 	0.579 	-0.029
 5.806 	0.733 	-0.446
 5.601 	0.445 	-0.649
 5.064 	-0.313 	-0.435
 4.586 	-0.144 	0.355
 4.919 	0.189 	0.214
 5.103 	0.005 	0.485
 5.399 	0.895 	0.320
 5.482 	0.880 	-0.253
 5.487 	0.497 	0.237
 5.232 	0.322 	0.257
 5.161 	-0.217 	0.367
 4.999 	0.384 	0.629
 5.228 	0.508 	0.489
 5.616 	-0.624 	0.313
 5.961 	-0.400 	-0.114
 5.922 	-0.122 	-0.812
 5.690 	0.514 	-0.576
 5.258 	0.171 	-0.666
 4.774 	0.547 	-0.309
 4.609 	0.227 	-0.249
 4.548 	0.368 	0.131
 4.452 	0.555 	0.543
 4.617 	0.818 	0.243
 4.936 	1.169 	0.368
 5.208 	0.959 	-0.061
 5.171 	0.724 	-0.225
 4.934 	0.213 	-0.082
 4.617 	0.500 	-0.265
 4.746 	0.641 	0.069
 5.853 	-0.495 	0.016
 5.784 	-0.360 	0.205
 5.959 	-0.142 	-0.183
 5.832 	0.263 	-0.662
 5.905 	0.162 	-0.768
 5.783 	0.359 	-0.676
 5.816 	0.530 	-0.077
 4.977 	0.630 	-0.593
 5.322 	0.691 	-0.311
 4.724 	0.417 	-0.137
 4.641 	0.160 	0.009
 4.944 	0.447 	0.033
 5.080 	0.377 	0.020
 5.223 	0.265 	-0.101
 5.199 	0.244 	-0.332
 5.497 	0.262 	-0.791
 5.368 	-0.649 	0.544
 5.449 	-0.321 	-0.087
 5.865 	-0.011 	0.014
 5.877 	0.152 	-0.087
 5.584 	0.259 	-0.546
 5.577 	0.603 	-0.311
 5.827 	0.888 	-0.519
 5.894 	0.524 	-0.586
 5.090 	0.738 	-0.422
 4.601 	0.078 	0.099
 4.975 	-0.093 	0.044
 5.258 	-0.161 	0.192
 5.742 	0.204 	-0.266
 5.769 	0.331 	-0.099
 5.750 	0.118 	-0.269
 5.747 	0.274 	-0.084
 4.615 	-0.532 	0.759
 5.122 	-0.010 	0.667
 5.459 	0.285 	0.680
 5.039 	0.021 	0.340
 5.282 	0.237 	-0.380
 5.355 	0.657 	-0.215
 6.127 	0.395 	-0.813
 5.142 	1.000 	0.215
 5.105 	1.069 	-0.181
 5.176 	0.408 	-0.373
 5.195 	-0.145 	-0.120
 5.464 	-0.187 	0.261
 5.396 	0.159 	0.240
 5.622 	0.603 	-0.256
 5.902 	0.579 	-0.288
 5.674 	0.733 	-0.145
 5.143 	-0.372 	0.128
 4.605 	-0.345 	0.536
 4.794 	0.018 	0.780
 4.882 	-0.074 	0.437
 5.096 	0.257 	0.095
 5.313 	0.342 	-0.454
 5.200 	0.799 	-0.252
 4.923 	1.357 	0.091
 5.211 	1.183 	0.048
 5.258 	0.596 	-0.179
 5.296 	-0.130 	0.253
 5.467 	0.067 	0.330
 5.154 	0.252 	0.367
 5.291 	0.654 	0.221
 5.787 	0.529 	0.010
 5.711 	0.836 	-0.327
 5.894 	0.380 	0.215
 5.949 	0.450 	0.336
 6.958 	0.832 	0.869
 7.634 	1.866 	0.587
 7.143 	1.278 	0.251
 7.573 	1.376 	-0.357
 7.361 	0.923 	-0.470
 7.119 	0.482 	-0.456
 7.178 	0.410 	-0.236
 7.151 	-0.040 	-0.530
 7.246 	0.219 	-0.311
 7.596 	-0.245 	-0.219
 7.334 	0.130 	-0.416
 6.906 	-0.448 	0.234
 6.838 	0.885 	0.598
 7.153 	1.085 	-0.767
 6.267 	1.266 	0.367
 6.395 	0.519 	0.863
 6.585 	-0.307 	0.335
 6.780 	1.306 	0.168
 7.271 	1.540 	-0.104
 6.785 	0.706 	-0.148
 7.158 	0.697 	-0.011
 6.839 	1.039 	-0.239
 6.756 	-0.468 	-0.150
 6.596 	0.125 	-0.579
 6.160 	0.316 	-0.340
 6.557 	0.482 	-0.114
 6.364 	0.457 	0.042
 6.579 	-0.546 	0.435
 7.162 	-0.130 	0.493
 7.468 	0.744 	-0.570
 6.732 	1.268 	-0.223
 7.283 	0.218 	-0.034
 7.312 	-0.224 	-0.028
 6.703 	0.730 	-0.049
 6.684 	0.799 	-0.353
 6.596 	0.884 	-0.369
 6.581 	0.863 	0.144
 6.511 	0.637 	-0.401
 6.366 	0.647 	0.027
 5.343 	0.189 	0.191
 5.463 	-0.192 	0.665
 5.766 	0.255 	0.732
 6.683 	-0.280 	0.456
 7.385 	-0.627 	-0.177
 6.837 	-0.104 	0.445
 6.820 	-0.714 	0.505
 6.289 	0.329 	0.788
 6.548 	0.526 	0.961
 7.342 	0.696 	-0.052
 6.724 	0.723 	-0.416
 6.840 	0.994 	-0.713
 6.922 	0.822 	-0.216
 6.558 	0.763 	-0.120
 6.711 	0.093 	-0.795
 6.511 	1.217 	0.646
 5.827 	0.659 	0.009
 6.366 	0.857 	0.168
 6.532 	0.669 	0.102
 7.025 	0.179 	0.384
 6.734 	-0.239 	-0.071
 7.035 	0.373 	0.364
 7.246 	0.326 	-0.017
 5.780 	-0.114 	0.760
 6.260 	0.220 	0.832
 6.639 	0.401 	-0.375
 6.204 	0.736 	-0.397
 6.618 	0.842 	-0.226
 7.560 	0.597 	-0.897
 7.401 	0.821 	-0.964
 6.844 	0.963 	-0.492
 6.823 	1.414 	0.309
 7.128 	0.968 	-0.160
 7.279 	0.961 	-0.547
 7.511 	1.481 	-0.331
 7.263 	0.965 	-0.280
 7.387 	0.255 	0.290
 7.554 	-0.052 	0.208
 7.601 	0.212 	-0.160
 6.139 	-0.119 	0.320
 6.409 	-0.630 	0.305
 6.329 	0.001 	0.032
 6.852 	0.607 	-0.785
 7.137 	1.143 	-0.816
 6.468 	0.441 	-0.035
 6.967 	0.466 	-0.363
 7.529 	1.026 	-0.809
 7.371 	1.118 	-0.402
 7.946 	1.139 	-0.122
 7.312 	0.992 	-0.348
 7.295 	1.450 	-0.140
 7.459 	1.073 	-0.910
 7.351 	0.986 	-0.088
 7.047 	0.073 	0.304
 6.359 	0.066 	0.311
 6.228 	-0.340 	-0.141
 5.835 	-0.959 	-0.156
 6.009 	-0.312 	-0.214
 6.314 	-0.306 	-0.551
 7.104 	1.253 	-0.542
 7.364 	1.047 	-0.486
 6.779 	0.383 	0.008
 6.573 	1.061 	0.159
 6.289 	1.220 	-0.246
 6.615 	0.343 	0.057
 7.313 	0.684 	0.105
 7.466 	1.130 	-0.203
 6.905 	0.730 	-0.180
 6.932 	1.108 	0.115
 6.748 	0.520 	0.727
 6.921 	0.381 	-0.021
 5.920 	-0.630 	-0.372
 5.859 	-0.656 	-0.313
 5.470 	-0.223 	0.028
 5.519 	-0.483 	0.262
 6.507 	0.780 	0.275
 6.293 	0.865 	0.286
 6.382 	0.193 	0.279
 6.602 	0.891 	0.471
 6.967 	1.454 	-0.113
 7.179 	0.464 	0.283
 6.374 	0.196 	0.122
 6.738 	0.721 	-0.336
 6.522 	1.149 	0.130
 7.235 	1.335 	0.047
 7.155 	0.556 	-0.085
 7.041 	0.565 	0.085
 6.196 	-0.605 	-0.465
 6.586 	-0.146 	-0.729
 6.736 	0.052 	-0.628
 6.828 	-0.115 	-0.553
 6.198 	-0.038 	0.052
 6.070 	0.908 	-0.263
 5.685 	0.113 	0.071
 5.728 	0.276 	0.026
 6.332 	1.146 	-0.113
 6.588 	0.948 	0.114
 5.671 	-0.225 	0.239
 5.917 	0.484 	0.313
 6.624 	1.344 	0.075
 6.545 	0.669 	0.299
 6.727 	0.378 	0.120
 6.308 	-0.107 	-0.237
 5.709 	-0.976 	-0.154
 5.873 	-0.036 	0.299
 6.292 	0.330 	-0.068
 6.692 	-0.054 	-0.610
 6.860 	0.198 	-0.737
 6.421 	0.252 	-0.449
 6.594 	0.077 	-0.419
 6.304 	0.073 	-0.058
 6.362 	0.365 	-0.207
 6.237 	0.321 	-0.384
 6.265 	0.305 	-0.153
 5.623 	0.159 	0.296
 5.576 	0.330 	0.703
 5.892 	0.458 	0.639
 6.013 	-0.191 	0.239
 5.949 	0.297 	0.467
 5.937 	-0.405 	-0.214
 5.749 	-0.058 	-0.108
 5.581 	0.350 	-0.141
 5.793 	-0.250 	-0.159
 5.695 	-0.258 	-0.448
 5.909 	0.136 	-0.375
 5.624 	0.004 	0.434
 5.989 	0.073 	0.233
 6.511 	0.636 	-0.146
 6.498 	0.094 	-0.202
 6.189 	0.479 	-0.263
 6.081 	0.973 	-0.208
 6.035 	0.693 	0.329
 5.363 	0.322 	0.036
 5.533 	0.453 	0.146
 5.385 	0.130 	-0.108
 5.481 	-0.253 	0.024
 5.727 	-0.307 	0.067
 5.860 	-0.191 	-0.212
 5.844 	-0.197 	-0.606
 5.789 	-0.069 	-0.211
 5.720 	0.083 	-0.328
 5.909 	0.681 	0.071
 5.770 	0.278 	-0.295
 5.427 	0.514 	-0.380
 4.452 	0.453 	0.222
 4.309 	0.484 	0.108
 4.644 	0.328 	-0.077
 5.189 	0.574 	-0.243
 5.052 	0.653 	-0.410
 4.728 	0.288 	-0.108
 5.198 	0.098 	0.218
 6.097 	-0.385 	0.217
 6.125 	-0.279 	-0.293
 6.199 	-0.189 	-0.204
 6.331 	-0.097 	-0.336
 6.173 	0.035 	-0.525
 5.989 	0.691 	-0.572
 5.933 	0.253 	-0.400
 5.408 	0.461 	-0.508
 4.888 	0.782 	0.161
 4.640 	0.934 	0.679
 4.593 	0.521 	0.466
 5.136 	0.363 	-0.197
 5.027 	0.462 	0.063
 5.093 	0.739 	-0.017
 5.725 	0.153 	-0.429
 6.140 	0.060 	-0.680
 5.533 	-0.887 	0.500
 6.357 	-0.378 	-0.320
 6.540 	-0.396 	-0.544
 6.539 	-0.205 	0.150
 5.941 	0.271 	-0.393
 5.945 	0.467 	-0.403
 5.740 	0.305 	-0.564
 6.112 	1.012 	-0.807
 5.531 	1.218 	-0.190
 5.090 	0.869 	0.264
 5.651 	0.485 	-0.032
 5.700 	0.701 	-0.265
 6.120 	0.792 	-0.279
 6.258 	0.673 	-0.293
 6.271 	0.341 	-0.442
 6.267 	0.087 	-0.182
 5.352 	-0.343 	0.412
 5.092 	-1.024 	0.347
 5.229 	-0.600 	0.126
 5.498 	-0.477 	0.510
 5.792 	0.178 	-0.114
 5.908 	0.423 	-0.420
 5.748 	0.345 	-0.380
 6.067 	0.623 	0.081
 6.180 	1.379 	-0.464
 6.213 	1.184 	-0.417
 6.270 	0.660 	-0.110
 5.965 	0.688 	0.141
 5.930 	0.828 	0.064
 6.162 	0.746 	-0.280
 6.098 	0.273 	-0.491
 6.109 	0.298 	-0.162
 5.856 	0.096 	0.137
 5.170 	-0.211 	0.269
 4.833 	-0.294 	0.761
 4.815 	-0.661 	0.491
 5.044 	-0.342 	0.067
 5.721 	0.042 	-0.261
 5.771 	0.061 	-0.318
 5.729 	0.766 	0.077
 5.693 	1.194 	0.169
 6.014 	0.895 	-0.085
 5.882 	0.736 	0.205
 5.772 	0.772 	0.259
 5.822 	0.852 	0.074
 6.176 	0.990 	-0.054
 5.846 	0.687 	-0.289
 5.701 	0.277 	-0.329
 7.209 	1.322 	0.602
 7.256 	1.660 	0.735
 7.895 	0.957 	1.063
 7.528 	1.948 	0.967
 7.628 	1.892 	0.187
 7.500 	0.987 	-0.218
 7.583 	0.422 	-0.286
 7.664 	0.380 	-0.530
 7.933 	0.357 	-0.531
 8.079 	0.446 	-0.534
 7.758 	0.370 	-0.340
 8.222 	0.592 	-0.204
 8.070 	0.322 	-0.456
 8.169 	0.385 	0.384
 8.533 	-0.071 	0.223
 8.541 	0.189 	-0.673
 7.774 	0.692 	0.147
 7.948 	0.709 	0.391
 7.897 	1.344 	0.287
 7.299 	2.342 	0.208
 7.508 	1.528 	0.197
 7.214 	0.953 	0.123
 7.265 	0.712 	-0.187
 7.248 	0.619 	-0.326
 7.373 	0.396 	-0.434
 7.581 	0.472 	-0.196
 7.641 	0.272 	-0.286
 7.804 	0.440 	-0.282
 7.844 	0.089 	-0.209
 8.051 	0.397 	-0.106
 8.281 	0.690 	0.594
 8.317 	0.469 	-0.471
 7.137 	0.499 	0.318
 7.365 	0.529 	0.281
 7.489 	1.489 	0.266
 7.919 	1.768 	-0.089
 7.915 	1.657 	-0.490
 7.564 	1.074 	-0.026
 7.054 	1.057 	0.077
 7.087 	0.583 	-0.453
 7.427 	0.546 	-0.230
 7.573 	0.666 	-0.134
 7.563 	0.427 	-0.156
 7.507 	0.165 	-0.077
 7.421 	0.520 	-0.104
 7.719 	1.015 	0.083
 7.494 	1.248 	0.325
 7.593 	0.500 	0.028
 6.686 	-0.811 	1.057
 7.302 	-0.239 	0.460
 7.427 	0.890 	0.446
 7.467 	1.368 	-0.331
 7.797 	1.212 	-0.757
 7.711 	1.375 	-0.018
 7.295 	1.112 	-0.183
 7.282 	0.632 	-0.562
 7.789 	0.483 	-0.090
 7.711 	0.630 	-0.349
 7.670 	0.594 	-0.234
 7.362 	0.538 	-0.413
 7.528 	0.934 	0.020
 7.570 	0.735 	-0.246
 7.749 	0.573 	-0.462
 7.727 	-0.168 	0.019
 6.628 	-0.827 	0.817
 6.499 	-0.492 	0.698
 6.788 	0.701 	0.137
 7.003 	0.914 	-0.399
 7.440 	0.937 	-0.617
 7.797 	1.228 	-0.387
 7.801 	0.785 	-0.869
 7.614 	0.810 	-0.710
 7.595 	0.807 	-0.158
 7.524 	0.785 	-0.300
 7.630 	0.714 	-0.551
 7.364 	0.851 	-0.587
 7.891 	1.331 	-0.559
 7.476 	0.914 	-0.285
 7.442 	0.317 	0.226
 7.432 	0.099 	0.272