# vtk DataFile Version 3.0
HighT1
ASCII
DATASET STRUCTURED_POINTS
DIMENSIONS 16 16 19
ORIGIN 929.001000000000 929.001000000000 5.001000000000
SPACING 10.000000000000 10.000000000000 10.000000000000
POINT_DATA 4864
 FIELD attributes 1
U 3 4864 float
2.622 	-0.717 	0.470
 2.756 	-1.191 	0.085
 2.745 	-1.013 	0.465
 3.145 	0.244 	0.802
 2.146 	0.035 	0.847
 3.674 	0.428 	-0.324
 4.092 	-0.876 	-0.249
 3.720 	-0.889 	0.097
 3.119 	-0.586 	-0.024
 3.223 	0.493 	0.162
 3.655 	0.559 	0.111
 3.496 	0.332 	0.194
 3.385 	-0.034 	0.276
 3.186 	-0.331 	0.254
 3.305 	-0.428 	0.154
 3.888 	-0.550 	0.110
 4.446 	-1.049 	-0.288
 4.101 	-0.615 	0.107
 4.913 	-0.803 	-0.417
 5.347 	-0.391 	-0.088
 3.480 	0.476 	-0.164
 3.644 	0.113 	-0.018
 3.978 	-0.586 	-0.332
 4.363 	-0.468 	-0.436
 4.336 	0.057 	0.179
 4.447 	-0.203 	-0.037
 4.119 	0.050 	-0.019
 3.460 	0.087 	0.139
 3.581 	-0.175 	0.050
 3.598 	-0.520 	-0.290
 3.647 	-0.688 	0.232
 3.090 	-1.230 	0.143
 5.011 	-0.399 	-0.827
 5.489 	-0.207 	-0.431
 5.406 	0.168 	-0.209
 4.477 	0.223 	-0.081
 3.929 	0.730 	-0.150
 4.220 	0.539 	-0.317
 3.726 	0.114 	0.049
 3.472 	-0.277 	-0.182
 3.092 	0.592 	0.278
 1.870 	-0.240 	0.626
 2.625 	0.346 	0.488
 3.400 	-0.371 	0.436
 3.558 	-0.618 	0.281
 4.095 	-0.705 	-0.041
 4.667 	-1.512 	0.230
 4.232 	-1.363 	-0.226
 4.213 	0.361 	-0.408
 4.976 	0.900 	-0.536
 5.306 	1.415 	-0.200
 5.047 	0.055 	0.154
 4.301 	0.700 	0.148
 3.732 	0.690 	0.045
 4.117 	0.579 	-0.502
 5.102 	0.621 	-0.396
 5.043 	0.072 	-0.166
 5.294 	0.300 	0.105
 5.247 	0.556 	-0.212
 5.389 	0.494 	-0.375
 5.379 	0.192 	-0.304
 4.301 	-1.287 	0.188
 3.766 	-0.689 	0.177
 3.906 	-1.138 	0.091
 2.859 	0.383 	0.672
 4.077 	1.022 	0.159
 4.553 	1.793 	0.180
 3.847 	0.903 	0.468
 3.060 	0.008 	0.343
 2.795 	0.046 	0.330
 3.309 	0.265 	0.059
 3.946 	0.626 	-0.211
 5.095 	1.055 	-0.644
 5.371 	0.523 	-0.305
 5.275 	0.538 	-0.027
 5.300 	0.472 	0.009
 5.351 	0.515 	-0.031
 4.898 	-0.163 	0.216
 3.291 	-0.508 	0.132
 2.386 	0.244 	0.062
 3.985 	0.036 	0.133
 3.255 	0.615 	0.198
 3.284 	0.188 	0.221
 3.448 	-0.077 	0.145
 3.451 	-0.202 	0.024
 3.426 	-0.359 	-0.169
 3.570 	-0.094 	-0.054
 3.513 	0.216 	0.127
 3.953 	0.695 	0.008
 4.677 	0.764 	-0.051
 4.946 	0.747 	0.062
 4.929 	0.573 	0.063
 5.099 	-0.023 	-0.101
 4.671 	0.207 	0.027
 4.481 	-0.121 	0.142
 4.923 	0.365 	-0.208
 2.380 	0.166 	0.091
 2.282 	0.197 	0.140
 2.478 	0.184 	0.102
 2.561 	0.001 	0.230
 2.987 	-0.360 	0.186
 3.399 	-0.617 	0.289
 3.799 	-0.584 	0.146
 4.005 	-0.493 	0.217
 4.118 	-0.021 	0.176
 4.386 	0.485 	0.108
 4.620 	0.147 	0.235
 4.675 	0.063 	0.041
 4.389 	0.214 	0.085
 4.575 	0.081 	0.154
 5.072 	-0.685 	-0.029
 5.280 	-0.666 	0.091
 3.628 	0.582 	-0.048
 3.768 	0.128 	-0.012
 3.879 	0.456 	-0.182
 3.933 	0.363 	-0.423
 4.046 	0.027 	-0.329
 4.300 	-0.480 	-0.102
 4.523 	-0.408 	-0.134
 4.809 	-0.389 	-0.084
 4.876 	-0.080 	-0.118
 5.244 	-0.062 	-0.004
 5.637 	0.382 	-0.223
 5.754 	-0.063 	-0.078
 5.690 	-0.058 	0.019
 5.858 	-0.297 	-0.058
 6.031 	-1.036 	-0.185
 5.801 	-0.768 	-0.342
 4.363 	0.215 	-0.020
 5.029 	-0.242 	-0.497
 4.754 	-0.388 	0.484
 4.389 	0.601 	0.033
 4.497 	0.665 	-0.185
 4.459 	0.090 	-0.099
 4.637 	-0.236 	-0.064
 4.777 	-0.445 	-0.009
 4.999 	-0.194 	0.043
 5.291 	-0.007 	-0.111
 5.474 	0.106 	0.017
 5.467 	0.241 	0.046
 5.321 	-0.210 	0.039
 5.384 	-0.088 	-0.386
 5.675 	-0.217 	-0.243
 5.830 	-0.254 	-0.299
 3.644 	0.031 	0.061
 3.415 	0.202 	0.052
 3.341 	0.099 	0.116
 3.566 	0.056 	0.243
 3.847 	0.273 	-0.122
 4.423 	0.223 	-0.250
 4.513 	0.133 	0.132
 4.743 	-0.321 	-0.016
 4.880 	-0.835 	0.118
 5.260 	0.105 	-0.167
 5.316 	-0.148 	-0.084
 5.281 	-0.010 	0.139
 4.295 	-0.444 	0.209
 4.429 	0.400 	-0.392
 4.428 	0.320 	0.050
 4.584 	-0.087 	0.029
 5.140 	0.861 	-0.060
 5.587 	0.959 	-0.097
 5.243 	0.305 	-0.539
 4.461 	-0.404 	0.469
 3.573 	-0.311 	0.074
 4.301 	-0.127 	-0.267
 5.043 	0.146 	-0.517
 4.454 	0.226 	0.434
 3.974 	-0.238 	0.099
 3.293 	-0.230 	0.239
 2.930 	-0.189 	0.466
 3.581 	-0.885 	0.387
 4.213 	-0.877 	0.323
 4.348 	-0.189 	0.045
 4.419 	-0.381 	0.156
 5.549 	0.154 	-0.203
 5.018 	1.032 	-0.279
 5.519 	1.109 	-0.083
 5.588 	0.692 	-0.257
 4.836 	-0.033 	0.261
 4.634 	-0.576 	0.059
 3.739 	0.401 	0.005
 3.630 	0.341 	0.062
 3.787 	0.701 	0.224
 3.467 	-0.448 	0.267
 3.311 	-1.273 	0.163
 4.142 	-0.802 	-0.393
 4.567 	-0.847 	-0.383
 4.772 	-0.781 	-0.845
 5.203 	-0.289 	-0.725
 5.581 	0.153 	-0.732
 5.841 	0.105 	-0.478
 3.690 	0.523 	-0.047
 3.962 	0.940 	-0.003
 3.880 	0.526 	0.154
 3.450 	0.021 	-0.119
 3.386 	-0.252 	0.668
 2.647 	0.471 	0.186
 2.781 	0.952 	0.271
 3.895 	0.880 	-0.362
 4.886 	0.045 	-0.762
 4.470 	-0.489 	0.018
 4.294 	-0.230 	-0.127
 3.590 	-0.981 	-0.576
 3.603 	-0.349 	-0.146
 4.080 	0.316 	0.015
 4.925 	0.760 	-0.279
 4.988 	0.824 	0.039
 3.801 	0.378 	0.144
 3.987 	0.751 	-0.240
 4.458 	0.075 	-0.433
 5.736 	-0.117 	-0.392
 6.086 	0.055 	-0.405
 5.399 	0.776 	0.006
 4.238 	0.678 	0.050
 4.389 	0.174 	0.145
 4.903 	0.494 	-0.308
 4.955 	0.105 	0.549
 4.597 	-0.225 	0.011
 3.529 	0.216 	-0.129
 3.477 	0.191 	0.139
 3.403 	-0.772 	0.105
 3.791 	0.402 	-0.021
 3.596 	0.939 	-0.069
 3.825 	-1.149 	0.170
 4.486 	0.187 	0.035
 4.640 	0.007 	-0.048
 4.467 	0.461 	-0.072
 5.368 	0.313 	-0.128
 5.956 	1.224 	-0.281
 5.399 	0.977 	-0.163
 5.727 	0.329 	0.152
 3.653 	0.328 	0.416
 4.188 	0.107 	-0.095
 3.679 	0.086 	0.276
 3.588 	0.370 	-0.258
 3.926 	0.064 	0.244
 4.431 	-0.542 	0.117
 3.287 	0.322 	0.314
 3.577 	0.372 	0.210
 3.240 	-0.447 	0.108
 2.447 	-0.199 	0.368
 2.815 	0.303 	0.308
 3.555 	0.089 	-0.186
 3.911 	-0.188 	0.337
 4.897 	1.121 	0.121
 4.809 	0.461 	-0.231
 5.306 	0.790 	-0.182
 5.728 	0.442 	-0.434
 5.315 	1.446 	-0.093
 5.343 	-0.042 	-0.177
 4.873 	0.447 	-0.184
 4.437 	0.323 	-0.380
 4.164 	0.008 	0.600
 4.333 	0.091 	0.041
 4.648 	-0.025 	0.097
 5.267 	-0.808 	-0.330
 4.772 	-1.389 	-0.127
 3.465 	-1.669 	1.346
 3.950 	-0.179 	0.480
 4.520 	0.648 	0.269
 4.630 	0.965 	-1.381
 4.420 	0.379 	0.339
 4.253 	-0.538 	-0.616
 4.722 	-0.354 	-0.568
 4.822 	0.255 	0.285
 4.425 	0.378 	0.493
 4.275 	1.003 	0.755
 3.989 	0.855 	1.060
 3.883 	0.600 	0.760
 3.943 	0.292 	0.576
 4.478 	0.045 	0.438
 5.237 	-0.496 	-0.926
 5.627 	-0.768 	-0.465
 4.697 	-0.106 	0.030
 3.564 	1.171 	0.782
 4.155 	0.092 	-0.596
 3.454 	1.281 	-0.005
 4.545 	0.893 	-0.490
 5.071 	0.144 	-0.677
 4.747 	-0.586 	-0.484
 4.948 	0.082 	-0.323
 5.006 	0.785 	0.266
 4.559 	0.486 	0.425
 4.544 	0.223 	0.165
 4.121 	0.697 	-0.362
 4.477 	-0.107 	-0.222
 4.691 	0.102 	-0.538
 6.094 	-0.883 	-0.995
 6.515 	-0.811 	-0.879
 5.658 	-0.172 	-0.676
 4.444 	0.829 	1.385
 5.421 	0.192 	0.086
 5.539 	0.976 	-0.119
 5.109 	0.207 	-0.690
 5.024 	0.174 	-0.510
 4.709 	0.106 	0.309
 4.797 	0.168 	-0.088
 5.084 	0.711 	0.207
 5.434 	0.141 	-0.056
 4.850 	0.489 	0.439
 4.748 	0.601 	-0.406
 4.946 	0.384 	-0.380
 4.667 	0.455 	-0.220
 6.432 	-1.157 	-1.071
 6.216 	-1.048 	-0.938
 6.300 	0.188 	-0.931
 5.662 	0.669 	0.686
 4.496 	0.214 	1.208
 5.337 	0.424 	0.436
 6.132 	-0.063 	-0.813
 6.196 	0.584 	-0.768
 5.763 	0.592 	-0.542
 5.684 	0.078 	-0.070
 5.386 	0.230 	-0.114
 5.957 	0.706 	-0.818
 5.739 	0.700 	0.065
 5.664 	0.270 	-0.289
 5.687 	0.926 	-0.812
 5.531 	-0.003 	0.138
 6.005 	-1.119 	-0.468
 6.112 	-0.570 	-0.561
 4.934 	0.766 	0.096
 4.514 	1.298 	1.496
 4.636 	0.458 	0.417
 4.846 	0.172 	0.277
 5.858 	0.348 	-0.695
 6.397 	0.277 	-0.671
 6.262 	0.844 	-0.771
 6.223 	0.386 	-0.002
 5.637 	0.368 	-0.247
 5.242 	0.698 	-0.100
 4.982 	0.888 	-0.001
 4.639 	0.728 	0.192
 5.545 	0.838 	-0.240
 6.365 	-0.020 	-0.230
 4.667 	-0.467 	0.782
 4.716 	-0.631 	-0.117
 4.687 	0.993 	0.665
 5.126 	0.779 	0.237
 5.261 	1.023 	0.227
 5.046 	0.798 	-0.070
 5.494 	0.767 	-0.482
 6.162 	0.419 	-0.634
 6.495 	0.671 	-0.536
 6.388 	0.851 	-0.232
 5.802 	0.692 	0.242
 5.322 	0.961 	-0.156
 5.710 	1.100 	-0.566
 6.029 	0.667 	-0.151
 6.215 	0.292 	0.058
 6.521 	0.202 	-0.088
 5.296 	0.856 	-0.101
 4.871 	0.591 	0.094
 4.741 	0.629 	0.088
 4.790 	0.529 	0.107
 4.763 	0.451 	0.180
 5.025 	0.388 	0.045
 5.280 	0.692 	-0.027
 5.412 	0.705 	-0.015
 5.288 	0.714 	0.338
 4.993 	0.516 	0.334
 5.125 	0.301 	0.513
 5.680 	0.591 	0.264
 6.044 	0.787 	0.303
 5.601 	0.953 	0.300
 5.585 	0.838 	0.305
 6.133 	0.780 	-0.149
 4.588 	1.108 	0.341
 4.560 	0.444 	0.481
 5.149 	0.103 	-0.014
 5.079 	0.327 	-0.253
 5.136 	0.128 	-0.244
 4.737 	0.195 	-0.031
 4.489 	0.384 	-0.238
 5.009 	0.443 	-0.248
 5.548 	0.159 	-0.302
 5.697 	0.185 	-0.524
 6.112 	-0.116 	-0.547
 5.622 	0.643 	0.003
 5.644 	0.553 	0.594
 6.219 	0.279 	0.253
 5.889 	0.292 	0.071
 6.082 	0.699 	-0.443
 4.764 	0.585 	0.168
 4.546 	0.095 	0.071
 4.887 	-0.307 	0.475
 5.381 	-0.429 	0.125
 5.462 	0.089 	-0.188
 5.605 	0.203 	-0.596
 5.420 	-0.052 	-0.333
 5.518 	0.121 	-0.239
 5.566 	-0.232 	0.127
 6.159 	-0.037 	0.100
 5.907 	-0.104 	0.385
 5.953 	-0.059 	0.186
 6.677 	0.407 	-0.355
 6.846 	0.286 	-0.336
 6.618 	0.495 	-0.470
 6.658 	0.213 	-0.701
 5.287 	-0.101 	-0.428
 5.457 	0.228 	-0.219
 4.429 	0.305 	0.346
 4.560 	-0.818 	0.794
 5.183 	0.073 	-0.245
 5.642 	0.150 	-0.396
 5.832 	0.463 	-0.716
 5.500 	-0.170 	0.023
 5.901 	-0.247 	0.180
 5.891 	-0.430 	0.106
 5.813 	0.072 	0.344
 6.175 	0.045 	0.515
 6.230 	0.293 	-0.032
 6.427 	0.498 	-0.375
 6.280 	0.662 	-0.219
 6.450 	-0.185 	-0.546
 4.806 	-0.318 	-0.255
 4.692 	-0.113 	-0.275
 6.121 	0.820 	-0.323
 5.092 	-0.602 	0.544
 5.794 	0.530 	-0.785
 5.609 	0.622 	-0.681
 5.746 	-0.085 	-0.207
 5.915 	-0.074 	-0.020
 5.963 	-0.651 	-0.003
 5.770 	-0.473 	0.233
 5.066 	-0.502 	0.397
 4.996 	-0.277 	0.758
 5.970 	0.772 	0.098
 6.116 	0.552 	-0.342
 6.271 	0.489 	-0.250
 6.579 	-0.017 	-0.377
 4.894 	-0.120 	-0.373
 4.727 	-0.612 	-0.756
 4.503 	0.484 	0.322
 4.737 	-0.003 	0.685
 5.358 	0.193 	-0.072
 5.813 	0.135 	-0.059
 6.249 	-0.481 	-0.291
 6.356 	-0.099 	0.107
 6.229 	0.015 	-0.197
 5.625 	-0.160 	0.200
 5.805 	0.086 	-0.549
 6.400 	0.346 	-0.163
 5.371 	-0.361 	-0.171
 5.873 	-0.302 	-0.359
 6.084 	0.069 	-0.308
 5.610 	-0.496 	-0.207
 4.175 	-0.483 	0.273
 4.489 	-0.073 	0.251
 5.192 	0.049 	-0.190
 5.812 	-0.153 	-0.080
 6.064 	-0.356 	-0.100
 6.220 	-0.441 	-0.183
 6.468 	-0.125 	0.004
 5.966 	-0.852 	-0.680
 6.176 	0.011 	-0.547
 6.600 	0.093 	-0.296
 5.821 	0.071 	-0.793
 5.676 	-0.241 	0.578
 6.254 	-0.579 	-0.322
 4.733 	-1.263 	0.510
 5.024 	-0.364 	-0.171
 5.286 	-0.766 	-0.348
 5.591 	-0.161 	0.063
 5.833 	0.043 	-0.138
 5.726 	-0.172 	-0.472
 5.728 	-0.354 	-0.419
 6.038 	-0.515 	-0.227
 6.282 	-0.149 	-0.075
 6.317 	-0.105 	0.103
 6.124 	-0.613 	-0.018
 6.426 	-0.601 	0.104
 5.878 	-0.257 	0.103
 6.636 	0.016 	-0.261
 6.831 	0.247 	-0.172
 5.914 	-0.216 	0.518
 5.684 	0.025 	-0.035
 5.135 	-0.577 	-0.021
 4.776 	-0.681 	0.281
 5.114 	0.122 	-0.201
 5.041 	-0.148 	0.155
 4.854 	-1.034 	-0.316
 4.904 	-1.079 	-0.448
 4.809 	-0.917 	-0.264
 5.408 	-0.462 	0.110
 5.745 	0.308 	0.018
 5.340 	-0.010 	-0.056
 5.112 	-0.602 	0.053
 5.499 	-0.074 	-0.289
 6.725 	0.745 	0.383
 5.765 	0.332 	0.004
 6.237 	0.256 	-0.222
 5.664 	0.233 	0.159
 4.920 	-0.311 	0.323
 5.042 	-0.690 	-0.144
 3.834 	-0.300 	0.619
 4.084 	-0.533 	0.352
 4.536 	-0.885 	-0.237
 4.785 	-1.068 	0.026
 4.638 	-1.378 	0.214
 4.619 	-0.712 	0.179
 4.486 	-0.452 	-0.404
 5.165 	-0.150 	-0.472
 4.804 	0.074 	-0.393
 4.596 	0.293 	-0.893
 5.325 	0.622 	0.175
 5.985 	0.594 	-0.191
 6.397 	0.671 	-0.878
 6.342 	1.145 	-0.133
 5.366 	0.215 	-0.041
 5.064 	0.160 	-0.261
 5.301 	-0.334 	-0.966
 5.319 	-0.605 	-0.550
 5.503 	-1.308 	0.913
 6.317 	-1.683 	0.479
 4.762 	-1.179 	0.822
 5.647 	-1.054 	-0.755
 5.844 	-0.068 	-0.509
 6.404 	-0.092 	-0.437
 5.753 	-0.536 	-0.382
 5.388 	-0.697 	-0.251
 5.235 	0.454 	0.246
 4.498 	0.948 	1.239
 4.278 	0.867 	1.198
 3.895 	1.256 	1.273
 4.822 	2.075 	0.682
 5.754 	2.599 	-0.006
 6.061 	-0.205 	-0.779
 6.243 	-1.066 	-0.778
 6.055 	-0.847 	-0.314
 7.113 	-1.246 	-0.244
 6.756 	-0.889 	0.769
 6.239 	-0.499 	-0.764
 6.420 	-0.691 	-0.348
 6.197 	-0.511 	-0.502
 5.499 	-0.217 	-0.167
 5.207 	-0.029 	-0.505
 5.203 	0.940 	0.242
 4.854 	1.007 	0.845
 4.528 	0.752 	0.690
 4.447 	0.484 	0.416
 4.680 	0.800 	0.034
 4.937 	1.906 	-0.085
 6.290 	-0.558 	-1.072
 6.585 	-0.972 	-0.955
 6.259 	-0.927 	-0.567
 6.798 	-0.465 	0.632
 7.069 	-0.510 	-0.181
 7.042 	-0.263 	0.022
 6.991 	0.018 	-0.586
 7.060 	-0.340 	-0.256
 5.988 	0.421 	-0.123
 5.101 	0.176 	0.034
 5.148 	0.732 	0.580
 5.836 	0.844 	-0.002
 5.613 	0.636 	0.233
 5.227 	0.425 	-0.091
 4.813 	0.319 	-0.045
 5.181 	1.148 	-0.167
 6.775 	-0.574 	-1.015
 6.858 	-0.731 	-0.807
 6.903 	-0.822 	-0.568
 6.353 	0.221 	0.851
 6.745 	0.163 	0.029
 7.179 	0.257 	-0.293
 6.646 	-0.149 	-1.131
 6.722 	0.264 	-0.517
 6.395 	0.646 	-0.173
 5.783 	0.279 	0.163
 6.091 	-0.024 	-0.459
 5.999 	-0.156 	-0.226
 5.787 	0.770 	0.156
 5.953 	0.612 	-0.570
 6.119 	0.420 	-0.731
 5.359 	1.289 	-0.383
 6.896 	-0.786 	-0.963
 6.898 	-1.070 	-0.633
 6.236 	-0.504 	0.262
 6.133 	0.581 	0.406
 6.537 	0.508 	0.154
 7.141 	0.605 	-0.186
 6.975 	0.367 	-0.889
 6.533 	-0.103 	-0.973
 6.474 	0.754 	-0.177
 6.228 	0.393 	0.095
 6.312 	0.195 	0.042
 5.925 	0.003 	-0.146
 5.891 	0.589 	0.090
 5.443 	0.976 	0.118
 5.471 	0.647 	-0.745
 5.856 	1.292 	-0.617
 6.693 	-0.249 	-0.375
 6.545 	-0.121 	-0.551
 5.411 	0.264 	0.779
 5.683 	0.699 	0.945
 5.928 	0.073 	0.484
 6.589 	0.284 	-0.063
 6.750 	0.125 	-0.540
 6.504 	0.609 	-0.879
 6.572 	0.337 	-0.418
 6.417 	0.230 	0.047
 6.156 	0.268 	0.268
 6.206 	0.086 	-0.043
 6.240 	0.540 	-0.171
 5.925 	0.911 	-0.048
 6.260 	0.467 	-0.196
 6.611 	0.274 	-0.491
 6.760 	-0.113 	-0.596
 6.598 	0.644 	0.001
 5.739 	0.866 	0.422
 5.117 	0.195 	0.368
 5.135 	-0.180 	0.139
 5.284 	-0.233 	-0.070
 5.580 	-0.021 	-0.204
 5.708 	0.474 	-0.017
 5.465 	0.436 	0.258
 5.312 	0.232 	0.478
 5.849 	-0.278 	0.390
 6.298 	-0.218 	0.083
 6.427 	0.301 	0.046
 6.757 	0.550 	0.010
 6.979 	0.791 	-0.045
 6.901 	0.457 	-0.439
 4.485 	0.358 	0.499
 5.105 	0.981 	0.746
 5.568 	1.196 	0.326
 5.874 	0.249 	-0.180
 5.605 	0.101 	-0.169
 5.822 	0.056 	-0.116
 5.556 	-0.287 	-0.007
 5.649 	0.112 	0.110
 6.133 	0.076 	0.085
 6.229 	-0.168 	-0.013
 6.294 	0.046 	-0.014
 6.662 	0.009 	0.024
 6.012 	0.481 	0.676
 6.360 	0.473 	0.351
 6.654 	1.094 	-0.063
 6.964 	0.278 	-0.624
 5.183 	0.969 	0.412
 5.315 	0.315 	0.155
 6.239 	0.189 	0.179
 6.670 	-0.036 	0.258
 6.345 	0.345 	-0.172
 5.953 	0.341 	-0.512
 5.854 	0.203 	-0.493
 5.792 	-0.246 	-0.174
 5.559 	-0.511 	0.015
 6.141 	-0.302 	-0.092
 6.590 	-0.386 	-0.046
 6.753 	-0.353 	-0.217
 6.757 	0.230 	0.114
 6.846 	0.428 	-0.068
 7.079 	0.956 	-0.484
 6.921 	0.584 	-0.205
 5.840 	0.812 	0.289
 5.375 	-0.300 	-0.342
 5.308 	-0.429 	-0.412
 6.157 	0.171 	-0.071
 6.149 	0.413 	0.026
 6.125 	0.548 	-0.219
 5.829 	0.208 	-0.276
 5.390 	-0.393 	0.204
 5.406 	-0.606 	0.280
 5.122 	-0.915 	0.407
 5.821 	-0.513 	0.318
 6.064 	-0.040 	-0.075
 6.319 	-0.060 	-0.043
 6.605 	0.377 	-0.221
 6.424 	0.727 	0.135
 6.397 	-0.188 	-0.338
 5.492 	0.169 	-0.326
 4.797 	-0.109 	-0.161
 4.634 	-0.800 	-0.084
 4.772 	-0.584 	-0.094
 5.584 	0.537 	-0.060
 5.831 	0.345 	-0.188
 5.975 	-0.287 	0.038
 6.099 	-0.708 	0.104
 6.216 	-1.009 	0.068
 6.050 	-0.024 	0.375
 6.029 	-0.320 	-0.523
 6.180 	-0.202 	0.206
 6.391 	-0.778 	0.070
 6.267 	-0.041 	0.177
 6.618 	-0.240 	-0.181
 6.724 	-0.596 	-0.494
 5.888 	-0.592 	-0.435
 5.710 	-0.378 	-0.376
 5.302 	-0.482 	0.660
 5.465 	-0.324 	0.249
 5.771 	-0.467 	-0.172
 6.160 	-0.759 	-0.269
 6.264 	-0.839 	-0.047
 6.369 	-0.841 	0.008
 6.453 	-0.305 	-0.355
 7.059 	-0.122 	-0.021
 6.731 	-0.406 	-0.318
 5.963 	-0.116 	0.220
 6.158 	-0.282 	0.344
 6.318 	-0.699 	-0.175
 6.183 	-0.675 	-0.565
 6.675 	0.044 	-0.608
 5.545 	-0.561 	0.019
 5.762 	-0.569 	-0.147
 6.112 	-0.027 	-0.081
 6.279 	-0.304 	0.159
 6.109 	-0.577 	0.196
 6.129 	-0.647 	-0.187
 6.043 	-0.491 	-0.082
 5.875 	-0.841 	-0.136
 6.087 	-0.907 	-0.437
 6.706 	-0.200 	-0.223
 6.312 	0.217 	-0.166
 6.094 	0.104 	0.522
 5.712 	-0.126 	-0.090
 5.802 	-0.727 	-0.023
 5.697 	-0.262 	0.111
 5.692 	0.080 	0.257
 5.431 	-0.526 	-0.114
 5.169 	-0.672 	0.093
 5.249 	-0.645 	0.102
 5.442 	-1.010 	0.153
 5.886 	-0.598 	-0.057
 5.590 	-0.774 	-0.234
 5.516 	-0.645 	-0.066
 5.519 	-0.786 	-0.463
 5.422 	-0.681 	-0.362
 5.849 	-0.138 	-0.333
 6.047 	0.411 	-0.078
 6.321 	-0.248 	0.147
 5.885 	0.437 	-0.045
 6.164 	-0.094 	0.360
 5.151 	0.214 	0.084
 4.698 	0.158 	-0.057
 5.036 	-0.776 	-0.245
 5.129 	-0.890 	0.325
 5.352 	-1.068 	-0.183
 4.633 	-1.374 	0.157
 4.479 	-1.408 	0.080
 4.834 	-0.937 	0.059
 5.091 	-0.506 	-0.089
 5.391 	-0.517 	-0.063
 4.852 	-0.676 	-0.587
 4.868 	-0.146 	-0.678
 5.234 	-0.056 	-0.394
 5.829 	0.131 	-0.076
 6.448 	0.316 	-0.301
 5.779 	0.083 	-0.018
 5.376 	0.682 	0.208
 4.994 	-0.065 	-0.363
 5.631 	-0.681 	-0.164
 5.557 	-1.169 	-0.369
 5.736 	-0.653 	-0.047
 5.338 	-1.101 	0.188
 4.818 	-1.476 	0.203
 4.748 	-1.037 	0.303
 5.049 	-0.738 	-0.011
 5.178 	-0.513 	-0.352
 5.194 	-0.484 	-0.816
 5.081 	-0.356 	-0.602
 4.902 	-0.187 	-0.360
 5.432 	-0.178 	-0.569
 5.762 	-0.111 	-1.025
 6.118 	0.275 	-0.617
 6.318 	0.640 	-0.602
 6.802 	0.493 	-0.253
 5.535 	0.596 	-0.914
 5.749 	-0.277 	-0.475
 6.235 	-0.531 	-0.402
 6.129 	-1.068 	0.793
 6.844 	-0.819 	-0.084
 5.868 	-0.334 	-0.076
 5.973 	0.632 	-0.288
 6.317 	0.116 	-0.179
 6.438 	-0.367 	0.293
 5.620 	-0.421 	-0.202
 5.495 	-0.363 	0.202
 5.632 	0.798 	1.016
 5.150 	1.090 	1.393
 5.109 	0.417 	0.648
 5.781 	0.867 	0.287
 5.535 	1.861 	0.352
 6.563 	0.109 	-0.647
 6.478 	-0.363 	-0.906
 6.704 	-1.026 	-0.437
 6.897 	-0.364 	-0.370
 6.761 	-0.332 	-0.285
 6.997 	-0.074 	0.070
 6.067 	0.037 	-0.318
 6.512 	-0.427 	-0.233
 6.786 	-0.355 	-0.462
 5.637 	-0.075 	-0.103
 5.339 	0.601 	0.187
 5.617 	1.188 	0.953
 5.508 	1.289 	0.905
 5.302 	0.782 	0.487
 5.340 	0.343 	0.513
 5.430 	1.411 	0.235
 7.008 	0.306 	-0.717
 6.828 	-0.671 	-0.766
 6.604 	-0.935 	-0.459
 6.926 	-0.786 	-0.172
 6.967 	-0.366 	-0.681
 6.782 	-0.290 	0.126
 6.846 	-0.142 	-0.358
 6.747 	-0.279 	-0.301
 6.389 	0.273 	-0.131
 5.413 	0.589 	-0.027
 5.250 	0.404 	0.342
 5.560 	0.448 	0.445
 6.071 	0.713 	0.486
 6.436 	0.935 	0.508
 6.352 	0.369 	0.050
 5.862 	0.862 	0.278
 6.831 	-0.050 	-0.890
 6.884 	-0.824 	-0.898
 6.720 	-0.669 	-0.437
 6.780 	-0.689 	-0.269
 6.973 	0.039 	-0.421
 7.149 	0.098 	-0.610
 7.026 	-0.101 	-0.741
 6.442 	0.272 	-0.342
 5.911 	0.781 	0.152
 5.568 	0.536 	0.037
 6.111 	0.537 	-0.340
 6.177 	-0.040 	0.249
 6.704 	-0.246 	0.112
 5.850 	0.309 	-0.319
 5.755 	0.406 	-0.213
 5.512 	0.907 	-0.178
 7.152 	-0.196 	-0.984
 6.719 	-0.646 	-0.698
 6.534 	-0.742 	-0.014
 6.740 	-0.301 	0.048
 6.900 	-0.095 	-0.333
 6.989 	0.108 	-0.532
 6.511 	0.040 	-0.796
 6.470 	0.344 	-0.158
 6.505 	0.589 	-0.082
 6.412 	0.243 	0.061
 6.492 	0.102 	0.037
 6.481 	0.038 	0.003
 6.723 	0.060 	0.214
 7.024 	-0.118 	-0.170
 6.487 	0.437 	-0.342
 6.381 	0.649 	-0.253
 7.402 	0.075 	-0.612
 6.839 	-0.182 	-0.766
 6.617 	-0.105 	0.390
 6.210 	-0.255 	0.557
 6.062 	-0.111 	0.495
 6.313 	-0.100 	0.167
 6.948 	-0.017 	-0.422
 7.064 	0.049 	-0.720
 6.734 	0.291 	-0.258
 6.507 	0.281 	0.600
 6.640 	-0.116 	0.528
 6.933 	-0.241 	-0.011
 7.418 	-0.072 	-0.164
 7.576 	0.199 	-0.185
 7.126 	-0.222 	-0.118
 6.830 	0.538 	-0.244
 6.397 	-0.096 	-0.735
 6.746 	-0.103 	-0.455
 6.938 	0.442 	0.274
 6.213 	0.532 	0.628
 6.217 	-0.047 	0.174
 5.982 	-0.256 	0.101
 6.177 	-0.172 	-0.115
 6.268 	0.125 	-0.254
 6.477 	0.632 	0.006
 6.929 	0.438 	0.324
 7.052 	-0.036 	-0.189
 7.124 	-0.304 	-0.207
 7.743 	0.135 	-0.333
 7.623 	0.045 	-0.269
 7.183 	0.514 	-0.189
 6.809 	0.213 	-0.111
 6.960 	0.038 	-0.059
 5.788 	0.392 	0.479
 5.743 	0.731 	0.550
 6.711 	0.320 	-0.029
 7.115 	0.286 	-0.284
 7.103 	-0.006 	-0.326
 6.663 	0.314 	-0.257
 6.195 	0.656 	-0.082
 6.545 	0.515 	-0.001
 6.971 	0.425 	-0.066
 7.016 	0.150 	-0.254
 6.874 	0.116 	0.220
 6.577 	0.194 	0.372
 6.443 	0.505 	-0.017
 6.595 	0.431 	-0.068
 7.043 	-0.087 	-0.304
 6.204 	0.851 	0.724
 6.013 	0.129 	0.258
 6.580 	-0.337 	-0.105
 6.996 	0.128 	0.168
 7.236 	0.188 	-0.041
 6.469 	0.191 	-0.235
 6.341 	0.428 	-0.314
 6.223 	0.510 	-0.185
 6.554 	0.371 	0.191
 6.662 	0.133 	-0.105
 6.774 	0.354 	0.035
 6.832 	0.303 	-0.022
 6.757 	0.321 	0.250
 6.801 	0.382 	0.015
 6.738 	0.030 	-0.031
 6.725 	-0.151 	-0.295
 6.312 	0.714 	0.190
 5.707 	0.200 	0.130
 4.820 	-1.157 	0.097
 5.903 	-0.052 	-0.307
 6.630 	0.523 	-0.297
 6.622 	0.567 	0.035
 6.124 	0.478 	0.385
 5.607 	0.118 	0.619
 5.942 	0.160 	0.376
 6.010 	-0.281 	0.458
 6.016 	-0.484 	0.408
 6.210 	-0.420 	0.507
 6.485 	0.063 	0.272
 6.349 	0.172 	0.071
 6.412 	-0.047 	0.019
 6.885 	-0.224 	-0.322
 5.541 	0.683 	0.125
 5.618 	-0.167 	-0.113
 5.916 	-0.782 	-0.142
 4.963 	-0.871 	0.347
 4.918 	-0.345 	0.416
 5.241 	-0.012 	0.766
 5.499 	0.445 	0.478
 5.671 	0.066 	0.010
 6.243 	-0.681 	-0.117
 6.718 	-0.707 	0.182
 7.140 	-0.721 	0.076
 6.749 	-0.450 	-0.115
 6.064 	-0.143 	0.286
 6.192 	-0.077 	0.268
 7.051 	-0.365 	-0.007
 7.240 	-0.821 	-0.503
 5.302 	-0.187 	0.539
 5.884 	-0.586 	0.433
 6.215 	-0.782 	0.134
 6.415 	-0.989 	0.045
 6.316 	-0.546 	-0.045
 6.188 	-0.326 	-0.067
 6.673 	-0.248 	-0.122
 6.849 	-0.804 	0.073
 7.039 	-0.930 	-0.136
 6.916 	-0.798 	-0.264
 6.797 	-0.466 	-0.452
 6.911 	-0.355 	-0.592
 7.036 	-0.018 	-0.177
 7.210 	-0.074 	0.278
 7.130 	-0.681 	-0.236
 6.566 	0.000 	-0.128
 6.227 	-0.554 	-0.245
 6.235 	-0.767 	-0.032
 6.343 	-1.068 	-0.047
 6.544 	-1.009 	-0.072
 6.588 	-0.812 	-0.216
 6.673 	-0.639 	-0.300
 6.655 	-0.780 	-0.201
 7.062 	-0.797 	-0.441
 6.953 	-0.856 	-0.302
 6.467 	-0.905 	-0.456
 6.455 	-0.021 	0.184
 6.710 	0.163 	-0.074
 6.876 	-0.214 	0.412
 6.124 	-0.141 	-0.232
 5.945 	-0.227 	-0.002
 5.663 	0.000 	0.556
 5.793 	-0.916 	0.143
 5.975 	-1.200 	0.080
 5.805 	-1.075 	0.192
 6.209 	-0.753 	0.435
 6.453 	-0.535 	0.240
 6.617 	-0.393 	0.047
 6.679 	-0.505 	-0.057
 6.300 	-0.628 	-0.243
 6.437 	-0.875 	-0.143
 5.802 	-0.671 	-0.374
 5.858 	-0.248 	-0.238
 6.635 	-0.218 	0.059
 6.446 	-0.058 	0.302
 6.320 	-0.405 	-0.189
 6.669 	-0.280 	-0.378
 6.101 	0.023 	0.504
 5.871 	-0.925 	0.065
 6.153 	-1.328 	0.169
 6.189 	-1.111 	0.004
 6.078 	-0.803 	0.538
 6.370 	-0.575 	0.045
 6.798 	-0.701 	0.078
 6.416 	-0.272 	-0.127
 6.496 	-0.202 	-0.398
 6.622 	-0.447 	-0.553
 6.604 	-1.210 	-0.291
 6.382 	-0.273 	-0.178
 5.690 	-0.236 	-0.458
 6.015 	0.403 	-0.155
 6.087 	-0.233 	-0.448
 6.123 	-0.189 	-0.353
 6.371 	0.334 	-0.110
 6.486 	-1.028 	-0.141
 6.628 	-1.235 	-0.618
 6.129 	-1.138 	-0.011
 6.306 	-1.515 	0.045
 6.072 	-0.964 	0.248
 6.510 	-0.982 	0.034
 6.676 	-0.147 	-0.077
 6.523 	-0.404 	-0.253
 6.297 	-0.873 	-0.236
 6.703 	-0.728 	-0.049
 6.337 	-0.526 	0.045
 6.176 	-0.353 	-0.372
 6.294 	-0.269 	-0.418
 6.438 	0.105 	-0.655
 7.316 	0.229 	-0.480
 6.574 	-0.429 	-0.558
 6.018 	0.413 	-0.385
 5.830 	0.121 	-0.257
 5.853 	0.341 	-0.114
 6.068 	0.127 	0.243
 5.991 	0.020 	0.207
 5.959 	0.138 	0.127
 6.091 	-0.320 	-0.058
 6.672 	-0.225 	-0.284
 6.809 	-0.152 	0.055
 7.298 	0.502 	-0.095
 6.848 	0.155 	-0.050
 6.217 	-0.437 	0.531
 6.534 	-0.099 	0.399
 6.756 	0.575 	-0.012
 6.497 	0.606 	0.532
 6.646 	0.874 	0.409
 7.220 	0.396 	-0.330
 6.844 	0.133 	-0.587
 6.777 	-0.272 	-0.194
 6.765 	-0.193 	-0.130
 6.434 	-0.080 	0.032
 6.504 	0.020 	0.231
 6.598 	0.218 	-0.502
 6.767 	-0.134 	-0.394
 6.594 	-0.372 	-0.252
 6.730 	0.403 	0.003
 6.274 	0.230 	-0.019
 6.006 	-0.026 	0.784
 6.346 	0.364 	1.052
 6.174 	1.288 	0.607
 6.182 	0.450 	0.705
 6.300 	0.495 	0.557
 7.286 	0.479 	-0.629
 7.159 	0.036 	-0.562
 7.497 	-0.445 	-0.338
 7.412 	-0.295 	0.005
 7.225 	-0.321 	-0.244
 7.254 	-0.032 	-0.170
 6.954 	-0.330 	-0.321
 6.982 	0.094 	-0.349
 6.747 	0.123 	-0.269
 6.495 	0.402 	0.217
 6.310 	0.896 	0.202
 5.992 	0.213 	0.267
 5.861 	0.101 	0.503
 6.111 	0.724 	0.923
 6.390 	0.239 	0.379
 5.795 	0.593 	0.602
 7.345 	0.421 	-0.671
 7.377 	-0.711 	-0.545
 7.478 	-0.819 	-0.357
 7.723 	-0.799 	-0.467
 7.810 	-0.447 	-0.762
 7.842 	-0.192 	-0.642
 7.561 	0.072 	-0.739
 6.840 	0.047 	-0.051
 6.062 	0.459 	0.304
 6.728 	1.054 	-0.022
 5.903 	0.956 	-0.141
 5.973 	0.922 	0.024
 6.005 	0.354 	0.273
 6.213 	0.137 	0.264
 6.224 	-0.055 	0.084
 5.912 	0.333 	0.104
 7.380 	0.172 	-0.916
 6.621 	-0.814 	-0.430
 6.520 	-0.698 	-0.182
 6.720 	-0.573 	-0.346
 7.038 	-0.311 	-0.570
 7.159 	-0.018 	-0.500
 7.117 	0.286 	-0.468
 6.481 	0.627 	0.185
 6.200 	0.984 	0.188
 5.980 	0.674 	0.198
 6.278 	0.526 	0.109
 6.569 	0.364 	0.061
 6.979 	0.217 	-0.035
 6.641 	0.036 	0.060
 6.931 	0.197 	0.006
 6.361 	0.746 	-0.008
 7.231 	0.393 	-0.670
 6.076 	-0.657 	-0.153
 6.039 	-0.495 	-0.128
 6.177 	-0.454 	0.485
 6.726 	-0.193 	0.224
 6.584 	-0.133 	0.003
 6.968 	0.566 	-0.373
 6.741 	0.734 	-0.198
 6.714 	0.673 	0.187
 6.765 	0.536 	0.579
 7.066 	0.336 	0.474
 7.033 	0.162 	-0.270
 7.223 	0.252 	-0.185
 7.320 	0.332 	-0.199
 6.822 	-0.017 	0.113
 7.115 	0.655 	0.059
 7.147 	0.476 	-0.307
 6.219 	-0.509 	-0.160
 6.263 	-0.378 	0.191
 6.447 	-0.510 	0.287
 6.588 	-0.383 	-0.000
 6.845 	-0.308 	-0.031
 6.638 	-0.075 	-0.017
 6.771 	0.137 	-0.262
 6.987 	0.225 	-0.425
 7.310 	0.237 	-0.194
 7.641 	0.209 	-0.269
 7.557 	0.136 	-0.355
 7.395 	0.010 	-0.401
 7.355 	0.223 	-0.212
 7.169 	0.286 	-0.050
 6.997 	0.436 	-0.012
 6.638 	0.416 	-0.052
 5.958 	-0.248 	0.280
 5.921 	-0.359 	0.380
 6.047 	-0.434 	0.181
 6.025 	-0.565 	-0.207
 6.469 	-0.325 	-0.356
 6.297 	-0.229 	-0.318
 6.307 	-0.083 	-0.289
 6.416 	-0.113 	-0.225
 6.662 	0.102 	-0.217
 6.839 	0.178 	-0.339
 6.866 	0.145 	0.110
 6.642 	-0.124 	0.299
 6.766 	0.272 	-0.072
 6.820 	0.220 	-0.034
 6.815 	0.475 	-0.087
 6.108 	-0.047 	0.232
 6.257 	-0.002 	0.645
 6.266 	-0.176 	0.539
 6.087 	-0.702 	-0.088
 5.588 	-0.686 	-0.229
 5.829 	-0.150 	-0.389
 5.871 	0.044 	-0.443
 5.901 	0.092 	-0.163
 6.140 	0.111 	0.139
 6.250 	0.210 	-0.018
 6.344 	0.225 	0.245
 6.452 	-0.035 	0.212
 6.751 	-0.207 	0.283
 6.787 	-0.369 	0.280
 6.918 	0.121 	0.208
 6.658 	0.285 	-0.035
 5.751 	0.174 	0.295
 5.864 	0.263 	0.399
 5.371 	-0.411 	0.136
 5.192 	-0.717 	0.245
 5.302 	-0.502 	0.156
 5.112 	-0.334 	0.299
 5.122 	-0.278 	0.598
 5.370 	-0.197 	0.796
 5.649 	-0.002 	0.750
 5.878 	-0.174 	0.867
 6.180 	-0.291 	0.905
 6.326 	-0.532 	1.080
 6.357 	-0.740 	0.859
 6.681 	-0.654 	0.327
 6.949 	-0.448 	0.119
 7.092 	-0.366 	-0.036
 5.231 	0.175 	0.276
 5.268 	0.507 	0.108
 5.264 	-0.264 	-0.006
 5.339 	-0.458 	0.497
 4.842 	-0.563 	1.078
 5.115 	-0.071 	0.671
 5.646 	-0.030 	0.277
 6.318 	-0.424 	0.050
 6.732 	-0.769 	0.022
 7.156 	-0.586 	0.007
 6.910 	-0.517 	-0.030
 6.429 	-0.541 	-0.036
 6.800 	-0.536 	0.100
 6.753 	-0.443 	-0.351
 6.751 	-0.823 	-0.432
 7.212 	-0.647 	-0.559
 5.112 	0.060 	0.305
 5.359 	0.297 	0.357
 5.909 	-0.293 	0.203
 6.402 	-0.789 	0.024
 6.252 	-0.455 	0.032
 6.201 	-0.380 	0.578
 6.890 	-0.885 	0.569
 7.334 	-0.831 	0.356
 7.078 	-0.928 	-0.029
 6.858 	-0.646 	-0.232
 6.770 	-0.443 	-0.269
 6.867 	-0.269 	-0.325
 6.893 	-0.104 	-0.133
 7.131 	-0.195 	-0.184
 7.179 	-0.563 	0.339
 6.532 	-0.290 	0.041
 5.929 	0.056 	-0.487
 6.028 	-0.296 	-0.231
 6.421 	-0.808 	0.103
 6.528 	-0.930 	0.016
 6.595 	-0.686 	-0.181
 6.743 	-0.707 	-0.151
 6.872 	-1.261 	-0.079
 6.989 	-1.111 	-0.356
 6.630 	-0.978 	-0.144
 6.555 	-0.768 	-0.008
 6.574 	-0.685 	-0.063
 6.460 	-0.552 	-0.130
 6.634 	-0.558 	0.154
 6.985 	-0.075 	0.176
 6.310 	-0.226 	0.405
 5.885 	0.407 	0.439
 6.303 	0.181 	0.025
 6.300 	-0.544 	0.266
 6.397 	-1.160 	0.199
 6.729 	-1.146 	0.030
 7.025 	-1.028 	-0.043
 7.042 	-1.037 	-0.248
 7.521 	-1.264 	-0.233
 6.866 	-0.828 	-0.418
 6.140 	-0.822 	0.113
 6.451 	-1.116 	-0.057
 6.474 	-0.740 	-0.049
 5.972 	-0.727 	-0.089
 6.274 	-0.770 	0.178
 6.644 	-0.542 	0.133
 6.181 	0.223 	0.460
 6.588 	-0.057 	0.614
 6.418 	0.175 	0.076
 6.308 	-0.538 	0.223
 6.367 	-1.312 	0.331
 6.691 	-1.505 	0.397
 7.049 	-1.342 	0.068
 7.482 	-0.869 	-0.327
 7.338 	-0.928 	-0.159
 6.926 	-0.824 	-0.387
 7.020 	-0.544 	-0.262
 7.013 	-0.967 	-0.675
 7.428 	-1.059 	0.024
 7.732 	-0.710 	-0.376
 7.052 	-0.974 	-0.379
 7.487 	-0.710 	-0.626
 7.387 	-0.142 	-0.116
 6.566 	-0.732 	-0.076
 6.367 	0.451 	-0.557
 6.654 	-0.407 	-0.539
 6.978 	-1.167 	-0.485
 7.412 	-1.487 	-0.375
 7.639 	-1.510 	-0.036
 7.436 	-1.369 	0.328
 7.329 	-0.488 	-0.114
 7.781 	-0.881 	-0.405
 7.978 	-0.700 	-0.729
 7.605 	-1.353 	0.114
 6.553 	-0.762 	0.597
 7.057 	-0.818 	-0.433
 6.781 	-1.008 	-0.353
 6.941 	-0.871 	-0.231
 7.270 	-0.462 	-0.128
 7.511 	0.177 	-0.479
 6.614 	0.899 	-0.001
 6.347 	0.208 	-0.221
 6.325 	0.088 	-0.033
 6.431 	0.050 	0.232
 6.483 	0.027 	0.478
 6.482 	-0.210 	0.137
 6.888 	-0.383 	-0.372
 7.052 	-0.401 	0.099
 6.699 	-0.644 	0.591
 7.623 	0.404 	0.155
 7.509 	0.464 	0.688
 6.909 	-0.045 	0.326
 6.891 	0.167 	0.141
 7.411 	-0.057 	-0.402
 7.247 	0.464 	0.188
 6.995 	0.731 	0.307
 7.334 	0.771 	-0.006
 7.921 	0.020 	-0.399
 7.561 	0.400 	-0.484
 7.050 	0.084 	0.218
 6.722 	-0.180 	0.484
 7.135 	-0.869 	-0.022
 7.692 	-0.373 	-0.348
 7.681 	-0.254 	-0.461
 7.601 	-0.469 	-0.378
 6.278 	0.186 	0.777
 5.998 	0.324 	0.460
 5.878 	-0.066 	0.154
 6.026 	0.070 	0.583
 6.085 	0.101 	0.616
 6.210 	0.376 	1.156
 6.148 	0.701 	0.821
 8.202 	0.434 	-0.525
 7.632 	0.351 	-0.208
 7.429 	0.670 	-0.001
 7.376 	0.145 	0.026
 7.877 	-0.323 	-0.084
 7.852 	-0.580 	-0.522
 8.223 	-0.321 	-0.169
 8.210 	-0.240 	-0.727
 8.230 	0.142 	-0.483
 7.220 	0.229 	0.381
 6.998 	0.417 	0.421
 5.848 	0.520 	0.079
 5.445 	0.240 	0.561
 5.694 	0.188 	0.744
 5.895 	0.314 	0.724
 5.855 	0.469 	0.587
 7.773 	0.469 	-0.308
 7.862 	0.468 	-0.484
 8.292 	-0.125 	-0.110
 8.379 	0.099 	-0.386
 7.879 	-0.333 	-0.553
 7.564 	-0.448 	-0.527
 7.404 	-0.047 	-0.558
 7.155 	-0.110 	-0.099
 7.485 	0.404 	0.340
 7.003 	0.665 	0.279
 7.081 	0.301 	0.180
 6.115 	0.817 	-0.043
 6.186 	0.692 	0.225
 6.417 	0.153 	0.044
 6.101 	0.026 	0.326
 5.942 	0.367 	0.189
 7.889 	0.466 	-0.434
 7.434 	-0.295 	0.028
 7.542 	-0.388 	-0.547
 7.635 	-0.251 	-0.696