# vtk DataFile Version 3.0
HighT1
ASCII
DATASET STRUCTURED_POINTS
DIMENSIONS 16 16 19
ORIGIN 929.001000000000 929.001000000000 5.001000000000
SPACING 10.000000000000 10.000000000000 10.000000000000
POINT_DATA 4864
FIELD attributes 1
U 3 4864 float
2.331 	0.399 	0.434
 2.750 	0.070 	0.043
 3.076 	0.209 	0.125
 3.408 	1.505 	0.209
 3.824 	1.903 	-0.124
 5.184 	1.492 	-0.631
 5.727 	-0.193 	-0.580
 5.424 	-0.578 	-0.855
 3.462 	-0.122 	0.325
 3.146 	-0.370 	0.146
 3.642 	-0.105 	0.342
 4.112 	-0.140 	-0.096
 5.093 	0.067 	-0.824
 4.944 	0.786 	-0.201
 4.462 	0.905 	-0.506
 4.269 	0.207 	-0.319
 4.079 	0.045 	-0.132
 3.997 	-0.602 	0.082
 3.727 	-0.330 	0.069
 2.971 	0.871 	-0.014
 3.413 	0.845 	-0.081
 3.144 	0.591 	0.174
 4.116 	0.371 	-0.259
 4.803 	0.082 	-0.625
 4.200 	0.351 	-0.054
 4.727 	0.373 	-0.230
 3.998 	0.139 	0.059
 4.469 	0.503 	-0.428
 3.838 	0.083 	0.141
 2.860 	0.527 	0.438
 3.815 	0.474 	-0.011
 5.064 	1.298 	-0.068
 3.028 	-0.171 	0.106
 3.977 	0.493 	-0.304
 2.988 	-0.435 	0.560
 2.494 	0.286 	0.764
 3.356 	0.399 	0.210
 3.916 	0.987 	-0.283
 3.764 	0.451 	-0.123
 3.851 	0.684 	0.052
 2.929 	-0.245 	0.312
 2.773 	-0.688 	0.495
 3.681 	0.771 	0.310
 4.297 	1.059 	0.211
 4.789 	0.937 	0.228
 3.547 	0.802 	0.187
 3.312 	0.632 	0.093
 3.224 	0.645 	-0.133
 3.965 	-0.370 	-0.222
 3.651 	-0.123 	0.191
 3.241 	0.533 	0.221
 3.227 	0.016 	-0.151
 2.957 	0.134 	0.066
 2.652 	0.739 	0.158
 3.380 	0.845 	-0.183
 2.819 	-0.139 	0.451
 2.828 	0.004 	0.413
 3.189 	-0.729 	0.342
 3.456 	0.341 	0.137
 3.854 	0.949 	0.227
 3.445 	0.095 	0.171
 3.728 	0.455 	0.134
 4.602 	0.094 	-0.122
 3.910 	0.310 	0.207
 2.810 	0.075 	0.315
 3.113 	-0.089 	0.089
 3.026 	-0.037 	0.149
 3.045 	-0.059 	0.025
 2.365 	-0.213 	0.428
 2.711 	-0.206 	0.209
 2.930 	-0.039 	0.064
 3.317 	0.100 	0.336
 3.135 	-0.672 	0.016
 3.833 	-0.633 	-0.320
 3.544 	-0.012 	-0.255
 3.779 	0.498 	-0.138
 3.242 	-0.332 	0.314
 3.546 	0.207 	0.219
 3.082 	-1.311 	0.542
 3.518 	-0.204 	0.050
 4.233 	-0.290 	0.059
 4.162 	0.102 	-0.186
 3.957 	0.022 	0.091
 4.452 	-0.274 	-0.320
 4.360 	-0.370 	-0.260
 3.922 	-0.296 	0.116
 3.645 	-0.163 	-0.063
 3.925 	0.436 	-0.260
 3.700 	-0.328 	0.127
 3.365 	-0.371 	0.179
 2.815 	-0.672 	0.366
 3.486 	-0.418 	-0.057
 3.880 	0.105 	0.246
 4.310 	-0.243 	0.232
 4.217 	-0.801 	-0.064
 2.776 	-0.586 	0.542
 4.375 	0.477 	0.046
 3.906 	-0.302 	0.085
 4.495 	-0.296 	-0.045
 5.029 	-0.097 	-0.292
 4.357 	-0.104 	-0.045
 4.411 	0.253 	0.137
 4.142 	-0.432 	0.343
 3.798 	0.142 	0.098
 3.702 	0.163 	0.118
 3.695 	-0.217 	-0.269
 3.939 	-0.323 	-0.151
 3.864 	-1.289 	0.223
 4.283 	-0.565 	-0.018
 4.404 	-0.592 	-0.036
 3.548 	-0.295 	0.273
 3.449 	0.046 	0.261
 3.720 	0.448 	0.348
 3.097 	-0.431 	-0.136
 3.324 	-0.321 	-0.055
 4.008 	0.203 	-0.183
 3.640 	0.684 	-0.106
 2.593 	0.304 	0.066
 2.534 	0.117 	0.105
 3.025 	0.132 	-0.144
 3.407 	-0.083 	-0.109
 3.840 	0.038 	-0.324
 4.402 	-0.066 	-0.564
 4.485 	-0.471 	-0.341
 3.840 	-0.750 	0.034
 4.971 	0.183 	-0.996
 5.150 	-0.086 	-0.353
 4.877 	0.213 	-0.016
 4.596 	-0.156 	-0.441
 4.804 	-0.108 	-0.382
 4.052 	0.356 	0.260
 2.350 	0.435 	0.221
 2.970 	0.832 	-0.077
 3.778 	0.853 	-0.359
 4.162 	0.254 	-0.196
 4.295 	-0.320 	-0.069
 3.939 	-0.251 	0.127
 3.871 	0.042 	0.015
 4.152 	-0.358 	0.081
 4.370 	-0.460 	0.029
 4.469 	0.089 	-0.148
 4.276 	0.056 	0.042
 3.918 	0.523 	-0.252
 4.263 	0.611 	0.108
 4.204 	0.017 	-0.412
 4.375 	0.412 	-0.056
 4.325 	1.012 	0.139
 4.230 	0.982 	-0.188
 3.763 	0.559 	-0.165
 3.998 	0.854 	-0.053
 4.485 	0.574 	-0.271
 4.634 	-0.103 	-0.251
 4.374 	-0.199 	-0.111
 3.922 	-0.261 	-0.196
 4.284 	-0.425 	0.201
 3.834 	0.093 	0.440
 3.857 	0.303 	-0.243
 3.604 	0.236 	0.179
 3.625 	0.432 	0.162
 4.148 	0.421 	-0.051
 2.908 	-0.071 	0.133
 3.468 	0.257 	0.079
 3.685 	0.872 	0.071
 3.931 	0.623 	-0.068
 4.136 	0.584 	0.150
 4.014 	0.486 	-0.004
 3.686 	0.529 	-0.118
 4.013 	0.621 	-0.409
 3.943 	0.440 	-0.194
 4.243 	0.273 	-0.241
 3.897 	0.292 	-0.196
 3.422 	-0.095 	0.155
 2.973 	0.117 	0.103
 3.446 	-0.134 	-0.017
 3.471 	-0.064 	-0.215
 3.676 	0.080 	-0.154
 3.138 	-0.198 	-0.006
 2.978 	-0.273 	-0.228
 3.090 	0.688 	0.156
 2.622 	0.208 	0.348
 2.592 	-0.333 	0.127
 2.499 	-0.453 	0.196
 3.161 	0.182 	0.247
 3.121 	0.599 	-0.115
 3.577 	0.391 	-0.014
 3.325 	0.649 	0.076
 3.091 	0.123 	0.388
 3.425 	-0.121 	0.145
 4.049 	-0.067 	-0.213
 4.007 	0.178 	-0.174
 4.200 	0.435 	-0.104
 3.561 	0.687 	-0.193
 2.944 	0.251 	0.316
 3.449 	-0.302 	-0.212
 3.311 	0.050 	0.404
 3.571 	-0.170 	0.178
 4.071 	-0.622 	0.204
 3.848 	-0.554 	0.076
 2.941 	-0.299 	0.194
 2.557 	-0.017 	0.424
 2.187 	0.183 	0.394
 3.054 	-0.123 	0.380
 3.854 	-0.392 	-0.407
 3.956 	-0.342 	-0.092
 3.629 	-0.074 	0.203
 3.399 	0.367 	0.220
 3.630 	-0.038 	0.060
 4.123 	0.294 	0.094
 4.020 	-0.455 	0.005
 3.842 	0.109 	-0.015
 3.985 	0.208 	-0.021
 4.455 	0.105 	-0.158
 2.764 	-0.609 	0.367
 3.012 	-0.503 	-0.012
 3.431 	-0.337 	-0.173
 3.708 	0.061 	-0.222
 3.618 	0.263 	-0.099
 4.220 	0.214 	-0.471
 4.146 	0.174 	-0.200
 4.246 	0.024 	0.180
 4.115 	-0.669 	0.059
 4.472 	-0.497 	-0.105
 4.832 	-0.269 	-0.162
 4.729 	0.251 	-0.166
 2.689 	-0.494 	0.425
 2.797 	0.044 	0.083
 3.202 	0.073 	-0.137
 3.495 	0.191 	0.001
 4.201 	-0.232 	-0.263
 3.863 	-0.216 	0.159
 3.393 	-0.423 	0.115
 3.039 	-0.341 	0.112
 3.396 	0.299 	-0.058
 3.703 	0.230 	-0.118
 3.961 	0.218 	-0.162
 4.279 	0.314 	-0.090
 3.667 	-0.282 	0.132
 3.589 	-0.500 	-0.180
 3.633 	0.114 	0.320
 4.018 	0.817 	-0.052
 3.239 	-0.294 	0.079
 3.509 	-0.404 	0.220
 2.940 	-0.236 	0.203
 3.201 	0.108 	-0.127
 3.442 	0.214 	-0.233
 3.374 	-0.206 	-0.062
 3.174 	-0.295 	0.065
 2.474 	0.082 	0.009
 2.161 	0.355 	0.301
 2.715 	-0.220 	-0.406
 2.951 	-0.001 	0.229
 3.049 	0.110 	0.067
 3.019 	0.153 	0.053
 2.443 	-0.204 	-0.018
 2.926 	-0.156 	-0.137
 3.146 	0.345 	0.224
 5.271 	0.273 	0.264
 4.608 	-0.378 	0.425
 5.501 	0.686 	0.159
 5.741 	0.795 	0.577
 5.073 	1.174 	0.437
 5.298 	0.793 	0.615
 5.915 	1.869 	-0.004
 5.394 	0.847 	-0.533
 5.319 	0.261 	0.337
 6.053 	-0.201 	-0.415
 6.385 	-0.157 	-0.092
 5.456 	-0.398 	0.004
 6.041 	-0.462 	-0.614
 6.367 	-0.048 	-0.743
 6.027 	0.566 	-0.609
 6.166 	0.224 	-0.053
 5.643 	1.398 	-0.257
 5.567 	0.644 	-0.409
 5.228 	-0.578 	0.809
 5.463 	0.663 	0.068
 5.116 	0.618 	0.384
 5.363 	0.077 	0.357
 5.120 	1.005 	-0.082
 5.825 	0.473 	-0.713
 5.168 	0.239 	0.406
 5.397 	0.849 	0.190
 5.118 	0.158 	-0.429
 4.448 	-0.563 	-0.376
 4.953 	-0.492 	-0.950
 5.976 	0.200 	-0.661
 5.726 	0.713 	-0.887
 6.674 	0.794 	-0.549
 5.039 	0.145 	-0.922
 5.625 	0.793 	-0.611
 5.254 	0.739 	0.457
 5.200 	-0.372 	0.199
 5.965 	1.530 	-0.405
 5.681 	-0.427 	-0.666
 5.630 	0.570 	-0.581
 5.367 	0.644 	-0.260
 5.615 	0.482 	0.363
 5.411 	1.207 	0.216
 4.369 	-0.331 	0.091
 4.161 	0.341 	-0.272
 4.899 	-0.456 	0.098
 4.808 	0.303 	0.683
 4.641 	1.591 	0.947
 4.107 	0.317 	0.689
 4.209 	0.364 	0.060
 4.758 	0.061 	0.209
 4.533 	0.065 	0.407
 4.661 	0.137 	0.277
 4.407 	0.280 	-0.116
 3.609 	-0.329 	0.323
 3.376 	0.634 	0.990
 3.609 	0.851 	0.685
 3.396 	-0.168 	0.675
 3.881 	0.536 	-0.522
 3.636 	0.229 	0.393
 3.442 	-0.192 	0.289
 4.201 	-0.318 	-0.199
 4.676 	0.656 	0.373
 4.683 	-0.213 	0.866
 5.193 	-0.184 	0.367
 4.321 	0.196 	0.389
 4.213 	0.099 	0.255
 3.993 	0.020 	0.530
 3.453 	0.155 	0.455
 3.672 	-0.158 	0.412
 4.470 	0.083 	0.131
 4.441 	-0.015 	-0.216
 4.733 	0.546 	0.112
 4.558 	0.062 	0.080
 4.546 	-0.079 	0.296
 4.693 	0.138 	-0.131
 4.637 	-0.301 	0.033
 4.639 	0.620 	0.275
 4.883 	0.725 	-0.034
 5.432 	-0.204 	-0.069
 5.988 	-0.296 	-0.027
 5.417 	-0.259 	-0.064
 5.831 	-0.052 	-0.039
 5.142 	0.122 	-0.021
 4.713 	-0.369 	0.026
 4.623 	-0.554 	0.294
 4.793 	-0.192 	0.292
 4.576 	0.586 	-0.041
 5.179 	0.360 	-0.199
 5.074 	0.294 	-0.233
 4.495 	-0.264 	0.516
 4.318 	-0.205 	-0.001
 4.276 	-0.406 	0.164
 4.014 	-0.384 	0.283
 4.371 	0.240 	0.770
 5.124 	0.240 	0.294
 6.011 	0.334 	-0.841
 5.666 	-0.163 	-0.619
 5.804 	-0.111 	0.028
 6.159 	0.038 	-0.462
 5.433 	-0.168 	-0.021
 5.023 	-0.141 	0.261
 4.798 	-0.053 	0.203
 4.763 	0.292 	0.424
 4.596 	0.196 	0.344
 5.086 	0.504 	-0.089
 5.225 	0.720 	-0.426
 5.221 	-0.277 	-0.281
 4.811 	-0.486 	-0.350
 5.111 	0.014 	-0.374
 4.865 	-0.109 	-0.137
 4.386 	-0.072 	0.294
 4.671 	0.097 	0.602
 4.935 	-0.148 	-0.680
 5.285 	0.013 	-0.737
 5.498 	0.353 	-0.041
 5.809 	0.345 	0.021
 5.143 	0.069 	-0.397
 5.142 	0.300 	-0.470
 5.267 	0.187 	0.077
 5.089 	0.377 	-0.118
 4.443 	-0.066 	0.102
 4.475 	0.504 	-0.261
 4.524 	-0.151 	-0.143
 4.843 	-0.426 	-0.005
 4.857 	-0.142 	-0.387
 5.231 	-0.217 	-0.554
 5.822 	0.049 	-0.620
 5.510 	-0.096 	-0.440
 5.083 	-0.517 	0.158
 5.169 	-0.064 	0.077
 5.013 	-0.032 	-0.036
 4.737 	0.409 	-0.120
 4.787 	0.190 	-0.301
 4.462 	-0.417 	-0.601
 4.754 	0.172 	-0.526
 4.649 	0.721 	0.239
 4.411 	0.207 	0.427
 4.543 	-0.179 	0.247
 4.563 	-0.429 	0.237
 4.609 	-1.028 	-0.162
 5.246 	-0.739 	-0.469
 5.248 	-0.214 	-0.222
 5.396 	-0.041 	-0.450
 5.420 	-0.117 	-0.277
 3.464 	-1.357 	-0.007
 3.718 	-0.437 	0.044
 4.085 	0.253 	-0.022
 3.935 	0.205 	-0.069
 4.355 	0.025 	0.026
 4.288 	0.153 	-0.047
 4.483 	0.043 	-0.788
 4.944 	0.797 	-0.561
 5.062 	0.465 	-0.377
 5.155 	0.277 	-0.301
 4.671 	-0.502 	-0.286
 4.866 	-0.697 	-0.169
 4.882 	-0.428 	-0.135
 4.503 	0.365 	0.427
 5.309 	0.392 	-0.234
 4.681 	-0.023 	-0.454
 4.149 	-0.951 	0.223
 4.162 	-1.216 	0.032
 3.881 	0.323 	0.167
 3.911 	-0.140 	0.573
 3.836 	-0.293 	0.378
 3.871 	-0.369 	0.635
 3.938 	0.527 	0.030
 4.201 	0.314 	-0.063
 4.338 	0.570 	0.145
 4.642 	0.264 	-0.437
 4.762 	-0.378 	-0.760
 5.237 	0.300 	-0.806
 4.498 	-0.375 	0.261
 4.856 	0.403 	-0.009
 4.977 	0.220 	-0.251
 4.844 	0.312 	-0.215
 3.735 	-0.990 	0.365
 3.373 	-0.885 	0.071
 3.857 	0.154 	-0.008
 3.144 	0.384 	0.347
 2.819 	-0.402 	0.288
 3.366 	-0.643 	0.505
 3.087 	-0.108 	0.784
 3.278 	0.161 	0.454
 4.056 	0.740 	-0.585
 4.025 	0.208 	-0.646
 4.243 	0.158 	0.117
 4.422 	0.765 	0.105
 4.454 	0.024 	0.045
 4.692 	0.107 	0.046
 4.273 	-0.048 	0.187
 4.494 	-0.337 	0.126
 5.272 	-1.006 	0.282
 4.599 	-0.194 	-0.149
 3.342 	0.417 	0.672
 3.544 	0.598 	0.322
 3.552 	0.184 	-0.206
 3.709 	-0.154 	0.158
 3.176 	-0.119 	0.341
 3.117 	0.196 	0.172
 3.663 	0.452 	-0.153
 4.055 	1.075 	0.049
 4.402 	1.069 	-0.572
 4.744 	0.451 	-0.557
 4.731 	0.128 	-0.379
 4.432 	-0.370 	0.292
 4.567 	-0.201 	0.323
 5.121 	-0.703 	0.279
 4.383 	-0.065 	0.230
 4.151 	-0.522 	-0.149
 4.143 	-0.158 	-0.010
 4.182 	0.083 	-0.340
 4.348 	-0.068 	0.086
 4.501 	-0.119 	0.289
 3.676 	-0.326 	0.466
 3.798 	-0.456 	0.331
 4.268 	0.134 	-0.303
 4.076 	0.912 	-0.349
 4.419 	0.789 	-0.552
 4.948 	0.610 	-0.269
 4.564 	0.429 	-0.118
 4.431 	0.163 	-0.044
 4.999 	0.068 	-0.423
 5.189 	-0.023 	0.091
 4.169 	0.071 	0.444
 4.403 	-0.173 	-0.037
 4.041 	-0.500 	0.039
 3.994 	-0.362 	-0.122
 4.333 	0.105 	-0.038
 4.023 	-0.120 	0.005
 3.862 	-0.067 	0.129
 3.762 	-0.551 	-0.003
 3.697 	-0.501 	0.034
 3.972 	0.186 	0.006
 4.128 	0.420 	0.059
 4.647 	0.380 	-0.161
 4.783 	0.484 	-0.316
 4.271 	-0.395 	0.183
 4.211 	0.002 	-0.094
 3.988 	0.049 	-0.043
 4.062 	-0.224 	0.039
 4.428 	-0.561 	-0.173
 4.399 	-0.633 	0.153
 4.582 	-0.114 	-0.411
 4.222 	0.065 	-0.273
 3.624 	0.089 	-0.075
 3.284 	-0.551 	0.170
 3.539 	-0.658 	0.096
 3.449 	-0.856 	0.217
 3.750 	-1.075 	0.228
 4.051 	-0.367 	-0.018
 4.198 	0.076 	-0.303
 4.750 	0.631 	-0.594
 4.681 	0.334 	0.496
 4.121 	-0.412 	0.414
 3.776 	0.007 	0.071
 6.956 	-0.063 	-0.038
 7.255 	0.441 	-0.539
 6.322 	-0.048 	0.475
 6.048 	-0.014 	0.621
 6.443 	0.589 	0.458
 6.800 	1.547 	0.529
 7.182 	0.730 	-0.022
 6.823 	1.772 	0.476
 5.881 	0.548 	0.133
 6.167 	1.959 	-0.658
 6.373 	0.639 	-0.020
 6.434 	0.643 	-0.307
 6.569 	0.221 	-0.443
 6.687 	-0.166 	-0.645
 6.692 	0.674 	-0.852
 6.647 	0.277 	-0.747
 7.108 	0.550 	-0.490
 7.432 	0.625 	-0.700
 7.705 	1.114 	-0.259
 7.375 	0.103 	0.492
 5.710 	0.812 	0.669
 6.459 	1.152 	0.551
 6.483 	1.486 	0.754
 6.174 	1.270 	0.156
 5.942 	0.479 	-0.074
 6.354 	0.883 	0.054
 6.153 	0.688 	-0.430
 6.050 	0.271 	-0.074
 5.767 	-0.138 	-0.495
 5.361 	-0.427 	-0.026
 5.860 	0.147 	-1.282
 5.562 	-0.021 	-0.776
 7.270 	1.359 	-0.133
 5.529 	0.138 	0.347
 4.978 	0.300 	0.972
 5.212 	0.527 	0.963
 5.034 	-0.184 	0.566
 4.594 	-0.204 	0.402
 5.231 	0.086 	-0.232
 5.644 	0.721 	-0.199
 5.085 	0.486 	0.982
 5.256 	0.463 	0.612
 5.054 	0.637 	-0.081
 5.159 	0.585 	-0.467
 4.105 	-0.057 	0.133
 4.122 	-0.152 	0.362
 4.069 	-0.789 	0.676
 4.354 	0.362 	0.584
 5.883 	1.652 	-0.134
 5.524 	0.625 	0.932
 5.162 	0.249 	1.013
 4.926 	-0.031 	0.502
 4.859 	-0.472 	0.154
 4.667 	0.115 	0.161
 4.084 	0.281 	0.708
 4.020 	0.250 	0.766
 4.650 	0.281 	-0.045
 4.687 	0.736 	-0.189
 4.929 	0.743 	0.188
 5.316 	0.547 	-0.685
 5.851 	0.513 	-0.497
 5.676 	0.488 	-0.503
 6.218 	-0.013 	0.915
 5.121 	0.659 	0.736
 5.185 	1.269 	0.973
 5.505 	0.312 	0.482
 5.842 	0.044 	0.619
 5.332 	0.017 	0.568
 4.783 	-0.611 	0.194
 4.389 	0.111 	0.186
 4.361 	0.055 	0.680
 4.446 	0.223 	0.834
 4.420 	0.215 	0.541
 4.121 	0.517 	0.604
 4.336 	0.803 	0.670
 4.367 	0.691 	0.278
 4.809 	0.369 	-0.041
 5.407 	0.371 	0.129
 5.876 	0.395 	-0.372
 4.595 	0.805 	-0.179
 5.317 	0.703 	-0.262
 5.614 	0.340 	0.176
 5.729 	-0.234 	0.539
 5.613 	-0.051 	0.311
 5.236 	0.030 	0.226
 5.596 	-0.052 	0.027
 5.889 	-0.804 	-0.120
 5.818 	0.189 	-0.244
 5.527 	-0.006 	-0.181
 4.584 	0.333 	0.381
 4.697 	0.814 	-0.101
 4.854 	0.695 	0.218
 4.174 	0.085 	0.517
 5.170 	0.069 	0.066
 5.326 	0.648 	-0.071
 5.564 	0.875 	-0.573
 5.939 	0.156 	-0.017
 6.225 	0.068 	-0.366
 5.928 	-0.080 	-0.101
 5.340 	0.291 	0.301
 5.448 	0.033 	0.323
 5.309 	-0.582 	0.116
 5.589 	-0.338 	0.200
 5.588 	0.121 	-0.196
 5.374 	-0.354 	-0.079
 6.276 	0.170 	-0.366
 5.345 	0.869 	-0.284
 5.109 	1.050 	-0.168
 5.087 	0.507 	-0.683
 5.296 	1.116 	-0.634
 5.550 	0.511 	-0.370
 5.723 	-0.307 	-0.102
 5.144 	-1.055 	-0.096
 5.350 	-0.530 	-0.352
 5.334 	-0.400 	0.236
 5.490 	0.239 	-0.004
 5.550 	0.036 	0.019
 5.568 	-0.019 	-0.375
 5.387 	0.036 	0.012
 4.949 	0.024 	0.200
 5.422 	-0.094 	-0.297
 4.529 	0.340 	0.055
 4.890 	0.940 	0.161
 5.339 	0.966 	-0.319
 5.697 	0.390 	-0.345
 6.211 	0.344 	-0.566
 5.947 	0.923 	0.024
 5.644 	-0.029 	0.091
 4.674 	-0.893 	-0.022
 4.790 	-0.557 	-0.051
 4.749 	-0.195 	0.029
 4.645 	0.140 	0.162
 5.052 	0.114 	-0.008
 5.069 	-0.204 	-0.351
 4.956 	-0.306 	-0.326
 4.940 	0.338 	0.071
 4.621 	0.556 	0.109
 4.362 	0.446 	0.335
 4.593 	0.812 	0.031
 4.792 	0.751 	-0.371
 5.016 	-0.018 	-0.351
 5.668 	-0.070 	-0.063
 6.047 	-0.029 	-0.317
 5.885 	-0.217 	-0.352
 4.376 	-0.447 	-0.186
 3.750 	-0.883 	0.548
 3.996 	-0.237 	0.408
 4.286 	-0.312 	0.349
 4.520 	-0.469 	-0.258
 4.882 	-1.053 	-0.459
 5.098 	-0.357 	-1.083
 5.129 	0.538 	-0.324
 5.055 	0.710 	-0.130
 4.524 	0.959 	-0.435
 4.684 	0.767 	-0.498
 5.545 	0.419 	-0.669
 5.917 	-0.121 	-0.818
 5.727 	-0.444 	-0.280
 5.685 	-0.113 	-0.415
 5.441 	0.147 	-0.583
 5.016 	-0.250 	0.571
 4.671 	-0.518 	-0.246
 3.789 	-0.513 	0.792
 3.085 	-0.620 	0.656
 3.571 	-0.701 	0.027
 3.843 	-0.726 	0.006
 4.330 	-0.705 	0.095
 4.689 	0.428 	-0.733
 4.856 	0.733 	-0.326
 5.074 	0.884 	-0.410
 5.427 	0.851 	-0.684
 5.717 	0.338 	-0.807
 5.590 	0.699 	-0.182
 5.319 	0.055 	-0.268
 4.954 	0.315 	0.316
 4.987 	0.441 	0.135
 5.117 	-0.164 	0.488
 4.900 	-0.600 	0.214
 4.408 	-0.221 	0.349
 3.713 	-0.201 	0.632
 4.161 	-0.522 	0.237
 4.186 	0.016 	-0.053
 4.053 	-0.957 	0.767
 4.485 	0.522 	0.285
 4.642 	0.782 	-0.865
 4.757 	0.518 	-0.754
 5.342 	0.756 	-0.652
 4.827 	0.039 	-0.119
 4.396 	0.440 	0.411
 4.364 	0.333 	0.557
 4.469 	0.182 	0.516
 4.500 	-0.167 	0.289
 6.079 	0.166 	0.038
 5.805 	-0.633 	0.341
 5.148 	-0.193 	0.618
 5.123 	-0.651 	0.421
 5.180 	-1.236 	-0.556
 5.320 	0.407 	0.440
 5.430 	0.335 	-0.545
 4.840 	-0.016 	0.650
 4.321 	0.820 	-0.422
 4.857 	0.509 	-0.468
 5.242 	0.544 	-0.737
 5.223 	0.823 	-0.683
 4.834 	0.498 	-0.569
 4.609 	0.343 	0.254
 4.809 	0.157 	-0.640
 4.945 	-0.185 	0.212
 6.109 	0.271 	0.072
 5.820 	-0.057 	0.212
 5.239 	-0.438 	0.534
 5.173 	-0.680 	-0.061
 4.210 	-0.155 	0.267
 3.888 	0.442 	0.835
 4.825 	0.713 	0.339
 4.671 	0.415 	0.529
 4.892 	0.163 	0.105
 5.151 	0.339 	0.009
 4.879 	0.557 	-0.414
 4.790 	0.737 	-0.448
 4.768 	0.788 	0.103
 5.180 	0.087 	-0.348
 5.253 	0.192 	-1.047
 5.383 	0.002 	0.014
 4.883 	-0.122 	0.563
 5.198 	-0.406 	-0.107
 5.401 	-0.238 	0.060
 4.705 	0.392 	-0.015
 4.699 	0.345 	-0.148
 4.090 	-0.106 	0.214
 4.394 	0.029 	0.139
 4.587 	0.001 	0.472
 4.392 	0.134 	0.086
 4.271 	0.069 	0.276
 4.527 	0.324 	0.328
 4.756 	0.880 	-0.368
 5.214 	0.339 	-0.256
 4.867 	0.263 	-0.153
 5.073 	0.231 	0.082
 5.452 	0.065 	0.089
 4.132 	-0.514 	0.151
 4.331 	-0.390 	0.178
 4.656 	0.004 	0.413
 4.790 	0.684 	-0.185
 4.836 	0.538 	-0.182
 5.010 	-0.021 	0.099
 4.785 	-0.464 	0.123
 4.811 	-0.356 	0.145
 4.272 	0.614 	0.091
 4.336 	-0.094 	0.479
 4.217 	0.074 	0.868
 4.412 	0.163 	0.550
 4.965 	0.630 	-0.350
 4.948 	0.452 	0.672
 5.325 	0.477 	0.232
 5.244 	0.138 	0.184
 7.718 	-0.381 	-0.329
 7.579 	0.079 	-0.817
 6.874 	-0.163 	-0.408
 6.592 	-0.161 	0.586
 6.956 	0.881 	0.667
 6.992 	0.851 	0.448
 6.841 	0.899 	0.127
 6.639 	1.501 	0.771
 6.939 	1.070 	0.624
 7.175 	0.626 	-0.130
 6.971 	1.442 	0.077
 7.354 	1.204 	0.177
 6.454 	1.407 	-0.212
 7.053 	0.444 	-0.408
 7.420 	0.382 	-0.973
 6.967 	0.240 	-0.893
 6.619 	-0.193 	-1.133
 5.189 	-0.354 	0.479
 5.564 	0.319 	0.688
 5.348 	-0.657 	0.877
 5.437 	0.850 	1.128
 5.564 	0.737 	0.282
 5.764 	1.278 	0.595
 5.851 	0.461 	0.926
 6.217 	0.701 	0.508
 5.789 	-0.112 	0.476
 6.057 	-0.073 	0.017
 6.636 	0.455 	0.180
 6.524 	0.874 	0.210
 6.543 	-0.192 	-0.222
 6.865 	0.813 	-0.900
 6.926 	0.391 	-0.396
 7.537 	0.652 	-0.161
 5.699 	0.408 	1.244
 5.156 	0.143 	1.104
 5.262 	0.175 	1.248
 5.044 	-0.023 	0.614
 5.339 	1.000 	0.562
 5.773 	0.164 	1.372
 5.979 	0.236 	0.381
 5.956 	0.302 	0.653
 6.018 	-0.278 	0.567
 5.577 	0.543 	0.277
 6.089 	0.142 	-0.117
 5.651 	0.747 	-0.183
 5.209 	-0.116 	0.577
 4.956 	-0.245 	0.559
 6.302 	-0.670 	-0.295
 5.503 	0.940 	0.774
 5.142 	0.882 	1.706
 5.641 	0.073 	1.010
 5.268 	0.298 	0.709
 5.001 	-0.019 	0.923
 4.289 	-0.320 	0.698
 4.762 	-0.194 	0.508
 4.629 	-0.154 	0.444
 5.046 	-0.099 	0.743
 4.904 	-0.645 	0.696
 5.693 	0.167 	-0.229
 6.033 	-0.366 	-0.685
 6.194 	0.848 	-0.334
 5.636 	0.174 	-0.054
 5.134 	0.151 	0.500
 5.678 	0.053 	-0.287
 6.762 	1.690 	1.123
 6.973 	1.620 	0.511
 6.004 	-0.101 	0.992
 5.881 	0.089 	0.895
 5.616 	-0.173 	0.774
 5.225 	-0.010 	0.106
 4.716 	-0.025 	0.735
 4.048 	0.080 	0.978
 4.716 	-0.224 	0.768
 5.187 	-0.254 	0.506
 5.742 	-0.707 	-0.079
 5.523 	0.008 	0.445
 5.901 	-0.037 	-0.669
 6.500 	0.835 	-0.494
 6.228 	0.147 	0.069
 5.682 	0.242 	-0.464
 6.590 	1.180 	1.080
 6.697 	1.351 	0.636
 5.790 	-0.182 	0.977
 5.873 	-0.207 	0.610
 6.007 	-0.097 	0.659
 5.648 	-0.248 	0.304
 5.910 	-0.420 	-0.229
 5.760 	-0.319 	-0.189
 5.889 	-0.396 	-0.047
 6.217 	-0.103 	0.021
 6.083 	-0.146 	-0.082
 6.131 	0.287 	-0.105
 6.052 	-0.589 	0.170
 6.277 	0.420 	-0.329
 6.497 	1.254 	-0.255
 6.652 	0.682 	-0.218
 5.502 	0.064 	0.483
 6.396 	0.243 	-0.046
 6.312 	0.011 	0.142
 6.375 	-0.170 	-0.036
 6.228 	-0.028 	-0.110
 6.597 	-0.038 	-0.117
 5.892 	-0.278 	-0.033
 6.065 	-0.230 	-0.522
 5.792 	-0.704 	-0.306
 6.223 	0.108 	-0.114
 6.454 	0.042 	-0.221
 6.608 	0.487 	-1.092
 6.898 	0.692 	-0.833
 6.038 	0.408 	0.173
 6.255 	1.155 	0.134
 6.654 	1.232 	-0.318
 5.461 	-0.765 	0.187
 5.504 	-0.694 	0.541
 5.875 	-0.028 	0.403
 5.997 	-0.153 	0.155
 6.120 	0.077 	-0.277
 6.102 	0.151 	-0.260
 5.674 	0.175 	0.275
 5.500 	-0.051 	-0.210
 5.668 	-0.300 	-0.198
 5.180 	-0.422 	-0.051
 5.381 	0.077 	-0.150
 5.941 	0.566 	-0.248
 6.063 	0.736 	-0.523
 5.742 	0.134 	-0.086
 5.921 	0.423 	0.003
 6.000 	1.154 	0.150
 6.007 	-0.111 	-0.133
 7.161 	-0.904 	-0.491
 5.727 	-0.995 	0.175
 5.275 	-0.483 	0.091
 5.514 	0.149 	-0.436
 5.231 	0.000 	-0.287
 5.268 	0.124 	0.122
 5.361 	0.158 	0.144
 5.323 	0.532 	-0.115
 4.969 	0.179 	-0.007
 5.350 	0.004 	-0.439
 5.502 	0.406 	-0.373
 5.276 	0.673 	-0.180
 5.368 	0.300 	-0.150
 5.561 	0.339 	0.202
 5.733 	0.917 	-0.287
 5.469 	-0.368 	0.043
 4.566 	-0.978 	0.823
 4.130 	-0.712 	0.686
 4.700 	-0.337 	0.365
 4.933 	0.259 	-0.139
 5.162 	0.101 	-0.133
 4.987 	-0.274 	-0.342
 5.491 	-0.035 	-0.344
 5.584 	0.781 	0.036
 5.835 	0.464 	-0.497
 5.544 	0.514 	-0.451
 5.972 	0.214 	-0.732
 6.304 	0.608 	-0.934
 6.474 	0.103 	-0.760
 6.024 	-0.325 	-0.324
 5.948 	0.477 	-0.406
 5.195 	-0.734 	1.029
 5.133 	-0.016 	0.205
 4.738 	-0.347 	1.118
 4.706 	-0.581 	0.330
 5.146 	-0.057 	-0.341
 4.949 	0.038 	-0.047
 5.290 	-0.840 	0.044
 5.126 	-0.257 	-0.407
 5.441 	0.299 	-0.656
 5.483 	0.089 	-0.410
 5.524 	0.319 	-0.351
 4.805 	-0.362 	-0.352
 4.808 	-0.147 	0.000
 5.054 	0.499 	0.148
 4.499 	-0.680 	0.577
 5.102 	0.330 	-0.193
 5.620 	0.155 	0.288
 5.303 	-0.354 	0.802
 5.382 	-0.114 	0.770
 5.129 	-0.273 	0.474
 5.158 	-0.279 	0.122
 5.599 	-0.262 	-0.155
 5.290 	-0.662 	0.360
 5.880 	-0.606 	0.164
 5.725 	-0.360 	-0.371
 5.602 	-0.031 	-0.325
 5.176 	-0.170 	-0.212
 5.009 	0.374 	-0.379
 4.326 	0.237 	0.267
 4.517 	-0.074 	0.492
 4.732 	-0.281 	0.427
 4.589 	0.317 	0.270
 6.585 	0.489 	-0.199
 5.698 	0.050 	0.647
 6.357 	-0.257 	0.827
 5.818 	0.057 	0.453
 5.918 	-0.575 	-0.001
 5.879 	-0.502 	-0.083
 6.046 	-0.463 	-0.625
 5.645 	0.431 	0.757
 5.997 	0.024 	-0.650
 6.181 	-0.329 	-0.467
 5.864 	0.085 	-0.523
 5.650 	0.336 	-0.476
 5.655 	0.815 	-0.348
 6.248 	0.022 	-0.345
 5.790 	0.535 	-0.472
 4.949 	0.564 	-0.248
 6.105 	0.477 	-0.393
 6.582 	0.550 	0.272
 6.277 	0.278 	0.782
 6.409 	-0.261 	-0.413
 6.092 	-0.183 	-0.035
 5.308 	-0.518 	0.608
 5.217 	-0.313 	0.203
 5.428 	0.279 	-0.030
 5.491 	-0.439 	-0.174
 5.809 	-0.139 	-0.222
 5.918 	0.094 	-0.446
 5.511 	0.510 	-0.274
 5.623 	0.333 	-0.167
 5.692 	0.852 	-0.550
 5.572 	0.845 	-0.454
 5.108 	0.369 	0.065
 5.064 	-0.135 	1.368
 6.104 	0.663 	0.763
 6.104 	0.403 	-0.115
 6.267 	0.101 	-0.185
 5.227 	0.442 	0.253
 4.859 	-0.349 	0.462
 4.538 	-0.448 	0.602
 4.650 	-0.094 	0.895
 4.783 	-0.523 	0.579
 4.883 	-0.195 	0.346
 4.965 	-0.067 	0.167
 5.238 	0.341 	-0.261
 5.641 	0.546 	-0.658
 5.602 	0.441 	0.107
 6.246 	1.083 	-0.752
 5.639 	0.489 	0.246
 4.749 	-0.405 	-0.168
 4.617 	-0.348 	-0.012
 5.109 	-0.281 	0.305
 4.709 	0.166 	-0.078
 4.794 	0.331 	0.007
 5.254 	0.015 	-0.030
 5.107 	-0.090 	0.067
 4.796 	-0.183 	0.037
 4.887 	-1.118 	0.015
 4.545 	0.031 	0.975
 4.680 	0.231 	0.256
 4.981 	0.264 	0.173
 5.418 	-0.019 	-0.628
 5.590 	0.380 	0.132
 5.370 	1.245 	0.339
 5.351 	0.997 	0.092
 7.838 	0.250 	-0.678
 8.087 	0.687 	-0.901
 8.223 	0.814 	0.134
 7.947 	0.282 	1.191
 7.067 	0.491 	0.684
 7.150 	1.100 	0.559
 6.464 	0.636 	0.262
 6.156 	0.318 	0.106
 6.772 	0.485 	0.304
 7.067 	0.914 	0.493
 6.743 	1.656 	0.610
 7.300 	2.016 	0.883
 7.247 	1.236 	0.372
 7.657 	1.413 	-0.547
 8.107 	1.708 	-0.404
 7.589 	0.623 	-0.525
 7.066 	-0.232 	-0.512
 7.216 	0.510 	-0.032
 7.103 	0.901 	1.056
 5.877 	-0.153 	1.110
 5.956 	-0.029 	1.097
 6.061 	0.960 	0.195
 6.027 	0.811 	0.051
 5.647 	0.395 	1.038
 6.253 	0.854 	1.254
 6.439 	1.277 	0.656
 6.693 	0.626 	0.616
 7.262 	1.412 	0.507
 7.091 	1.624 	0.486
 7.498 	1.139 	0.317
 7.154 	1.009 	-0.501
 6.934 	0.607 	-0.100
 6.417 	0.378 	0.634
 6.451 	1.009 	0.898
 6.062 	0.952 	1.078
 5.319 	-0.210 	1.189
 5.286 	0.035 	1.137
 5.881 	1.275 	1.278
 5.838 	1.141 	1.763
 5.663 	0.898 	0.373
 6.051 	-0.228 	0.474
 6.599 	0.317 	0.524
 6.858 	-0.186 	-0.069
 7.176 	0.787 	0.427
 5.952 	1.449 	0.334
 5.391 	0.138 	0.809
 6.299 	0.939 	0.186
 6.762 	0.860 	-0.001
 6.510 	0.467 	1.243
 5.471 	1.497 	1.274
 5.337 	0.395 	1.265
 5.406 	0.222 	1.168
 5.313 	-0.620 	1.286
 5.510 	-0.379 	0.503
 6.096 	0.296 	0.373
 6.362 	1.216 	0.350
 5.743 	-0.407 	0.968
 6.327 	-0.029 	0.640
 7.206 	0.517 	-0.196
 6.620 	0.508 	0.115
 6.386 	1.420 	-0.073
 6.447 	0.586 	0.263
 6.474 	1.038 	-0.394
 6.077 	0.337 	0.301
 6.700 	0.754 	0.458
 6.457 	1.632 	1.221
 6.429 	0.256 	1.259
 6.797 	-0.326 	0.744
 5.784 	-0.054 	0.769
 5.378 	-0.420 	0.697
 5.170 	0.035 	0.533
 5.144 	0.955 	1.174
 6.126 	-0.617 	0.434
 6.362 	-0.901 	-0.139
 5.965 	-0.150 	0.187
 6.499 	0.736 	-0.064
 6.969 	1.211 	-0.747
 7.430 	0.978 	-0.589
 6.681 	1.119 	-0.548
 7.019 	0.416 	-0.228
 5.442 	-0.101 	1.085
 6.705 	1.391 	1.211
 6.915 	0.637 	1.057
 6.813 	0.641 	0.619
 6.375 	0.235 	0.404
 6.242 	-0.430 	0.438
 6.169 	-0.230 	0.170
 6.003 	0.137 	0.212
 6.275 	-0.853 	-0.131
 6.196 	-0.711 	0.073
 6.259 	-0.158 	0.177
 6.498 	0.672 	-0.391
 6.788 	1.195 	-0.554
 7.097 	1.332 	-0.367
 6.884 	1.150 	-0.661
 7.400 	0.729 	-0.898
 5.641 	-0.350 	0.747
 6.258 	-0.283 	0.657
 6.678 	0.078 	0.391
 6.832 	-0.069 	0.121
 6.507 	0.093 	0.101
 6.521 	-0.159 	0.112
 6.029 	-0.425 	0.090
 6.238 	-0.159 	-0.118
 6.338 	-0.916 	-0.344
 5.973 	-0.733 	-0.247
 6.215 	-0.422 	-0.680
 6.324 	0.121 	-0.665
 6.935 	0.993 	-0.840
 6.448 	0.914 	-0.167
 6.784 	0.098 	-0.007
 7.155 	1.016 	-0.527
 5.798 	-0.102 	0.189
 6.147 	-1.250 	0.366
 6.377 	-0.588 	0.741
 6.304 	-0.019 	0.239
 6.417 	-0.059 	-0.049
 6.078 	-0.498 	0.106
 5.840 	-0.800 	0.216
 6.112 	-0.571 	-0.186
 6.423 	-0.693 	-0.668
 6.382 	-0.371 	-0.289
 5.925 	-0.528 	-0.196
 6.303 	-0.935 	0.055
 6.386 	0.419 	-0.470
 6.496 	0.602 	-0.264
 7.233 	0.252 	-0.037
 6.328 	1.054 	-0.232
 6.246 	-0.860 	-0.106
 5.421 	-1.205 	0.380
 5.743 	-0.358 	0.281
 6.089 	-0.122 	0.075
 6.045 	0.149 	-0.140
 5.952 	-0.144 	0.049
 5.679 	-0.609 	-0.024
 5.904 	-1.153 	0.035
 6.417 	-0.910 	-0.597
 6.831 	-0.029 	-0.864
 6.556 	0.001 	-0.974
 6.281 	-0.436 	-0.245
 5.776 	0.295 	0.313
 5.831 	0.065 	0.334
 5.988 	0.164 	0.169
 6.426 	0.793 	0.093
 6.400 	-1.311 	-0.035
 5.989 	-0.435 	0.189
 5.248 	-0.424 	1.247
 5.404 	0.115 	0.430
 5.490 	0.166 	-0.072
 5.636 	-0.456 	-0.175
 5.891 	-0.771 	-0.156
 6.523 	-0.275 	-0.688
 6.136 	-0.534 	-0.200
 5.986 	-0.270 	-0.151
 6.066 	-0.194 	-0.200
 6.393 	-0.196 	-0.810
 6.354 	0.417 	-0.226
 6.610 	-0.084 	-0.176
 6.333 	-0.048 	0.001
 6.212 	0.064 	0.038
 5.987 	-0.546 	0.442
 5.594 	-0.067 	0.547
 6.575 	-0.023 	0.994
 5.379 	0.299 	0.164
 5.811 	0.026 	-0.493
 5.633 	-0.531 	-0.253
 5.354 	-0.624 	0.226
 5.887 	-0.364 	-0.135
 6.032 	0.161 	-0.383
 5.750 	0.027 	-0.235
 5.589 	-0.288 	-0.283
 5.530 	-0.284 	-0.185
 5.287 	0.089 	-0.044
 5.378 	-0.397 	0.058
 5.728 	-0.163 	0.055
 6.502 	0.151 	-0.573
 6.354 	0.010 	0.418
 6.182 	-0.026 	0.443
 5.846 	0.282 	0.553
 6.049 	-0.142 	0.797
 6.260 	-0.189 	0.140
 6.590 	-0.307 	-0.393
 6.130 	-0.484 	-0.028
 5.854 	-0.397 	-0.215
 5.717 	0.100 	-0.025
 5.824 	-0.263 	-0.185
 5.590 	-0.045 	-0.352
 5.504 	-0.064 	-0.219
 5.918 	0.316 	-0.373
 5.261 	0.601 	0.151
 5.646 	-0.047 	-0.301
 5.284 	0.217 	-0.105
 6.306 	0.026 	-0.236
 6.035 	0.749 	0.553
 6.163 	0.434 	0.700
 6.058 	0.079 	0.722
 6.316 	-0.402 	0.007
 6.399 	-0.072 	-0.191
 6.353 	-0.309 	-0.220
 6.101 	-0.547 	0.188
 6.114 	-0.317 	-0.371
 6.336 	-0.032 	-0.469
 6.027 	-0.094 	-0.453
 5.849 	0.282 	-0.248
 5.559 	0.399 	-0.340
 6.082 	0.119 	-0.690
 5.375 	0.489 	-0.497
 4.978 	0.670 	0.079
 5.578 	0.150 	-0.316
 6.195 	0.869 	0.270
 6.398 	0.428 	0.090
 6.271 	-0.174 	0.068
 5.794 	-0.066 	0.140
 5.286 	-0.284 	0.296
 5.311 	-0.491 	0.461
 5.068 	-0.973 	0.242
 5.654 	-0.554 	-0.419
 6.028 	-0.612 	-0.636
 6.447 	-0.095 	-0.320
 6.226 	0.256 	-0.161
 5.875 	0.418 	-0.117
 6.220 	0.488 	-0.716
 5.544 	0.760 	-0.384
 5.098 	1.090 	0.615
 5.862 	0.071 	0.170
 5.504 	0.617 	0.621
 5.183 	-0.452 	0.522
 5.168 	-0.173 	0.339
 5.194 	0.002 	0.414
 5.039 	-0.153 	0.302
 4.729 	-0.264 	0.653
 4.945 	-0.829 	0.433
 5.165 	-0.509 	0.373
 5.327 	-0.592 	0.430
 5.219 	-0.551 	-0.007
 5.570 	0.124 	-0.053
 5.731 	0.360 	-0.232
 5.834 	0.452 	0.050
 5.690 	0.980 	-0.631
 5.364 	0.999 	0.506
 5.282 	-0.079 	0.417
 4.939 	-0.007 	0.590
 5.009 	0.265 	0.716
 5.083 	-0.495 	0.023
 5.044 	-0.522 	0.237
 5.421 	-0.186 	0.050
 5.609 	-0.250 	-0.023
 5.168 	-0.020 	0.229
 4.979 	-0.172 	0.594
 5.138 	-0.366 	0.661
 4.799 	-0.374 	0.271
 5.092 	-0.170 	0.023
 5.589 	-0.110 	-0.232
 5.741 	0.296 	-0.139
 5.947 	0.347 	-0.153
 6.372 	1.132 	-0.306
 7.229 	-0.886 	-0.510
 7.325 	-0.449 	-0.489
 7.633 	-0.063 	0.761
 7.670 	-0.059 	0.931
 7.413 	0.603 	0.971
 7.234 	0.873 	0.842
 7.544 	1.261 	0.598
 7.282 	0.778 	0.536
 7.084 	1.021 	0.511
 7.898 	1.223 	0.379
 7.812 	0.581 	0.026
 7.892 	1.281 	0.513
 8.049 	1.934 	-0.478
 8.564 	1.311 	-0.669
 8.428 	1.220 	-0.854
 8.405 	1.046 	-0.232
 6.966 	-1.089 	-0.440
 6.264 	0.213 	0.344
 6.225 	0.428 	2.268
 6.573 	0.111 	1.173
 5.875 	0.251 	1.295
 5.682 	0.126 	1.044
 6.411 	0.709 	0.736
 6.637 	0.874 	0.701
 6.546 	1.009 	0.641
 6.626 	0.022 	0.599
 6.778 	0.900 	0.842
 7.490 	1.633 	0.572
 7.796 	1.848 	0.736
 7.494 	1.400 	0.254
 7.440 	1.156 	0.323
 7.614 	0.839 	-0.025
 6.514 	-0.655 	-0.335
 6.699 	0.159 	0.528
 6.240 	0.184 	1.546
 6.354 	0.449 	1.167
 5.541 	-0.615 	1.784
 5.578 	-0.820 	1.770
 5.951 	-0.250 	1.505
 6.654 	0.457 	0.475
 7.230 	0.501 	0.061
 7.636 	0.453 	-0.143
 7.624 	0.506 	0.031
 7.424 	1.216 	0.665
 6.733 	1.860 	0.712
 6.956 	1.515 	0.615
 6.972 	0.955 	0.275
 7.037 	0.717 	0.057
 6.327 	0.005 	0.745
 6.138 	1.137 	1.213
 5.801 	0.509 	1.361
 5.558 	0.452 	1.065
 5.617 	0.055 	0.913
 5.709 	-0.147 	0.859
 5.500 	-0.690 	0.825
 6.305 	-0.149 	0.657
 6.802 	0.499 	0.940
 7.858 	1.051 	0.474
 7.587 	0.474 	0.479
 7.164 	1.750 	0.135
 6.910 	1.968 	0.095
 7.044 	1.332 	-0.168
 6.948 	1.039 	0.037
 6.802 	0.751 	0.006
 5.476 	1.003 	0.328
 5.885 	1.269 	1.044
 6.215 	0.453 	1.347
 6.384 	-0.149 	0.995
 6.556 	0.083 	0.601
 6.398 	0.242 	1.269
 6.251 	-0.376 	0.271
 6.268 	-0.239 	0.782
 6.291 	-0.203 	0.701
 6.867 	-0.473 	0.598
 6.976 	0.156 	0.475
 6.973 	1.263 	0.271
 7.619 	1.634 	0.037
 7.465 	0.862 	-0.693
 7.466 	1.084 	-0.003
 7.373 	0.760 	-0.162
 4.989 	0.347 	1.502