# vtk DataFile Version 3.0
HighT1
ASCII
DATASET STRUCTURED_POINTS
DIMENSIONS 16 16 19
ORIGIN 929.001000000000 929.001000000000 5.001000000000
SPACING 10.000000000000 10.000000000000 10.000000000000
POINT_DATA 4864
FIELD attributes 1
U 3 4864 float
2.704 	-0.924 	0.163
 3.038 	-0.815 	0.161
 3.062 	-0.672 	0.219
 3.100 	-0.629 	0.193
 3.230 	-0.606 	0.044
 3.416 	-0.697 	0.002
 3.694 	-0.374 	-0.041
 3.548 	0.051 	-0.046
 3.605 	-0.038 	0.134
 3.673 	-0.082 	0.101
 3.594 	-0.066 	0.218
 3.383 	-0.156 	0.158
 3.469 	0.102 	-0.143
 4.168 	0.358 	-0.460
 4.750 	0.250 	-0.554
 5.367 	0.014 	-0.515
 3.932 	-0.346 	-0.213
 3.317 	-0.747 	0.061
 3.107 	-0.336 	-0.251
 2.910 	-0.224 	-0.116
 2.716 	-0.147 	-0.099
 2.824 	-0.336 	-0.030
 3.033 	-0.351 	0.055
 3.488 	-0.444 	0.059
 3.928 	-0.411 	0.104
 4.078 	-0.196 	0.097
 4.084 	-0.206 	0.059
 3.723 	-0.309 	-0.009
 3.768 	-0.396 	0.062
 4.553 	0.205 	0.091
 4.687 	0.787 	-0.093
 4.759 	0.574 	-0.561
 4.483 	0.768 	-0.144
 4.711 	-0.223 	0.024
 3.707 	0.152 	0.223
 3.425 	-0.133 	0.354
 3.521 	-0.731 	0.314
 3.742 	-0.894 	0.175
 4.302 	-0.813 	-0.027
 4.855 	-1.312 	-0.383
 4.555 	-0.808 	0.091
 3.935 	-0.445 	0.174
 3.215 	0.040 	0.315
 3.375 	-0.441 	0.216
 4.028 	-0.708 	-0.121
 4.013 	-0.930 	-0.185
 4.543 	-0.185 	0.429
 4.907 	1.172 	0.231
 4.711 	0.700 	-0.193
 5.006 	0.447 	-0.051
 5.246 	-0.174 	0.019
 5.322 	-0.714 	-0.097
 4.707 	-0.869 	-0.059
 4.346 	-0.665 	0.112
 4.097 	-1.057 	-0.115
 4.244 	-1.153 	-0.051
 3.982 	-0.977 	0.197
 4.204 	-0.264 	-0.018
 4.517 	-0.585 	0.154
 4.694 	-0.891 	0.170
 4.236 	-0.425 	0.163
 4.772 	-0.999 	0.011
 5.272 	-0.631 	-0.349
 4.441 	0.715 	0.462
 4.571 	0.576 	-0.133
 5.022 	0.063 	-0.063
 5.039 	-0.188 	-0.120
 4.920 	-0.155 	-0.212
 4.626 	-0.141 	-0.031
 4.115 	-0.390 	-0.025
 3.895 	-0.717 	0.036
 3.881 	-0.820 	0.213
 3.195 	-1.155 	0.376
 3.253 	-1.705 	0.470
 3.657 	-2.047 	0.413
 4.074 	-1.989 	-0.111
 4.894 	-1.859 	-0.135
 5.725 	-1.729 	-0.436
 5.939 	0.447 	-0.167
 4.531 	0.790 	0.316
 4.507 	0.458 	0.080
 4.227 	0.395 	0.139
 4.013 	0.220 	0.081
 3.982 	0.257 	0.083
 4.058 	0.230 	0.025
 4.083 	0.117 	-0.093
 4.006 	-0.749 	-0.106
 3.985 	-0.458 	0.167
 3.939 	-0.683 	0.192
 4.478 	-1.444 	0.024
 5.010 	-2.146 	-0.123
 5.674 	-1.866 	-0.393
 6.130 	-1.063 	-0.249
 4.766 	-0.773 	-0.013
 3.703 	0.727 	0.380
 3.258 	0.938 	0.145
 4.024 	-0.034 	0.203
 3.951 	-0.069 	0.237
 4.114 	-0.353 	0.134
 4.335 	-0.417 	0.048
 4.550 	-0.221 	0.131
 4.715 	0.258 	-0.005
 5.498 	0.146 	-0.772
 4.653 	0.109 	0.051
 4.353 	-0.865 	0.057
 5.237 	-0.629 	-0.787
 5.675 	-1.100 	-0.647
 5.173 	-1.305 	0.415
 5.962 	1.073 	-0.900
 4.894 	0.824 	-0.228
 4.598 	0.855 	0.052
 3.405 	0.189 	0.079
 4.944 	-0.428 	-0.069
 4.755 	-0.400 	0.003
 4.646 	-0.624 	0.032
 4.828 	-0.739 	-0.247
 4.985 	-0.724 	-0.161
 5.434 	-0.198 	-0.295
 5.564 	0.071 	-0.373
 5.664 	0.836 	-0.055
 4.730 	-0.603 	-0.166
 4.963 	-0.434 	-1.008
 4.919 	-0.486 	0.088
 4.661 	-0.663 	0.207
 3.801 	0.227 	0.640
 4.189 	1.912 	-0.035
 4.605 	0.849 	0.127
 3.538 	0.769 	0.180
 4.632 	-0.096 	0.049
 4.351 	-0.119 	-0.003
 4.232 	-0.420 	-0.111
 4.349 	-0.418 	-0.240
 4.514 	-0.247 	-0.132
 4.827 	-0.173 	-0.101
 5.221 	0.777 	-0.212
 5.597 	1.466 	-0.134
 5.210 	0.447 	-0.329
 4.761 	-0.060 	-0.160
 4.818 	0.150 	-0.404
 4.387 	-0.704 	0.588
 3.924 	-0.100 	0.110
 4.170 	1.189 	-0.056
 3.447 	1.194 	0.182
 2.872 	1.089 	0.179
 4.877 	-0.056 	0.084
 4.869 	0.045 	0.080
 4.458 	-0.187 	0.060
 4.152 	-0.302 	-0.047
 4.198 	-0.395 	-0.041
 4.504 	-0.065 	0.033
 4.938 	0.612 	-0.068
 5.299 	0.699 	0.108
 5.246 	0.817 	0.075
 5.421 	0.684 	-0.180
 5.836 	0.344 	-0.241
 6.356 	0.476 	-0.059
 3.771 	0.030 	0.324
 3.042 	0.815 	0.174
 3.217 	1.440 	0.145
 3.421 	0.635 	0.218
 4.317 	-0.568 	0.153
 4.412 	-0.259 	0.109
 4.230 	0.097 	0.210
 4.416 	-0.081 	-0.038
 5.166 	-0.346 	-0.106
 5.353 	-0.520 	-0.000
 4.701 	0.170 	-0.039
 5.021 	0.271 	-0.243
 4.919 	0.908 	0.150
 5.751 	0.355 	-0.371
 6.256 	0.586 	-0.160
 5.810 	1.635 	-0.219
 5.260 	0.608 	-0.039
 3.994 	0.958 	0.215
 2.912 	0.880 	0.513
 3.008 	-0.549 	0.413
 2.637 	-1.183 	0.586
 2.618 	-1.461 	0.226
 3.871 	-0.844 	-0.669
 4.635 	-0.283 	-0.797
 5.233 	0.059 	-0.350
 5.342 	0.489 	-0.136
 4.593 	0.343 	0.002
 4.851 	0.584 	-0.268
 4.605 	0.894 	0.208
 4.648 	1.085 	0.270
 4.805 	1.524 	0.087
 5.400 	1.664 	-0.221
 5.369 	1.452 	0.273
 4.946 	0.988 	0.308
 4.461 	0.194 	0.393
 4.622 	-1.010 	-0.328
 3.219 	-0.855 	0.226
 2.794 	-1.170 	-0.276
 3.011 	-0.835 	0.166
 3.735 	0.174 	0.113
 4.213 	0.536 	0.118
 4.321 	0.217 	0.174
 4.254 	0.798 	0.150
 3.768 	0.949 	0.399
 3.859 	1.508 	0.333
 3.564 	0.774 	-0.063
 4.125 	0.645 	-0.012
 4.399 	0.589 	0.254
 5.115 	1.386 	0.219
 5.358 	1.022 	0.066
 5.679 	0.200 	-0.392
 5.140 	0.094 	-0.675
 3.407 	-0.563 	0.042
 3.704 	-0.086 	-0.423
 3.397 	-0.809 	-0.039
 3.045 	-0.640 	0.073
 3.122 	-0.003 	0.149
 2.832 	0.445 	0.330
 2.769 	0.545 	0.277
 3.058 	0.644 	0.166
 3.031 	0.762 	0.193
 3.618 	0.278 	-0.223
 3.928 	0.550 	-0.132
 3.975 	0.061 	0.175
 3.808 	0.045 	0.200
 4.011 	0.149 	0.180
 4.531 	0.373 	-0.240
 5.414 	1.201 	-0.856
 3.548 	-0.074 	0.028
 3.499 	-0.214 	0.023
 3.613 	-0.319 	-0.003
 3.527 	-0.773 	-0.029
 3.989 	-0.089 	-0.148
 4.378 	0.279 	0.228
 4.048 	-0.508 	-0.031
 4.151 	-0.283 	0.177
 4.234 	0.274 	-0.215
 4.144 	0.479 	0.012
 3.707 	0.527 	0.363
 3.357 	0.263 	0.458
 3.550 	-0.152 	0.195
 3.487 	0.194 	0.174
 2.484 	0.496 	0.445
 2.309 	1.375 	0.612
 3.996 	-0.173 	0.147
 4.128 	-0.329 	-0.053
 4.606 	-0.148 	-0.492
 5.011 	-0.153 	-0.261
 5.719 	-0.124 	-0.373
 4.284 	0.434 	0.379
 3.678 	0.370 	-0.465
 2.645 	-0.039 	0.360
 2.104 	0.342 	0.360
 2.712 	0.381 	-0.111
 3.459 	0.254 	-0.014
 3.954 	-0.295 	-0.101
 3.729 	-0.336 	0.080
 3.013 	-0.270 	0.208
 3.139 	0.214 	0.071
 3.263 	0.288 	-0.049
 4.244 	1.482 	0.381
 4.359 	0.726 	0.094
 4.142 	0.761 	0.214
 3.718 	0.683 	0.045
 4.197 	0.545 	-0.336
 4.498 	0.312 	-0.384
 4.754 	0.032 	-0.311
 5.129 	-0.513 	0.032
 5.446 	-0.817 	0.035
 4.463 	0.104 	0.386
 4.321 	0.112 	0.402
 4.684 	-0.099 	0.171
 4.903 	-0.416 	-0.364
 5.185 	-0.141 	-0.740
 5.128 	0.179 	-0.176
 5.238 	0.140 	-0.268
 5.301 	1.134 	-0.257
 4.966 	0.454 	0.035
 4.340 	0.602 	0.162
 4.027 	0.628 	-0.186
 3.940 	0.442 	-0.123
 4.024 	0.158 	-0.079
 3.871 	0.061 	0.165
 3.956 	-0.322 	0.516
 4.628 	-0.657 	0.587
 4.852 	-0.220 	0.327
 5.311 	0.240 	0.132
 5.267 	0.085 	-0.147
 4.690 	0.012 	0.270
 4.631 	-0.540 	0.062
 5.746 	-0.799 	-0.300
 5.657 	-0.709 	-0.598
 4.853 	1.230 	-0.384
 3.986 	0.973 	0.335
 3.708 	0.863 	0.558
 3.833 	0.913 	0.597
 4.313 	0.482 	0.598
 5.313 	-0.125 	0.110
 5.989 	-0.296 	-0.024
 5.378 	-0.672 	-0.076
 5.509 	-0.942 	1.194
 4.707 	-0.662 	0.763
 4.726 	0.177 	0.176
 4.873 	0.535 	-0.013
 5.317 	-0.111 	-0.483
 5.312 	-0.633 	-0.288
 5.964 	-1.112 	0.155
 6.583 	-1.342 	0.188
 4.615 	1.249 	-0.301
 5.178 	0.994 	-0.057
 5.619 	0.509 	-0.058
 5.911 	0.039 	-0.083
 6.184 	-0.325 	-0.096
 6.322 	-1.003 	0.252
 6.285 	-0.468 	-0.547
 6.176 	-0.794 	0.208
 6.688 	-0.412 	0.134
 6.179 	-0.379 	0.861
 4.943 	-0.136 	1.061
 4.851 	-0.003 	0.732
 5.242 	-0.310 	0.401
 6.095 	-0.725 	-0.273
 6.772 	-1.432 	-0.088
 7.239 	-0.964 	0.311
 5.446 	0.848 	-0.195
 5.954 	0.655 	-0.175
 6.332 	0.322 	-0.332
 6.573 	-0.208 	-0.234
 6.500 	-0.873 	-0.026
 6.376 	-0.690 	-0.100
 6.205 	-0.170 	-0.281
 6.259 	-0.286 	-0.187
 6.930 	-0.402 	-0.194
 6.713 	0.320 	0.454
 5.901 	0.453 	0.088
 5.343 	0.334 	-0.252
 6.284 	-0.369 	-0.872
 6.305 	-1.752 	-0.211
 6.229 	-1.684 	-0.405
 6.070 	0.033 	0.628
 6.148 	0.614 	0.233
 6.347 	0.460 	0.144
 6.527 	0.221 	-0.075
 6.569 	-0.110 	-0.161
 6.977 	-0.910 	-0.271
 6.673 	-0.599 	-0.133
 6.410 	-0.327 	-0.410
 6.495 	-0.033 	-0.414
 6.886 	-0.293 	-0.532
 6.964 	0.351 	-0.199
 6.809 	0.696 	-0.786
 6.718 	-0.342 	-0.342
 7.387 	-0.753 	-0.118
 6.518 	-0.922 	-0.526
 5.131 	-0.333 	0.629
 4.861 	0.460 	0.568
 4.510 	0.495 	0.791
 5.080 	0.480 	0.549
 6.004 	0.588 	-0.049
 6.621 	0.261 	-0.591
 7.272 	-0.499 	-0.276
 6.948 	-0.282 	-0.130
 6.320 	-0.687 	-0.424
 6.658 	-0.410 	-0.418
 7.004 	-0.157 	-0.901
 6.837 	-0.088 	-0.897
 6.868 	-0.071 	-0.258
 7.176 	-0.571 	-0.272
 7.481 	-0.564 	-0.204
 7.473 	0.437 	-0.633
 5.064 	0.910 	0.924
 4.887 	0.096 	0.681
 6.281 	0.846 	-0.267
 6.567 	0.414 	-0.301
 6.363 	1.127 	-0.762
 6.092 	-0.040 	-0.430
 6.521 	-0.184 	-0.223
 6.419 	-0.193 	0.097
 6.966 	-0.440 	-1.052
 6.828 	-0.173 	0.174
 6.756 	0.132 	-0.792
 6.397 	0.272 	-0.850
 5.448 	0.292 	-0.188
 4.602 	-0.418 	0.238
 4.589 	-1.095 	0.297
 4.770 	0.568 	0.061
 5.805 	0.981 	0.028
 4.441 	0.364 	1.302
 6.388 	0.601 	-0.177
 6.617 	0.347 	-0.319
 7.275 	0.670 	-0.495
 7.124 	0.173 	-0.111
 6.294 	-0.267 	0.127
 6.447 	-0.381 	-0.296
 6.647 	-0.456 	-0.219
 6.279 	0.280 	0.034
 5.432 	0.245 	-0.286
 5.534 	0.674 	0.211
 5.692 	0.233 	-0.410
 4.668 	-0.199 	0.359
 3.383 	0.132 	1.085
 3.779 	0.317 	0.075
 4.103 	0.510 	-0.038
 3.098 	1.155 	0.969
 6.713 	0.475 	0.044
 6.835 	0.398 	0.139
 7.466 	-0.001 	-0.065
 7.254 	0.668 	-0.241
 6.434 	0.343 	-0.097
 6.251 	-0.363 	0.137
 6.416 	0.053 	-0.420
 6.108 	0.422 	0.484
 6.618 	0.391 	-0.192
 6.403 	0.351 	-0.504
 5.965 	0.377 	-0.524
 5.127 	0.440 	0.851
 3.633 	-0.050 	0.950
 3.604 	0.438 	0.141
 3.586 	1.370 	0.237
 3.845 	1.064 	0.657
 6.395 	0.545 	0.210
 6.556 	0.519 	0.539
 6.907 	0.619 	-0.104
 7.133 	0.896 	-0.286
 6.638 	0.359 	-0.094
 6.509 	0.118 	-0.118
 6.003 	-0.132 	-0.081
 6.369 	0.275 	-0.154
 6.723 	0.124 	0.057
 6.560 	0.259 	-0.054
 6.567 	0.797 	-0.070
 6.085 	1.282 	0.251
 5.690 	0.555 	-0.045
 4.301 	1.248 	0.802
 4.487 	1.734 	0.271
 4.736 	1.793 	0.346
 5.546 	0.385 	1.066
 6.389 	1.400 	-0.221
 6.803 	0.718 	-0.801
 5.858 	0.239 	-0.305
 5.206 	-0.102 	-0.608
 5.089 	-0.001 	-0.177
 5.240 	0.291 	-0.011
 4.385 	-0.255 	-0.171
 3.837 	-0.409 	-0.150
 4.463 	0.094 	0.054
 4.317 	-0.052 	0.278
 5.436 	0.982 	-0.401
 5.885 	1.754 	-0.328
 4.634 	1.376 	0.432
 5.131 	1.314 	0.594
 6.200 	1.299 	-0.401
 5.738 	-0.012 	0.731
 6.210 	0.460 	-0.214
 5.189 	0.384 	-0.018
 4.118 	0.015 	0.053
 4.267 	-0.068 	0.026
 4.439 	-0.103 	0.212
 3.860 	0.030 	0.302
 3.642 	0.311 	0.508
 4.512 	-0.753 	-0.192
 4.295 	-0.386 	0.266
 4.679 	-0.445 	0.408
 5.023 	-0.520 	0.934
 5.280 	0.419 	1.022
 6.088 	0.629 	0.995
 6.176 	1.332 	0.095
 6.611 	0.795 	-1.103
 6.722 	0.013 	-0.002
 5.668 	0.503 	-0.298
 4.557 	0.967 	0.176
 4.440 	0.222 	-0.135
 5.299 	-1.158 	0.101
 4.556 	0.272 	0.525
 3.108 	0.681 	0.963
 4.517 	0.108 	0.382
 5.788 	-0.555 	-0.458
 5.488 	-1.009 	-0.029
 4.701 	-0.658 	-0.123
 4.916 	0.095 	-0.153
 5.583 	0.145 	-0.098
 6.088 	0.289 	-0.437
 6.719 	0.914 	-0.600
 6.753 	0.457 	-0.683
 6.879 	0.895 	-0.654
 5.198 	0.813 	0.180
 5.341 	0.321 	-0.023
 5.718 	-0.336 	-0.243
 6.260 	0.238 	-0.321
 4.658 	1.091 	0.595
 5.103 	0.090 	-0.084
 5.320 	0.314 	0.512
 5.889 	0.045 	0.046
 4.410 	-0.502 	-0.036
 2.924 	-0.206 	0.759
 3.001 	-0.401 	0.749
 3.835 	-0.156 	0.812
 4.614 	0.273 	0.517
 5.134 	0.295 	0.240
 5.710 	0.145 	-0.184
 5.395 	0.919 	0.159
 6.160 	1.197 	-0.682
 6.104 	0.612 	-0.082
 5.255 	-0.263 	-0.484
 5.253 	0.082 	0.191
 5.801 	0.476 	0.322
 5.753 	0.212 	-0.213
 5.630 	0.143 	0.074
 6.345 	0.378 	-0.668
 5.110 	1.060 	0.276
 4.744 	-0.182 	-0.423
 4.918 	-0.372 	0.268
 4.468 	-0.421 	0.323
 4.628 	-0.186 	0.261
 4.523 	0.432 	0.421
 4.977 	0.601 	0.063
 5.815 	1.310 	0.858
 5.551 	1.215 	0.940
 5.250 	0.787 	0.548
 5.191 	0.795 	-0.155
 5.499 	1.318 	-0.114
 5.845 	1.022 	-0.306
 5.721 	0.644 	-0.275
 5.583 	0.524 	-0.248
 5.130 	0.488 	0.085
 4.931 	0.250 	0.892
 4.713 	0.438 	0.814
 5.505 	-0.205 	0.234
 5.913 	-0.089 	-0.159
 6.223 	0.416 	-0.413
 5.350 	0.203 	0.054
 5.661 	-0.258 	0.405
 5.580 	1.361 	-0.285
 5.385 	1.186 	0.279
 5.731 	0.909 	-0.029
 5.382 	0.485 	-0.095
 4.691 	0.569 	-0.083
 4.400 	0.495 	0.244
 4.996 	0.322 	0.448
 5.602 	0.365 	0.500
 6.091 	0.577 	0.329
 6.267 	0.344 	0.087
 5.998 	0.352 	-0.040
 5.734 	-0.256 	-0.025
 5.296 	-0.410 	0.311
 5.777 	0.302 	-0.217
 6.155 	0.363 	-0.463
 5.514 	-0.234 	0.177
 4.852 	0.665 	-0.107
 5.200 	1.199 	0.124
 4.763 	1.073 	0.322
 4.811 	0.743 	0.375
 5.180 	0.824 	0.152
 5.358 	-0.084 	-0.015
 4.847 	-0.356 	-0.004
 4.919 	0.108 	0.637
 4.736 	0.205 	0.953
 5.242 	-0.077 	0.816
 6.112 	0.213 	0.254
 6.303 	0.273 	-0.203
 5.626 	0.269 	-0.114
 5.457 	-0.225 	-0.213
 6.211 	-0.920 	-0.285
 6.891 	-1.205 	0.002
 4.965 	0.705 	0.125
 5.082 	1.160 	-0.032
 5.481 	0.907 	0.145
 5.892 	0.350 	0.133
 6.200 	0.205 	0.006
 5.920 	0.138 	0.223
 5.377 	-0.114 	-0.369
 5.111 	0.080 	-0.046
 5.010 	0.341 	0.188
 5.210 	0.131 	0.907
 5.487 	0.177 	0.531
 5.406 	0.468 	0.294
 5.567 	0.180 	-0.270
 5.846 	-0.900 	-0.525
 6.361 	-1.453 	-0.033
 6.971 	-0.931 	-0.428
 6.373 	0.634 	0.117
 6.360 	0.854 	-0.202
 6.889 	0.762 	-0.615
 6.894 	0.704 	-0.566
 6.756 	0.421 	-0.378
 6.686 	0.115 	-0.088
 6.356 	-0.442 	0.087
 6.052 	-0.322 	-0.363
 6.274 	0.177 	-0.150
 6.292 	0.298 	0.159
 6.663 	0.628 	0.216
 6.205 	0.475 	-0.374
 6.714 	-0.323 	-0.651
 7.050 	-1.425 	-0.723
 6.616 	-1.784 	0.519
 6.765 	-0.545 	0.209
 6.713 	0.569 	0.244
 6.464 	0.798 	0.072
 6.522 	0.596 	-0.422
 6.780 	0.429 	-0.595
 6.899 	0.349 	-0.446
 6.974 	0.188 	-0.203
 6.800 	-0.356 	0.064
 6.797 	-0.838 	-0.139
 6.671 	-0.321 	-0.432
 6.871 	0.167 	-0.151
 7.118 	0.447 	-0.238
 7.560 	-0.349 	-0.219
 7.365 	-0.329 	-0.085
 7.938 	-0.981 	-1.073
 6.294 	-1.230 	1.162
 5.760 	-0.842 	0.504
 6.942 	1.000 	0.224
 6.720 	1.051 	-0.231
 6.950 	0.513 	-0.608
 6.806 	0.447 	-0.586
 6.714 	0.626 	-0.195
 6.797 	0.022 	0.090
 6.974 	-0.479 	-0.421
 7.020 	-0.879 	-0.445
 6.991 	-0.549 	-0.681
 6.984 	-0.062 	-0.774
 7.198 	-0.012 	-0.395
 6.908 	-0.480 	-0.280
 7.296 	-0.762 	-0.507
 7.077 	-0.400 	-0.600
 6.381 	-0.010 	1.217
 5.189 	-0.324 	0.806
 6.626 	1.186 	-0.112
 6.901 	1.244 	-0.063
 6.569 	0.552 	-0.108
 6.642 	0.282 	-0.099
 6.576 	0.149 	-0.201
 6.793 	-0.051 	-0.554
 6.691 	-0.912 	-0.815
 6.787 	-0.776 	-0.551
 6.718 	-0.364 	-0.507
 6.488 	-0.200 	-0.564
 6.190 	0.376 	-0.023
 5.324 	0.042 	0.747
 4.413 	-0.796 	0.340
 4.216 	-0.614 	0.678
 4.212 	0.254 	1.219
 3.429 	0.226 	0.842
 6.446 	0.682 	0.059
 6.628 	0.211 	-0.013
 6.772 	0.075 	-0.157
 6.754 	0.071 	0.499
 6.830 	0.388 	0.157
 6.776 	-0.435 	-0.478
 6.732 	-0.615 	-0.366
 6.708 	-0.694 	-0.357
 6.974 	-0.062 	-0.140
 6.437 	0.573 	0.153
 6.131 	0.759 	0.177
 6.165 	0.100 	0.124
 6.287 	0.129 	0.878
 5.283 	-0.318 	-0.766
 3.615 	0.728 	1.274
 2.787 	0.997 	1.230
 5.932 	0.348 	0.084
 6.373 	-0.034 	-0.179
 6.855 	-0.049 	-0.422
 6.714 	0.197 	-0.530
 6.547 	0.185 	-0.365
 6.316 	-0.232 	-0.112
 6.162 	-0.496 	-0.081
 6.602 	-0.232 	0.100
 6.740 	0.057 	-0.137
 6.615 	0.746 	-0.152
 6.569 	0.538 	-0.232
 6.009 	1.345 	0.657
 6.376 	1.191 	0.028
 6.279 	0.053 	-0.897
 4.174 	0.878 	0.772
 3.987 	0.971 	0.831
 6.058 	-0.088 	0.240
 6.384 	-0.355 	-0.350
 6.651 	0.128 	-0.532
 6.072 	0.647 	-0.175
 5.913 	0.054 	0.273
 5.974 	-0.166 	0.099
 5.875 	-0.336 	-0.154
 5.877 	-0.414 	0.156
 6.066 	-0.337 	0.157
 6.086 	-0.126 	0.347
 6.810 	0.459 	0.306
 6.893 	0.780 	0.148
 6.551 	0.724 	0.169
 6.497 	0.731 	0.341
 6.357 	1.258 	-0.043
 6.969 	0.832 	-0.084
 6.024 	-0.003 	0.542
 6.181 	-0.040 	-0.254
 6.074 	0.715 	-0.308
 5.705 	0.520 	0.864
 5.485 	0.174 	0.834
 4.501 	-0.263 	0.286
 4.371 	-0.305 	0.218
 4.734 	-0.582 	0.087
 4.079 	-1.149 	0.157
 4.676 	-0.875 	0.608
 5.529 	-0.128 	0.167
 5.880 	0.385 	-0.091
 6.147 	0.692 	0.099
 6.535 	0.707 	0.289
 6.526 	0.880 	0.238
 6.877 	0.764 	-0.309
 5.751 	-0.127 	0.233
 6.265 	0.359 	-0.284
 6.023 	0.740 	1.032
 5.473 	0.765 	0.621
 4.938 	-0.349 	0.266
 5.071 	-0.094 	0.277
 5.249 	-0.035 	-0.152
 5.234 	-0.447 	-0.207
 4.947 	-0.500 	-0.237
 4.733 	-1.140 	0.410
 4.742 	-0.405 	1.007
 4.956 	0.355 	1.096
 5.334 	1.011 	0.795
 5.835 	0.309 	0.612
 6.671 	-0.489 	-0.114
 6.981 	-0.170 	-0.362
 5.734 	0.010 	0.437
 5.749 	-0.474 	-0.108
 6.541 	1.444 	0.892
 5.751 	0.619 	0.047
 4.822 	0.450 	-0.102
 5.011 	-0.198 	1.143
 5.941 	-0.312 	0.189
 6.236 	-0.365 	-0.166
 5.926 	-0.449 	-0.462
 5.137 	-0.767 	0.079
 5.048 	-0.842 	0.342
 4.944 	-1.044 	0.298
 5.828 	-1.028 	0.323
 6.660 	-1.099 	-0.001
 7.233 	-0.868 	-0.378
 7.344 	-0.771 	-0.841
 6.679 	0.366 	-0.351
 6.638 	0.303 	-0.124
 6.606 	0.762 	0.004
 6.850 	0.497 	-0.332
 7.068 	0.075 	0.053
 6.790 	0.524 	0.237
 6.767 	0.151 	0.119
 6.388 	-0.049 	-0.021
 5.756 	0.056 	-0.562
 5.350 	-0.110 	0.118
 5.332 	-0.384 	0.489
 5.298 	-0.895 	0.140
 5.582 	-1.291 	0.568
 6.408 	-1.325 	0.175
 6.509 	-1.057 	-0.093
 6.543 	-0.412 	-0.429
 6.385 	0.087 	-0.727
 6.440 	0.683 	-0.445
 6.662 	0.558 	-0.057
 6.508 	0.495 	0.034
 6.099 	-0.303 	0.146
 6.047 	0.043 	0.207
 6.129 	0.330 	0.090
 6.031 	0.276 	-0.136
 5.799 	0.429 	-0.419
 5.723 	0.484 	0.033
 6.492 	0.159 	-0.211
 6.709 	-0.346 	-0.575
 6.706 	-0.455 	-0.415
 6.740 	-0.575 	0.104
 6.773 	-0.643 	0.231
 6.068 	-0.337 	-0.065
 5.605 	1.089 	0.811
 5.734 	1.319 	1.067
 5.523 	0.893 	0.695
 5.344 	1.412 	0.459
 5.621 	1.215 	0.240
 5.597 	0.826 	-0.016
 5.598 	0.824 	-0.181
 5.704 	0.666 	-0.219
 5.846 	0.352 	-0.201
 6.226 	0.324 	0.329
 6.194 	0.482 	0.502
 6.372 	0.533 	0.088
 6.308 	0.787 	0.131
 6.342 	0.526 	-0.193
 6.363 	0.221 	-0.397
 6.159 	0.033 	0.323
 4.983 	0.359 	0.098
 5.704 	0.983 	0.090
 5.684 	0.911 	0.109
 5.473 	0.994 	0.162
 5.167 	0.759 	0.249
 5.007 	0.636 	0.445
 5.123 	0.235 	0.931
 5.717 	0.485 	1.147
 5.458 	0.384 	0.889
 5.700 	0.366 	0.193
 6.291 	0.366 	-0.008
 6.177 	0.293 	0.045
 6.218 	0.030 	0.068
 6.587 	0.025 	0.097
 6.451 	0.339 	-0.226
 6.382 	0.278 	0.065
 5.364 	0.065 	-0.007
 5.212 	0.528 	0.153
 5.177 	0.856 	0.459
 5.504 	0.679 	0.380
 5.483 	0.667 	0.428
 5.322 	0.736 	0.209
 5.713 	-0.429 	0.072
 5.773 	-0.542 	0.628
 5.989 	-0.168 	0.869
 6.316 	-0.010 	0.851
 6.613 	0.093 	0.182
 6.351 	0.379 	-0.029
 5.885 	0.012 	0.023
 5.813 	-0.351 	0.107
 5.953 	0.240 	0.133
 5.790 	0.707 	-0.133
 6.719 	0.364 	-0.149
 6.669 	0.539 	-0.109
 6.150 	0.792 	0.308
 5.984 	0.757 	-0.003
 6.173 	0.635 	-0.075
 6.403 	0.446 	-0.193
 6.550 	-0.472 	-0.006
 6.444 	-0.635 	0.077
 6.749 	-0.086 	0.371
 6.381 	0.040 	0.588
 5.668 	0.376 	0.481
 5.536 	0.733 	0.218
 5.711 	-0.150 	-0.348
 5.646 	-0.599 	-0.029
 6.225 	-1.142 	0.442
 6.814 	-0.346 	-0.125
 6.990 	0.316 	0.133
 6.904 	0.528 	-0.141
 7.305 	0.658 	-0.445
 7.154 	0.798 	-0.313
 6.789 	0.851 	-0.201
 7.093 	0.221 	0.035
 7.444 	-0.087 	0.140
 6.685 	-0.732 	0.051
 6.301 	-0.648 	0.569
 6.317 	0.266 	0.254
 6.235 	0.818 	0.365
 6.750 	0.341 	-0.291
 6.858 	-0.102 	-0.659
 6.670 	-0.709 	-0.429
 7.222 	-1.816 	0.355
 7.238 	-0.879 	0.396
 6.370 	0.339 	0.165
 6.321 	0.317 	-0.040
 6.577 	0.222 	-0.372
 6.869 	0.561 	-0.283
 7.125 	0.584 	-0.230
 7.386 	0.121 	-0.256
 7.666 	0.137 	-0.047
 7.548 	-0.536 	0.040
 7.009 	-0.259 	0.052
 6.678 	-0.055 	-0.065
 7.135 	0.207 	-0.163
 7.369 	0.154 	-0.251
 7.408 	-0.085 	-0.244
 7.492 	-0.916 	-0.384
 7.248 	-1.245 	0.517
 6.737 	-0.376 	0.754
 6.184 	0.393 	-0.053
 6.522 	-0.058 	-0.093
 6.514 	-0.594 	-0.192
 6.743 	-0.311 	-0.274
 7.021 	-0.084 	-0.100
 7.351 	0.050 	0.063
 7.561 	-0.018 	0.038
 7.354 	-0.329 	-0.277
 7.239 	0.012 	-0.440
 7.318 	-0.441 	-0.543
 7.399 	-0.190 	-0.452
 7.325 	0.178 	-0.180
 6.721 	-0.703 	0.219
 5.578 	-0.639 	0.644
 5.209 	-0.495 	1.525
 5.675 	-0.795 	0.786
 6.758 	0.206 	-0.146
 6.755 	-0.515 	-0.014
 6.913 	-0.998 	0.207
 6.707 	-0.959 	-0.093
 6.724 	-0.370 	-0.309
 6.921 	-0.290 	-0.431
 7.098 	-0.359 	-0.400
 7.044 	-0.733 	-0.438
 7.288 	-0.671 	-0.678
 7.105 	-0.608 	-0.896
 6.561 	0.052 	-0.040
 6.528 	0.178 	0.537
 5.766 	0.180 	0.555
 5.004 	-1.082 	1.380
 5.051 	-0.580 	1.125
 4.981 	-0.229 	0.077
 6.705 	-0.018 	0.005
 6.949 	-0.149 	-0.137
 7.013 	-0.475 	-0.273
 7.010 	-0.524 	0.194
 7.040 	-0.550 	0.039
 7.388 	-0.602 	-0.274
 7.369 	-0.651 	-0.405
 6.879 	-0.805 	-0.493
 6.397 	-0.883 	-0.385
 6.266 	-0.126 	-0.044
 6.538 	0.276 	0.168
 6.564 	-0.038 	0.083
 5.971 	0.068 	0.704
 5.859 	-0.332 	0.305
 6.303 	-0.667 	1.199
 5.773 	-0.290 	0.853
 6.626 	-0.174 	0.006
 6.972 	-0.294 	-0.113
 7.192 	-0.381 	-0.396
 7.548 	-0.271 	-0.568
 7.700 	-0.215 	-0.466
 7.268 	-0.269 	-0.257
 6.769 	-0.263 	-0.155
 6.595 	-0.492 	-0.238
 6.543 	-0.787 	-0.150
 6.724 	-0.632 	-0.000
 6.747 	-0.481 	0.078
 6.812 	-0.064 	0.448
 7.039 	-0.352 	0.022
 6.529 	-0.206 	0.046
 6.330 	0.239 	0.974
 6.804 	0.043 	0.275
 6.363 	-0.412 	-0.023
 6.309 	-0.562 	-0.345
 6.248 	-0.735 	-0.334
 5.971 	-0.229 	-0.029
 6.023 	0.053 	0.371
 6.026 	-0.011 	0.316
 6.160 	-0.215 	0.129
 6.535 	-0.455 	-0.032
 6.805 	-0.500 	-0.094
 6.894 	-0.519 	-0.033
 6.833 	-0.499 	-0.081
 6.989 	0.055 	0.149
 6.806 	-0.186 	0.242
 6.607 	-0.351 	0.036
 6.718 	-0.170 	0.017
 7.001 	-0.190 	-0.143
 7.299 	-0.376 	-0.088
 6.821 	-0.733 	-0.311
 5.820 	-0.070 	-0.131
 5.157 	0.264 	0.673
 5.195 	-0.069 	0.966
 5.752 	-0.068 	0.510
 6.292 	-0.048 	-0.138
 6.068 	-0.466 	0.171
 5.626 	-0.321 	0.163
 5.658 	-0.746 	0.393
 6.114 	-0.750 	0.176
 5.959 	-0.203 	0.509
 6.277 	0.242 	1.005
 6.453 	-0.392 	1.124
 6.715 	-0.625 	0.625
 7.103 	-1.362 	0.134
 6.447 	-0.283 	0.225
 5.757 	-0.255 	-0.271
 5.179 	0.444 	0.342
 5.558 	0.421 	0.538
 6.238 	-0.027 	-0.111
 6.845 	-0.296 	0.023
 6.984 	-0.189 	-0.126
 6.446 	0.229 	0.110
 6.362 	0.144 	0.100
 6.022 	-0.162 	0.255
 5.139 	-0.552 	0.877
 5.441 	-0.664 	1.093
 6.023 	-0.663 	1.014
 6.875 	-0.865 	0.348
 7.472 	-0.964 	0.125
 7.377 	-1.156 	-0.125
 5.849 	0.155 	0.449
 5.828 	-0.313 	0.071
 5.730 	0.344 	0.355
 6.634 	0.174 	-0.024
 6.769 	0.007 	-0.114
 6.921 	-0.090 	0.146
 6.865 	-0.522 	-0.140
 7.074 	-0.179 	-0.254
 7.558 	0.225 	-0.011
 7.533 	0.373 	-0.227
 7.533 	-0.325 	-0.024
 7.589 	-0.348 	0.027
 7.647 	-0.465 	-0.104
 7.765 	-0.858 	-0.190
 7.875 	-1.077 	-0.387
 8.095 	-1.019 	-0.691
 7.083 	0.187 	-0.364
 6.862 	0.284 	-0.208
 6.709 	0.424 	-0.205
 6.862 	0.245 	-0.060
 6.497 	-0.218 	0.283
 6.257 	-0.238 	0.458
 6.230 	-0.505 	0.016
 6.384 	-0.493 	-0.412
 6.650 	-0.299 	-0.535
 7.074 	-0.180 	-0.473
 7.551 	-0.097 	-0.092
 7.758 	-0.342 	-0.367
 7.609 	-0.729 	-0.343
 7.722 	-0.977 	-0.417
 7.894 	-1.136 	-0.464
 8.033 	-0.907 	-0.723
 5.927 	-0.162 	-0.509
 6.351 	0.123 	-0.363
 6.566 	0.241 	-0.241
 6.142 	0.195 	0.431
 6.125 	-0.278 	0.639
 6.076 	-0.232 	0.525
 6.239 	-0.341 	0.175
 6.390 	-0.481 	-0.257
 6.496 	-0.542 	-0.552
 6.983 	-0.122 	-0.604
 7.551 	0.011 	-0.665
 7.579 	-0.027 	-0.747
 7.775 	0.075 	-0.859
 7.896 	-0.222 	-0.783
 7.648 	-0.467 	-0.083
 7.463 	-0.628 	-0.095
 5.575 	0.477 	0.884
 6.066 	1.416 	1.114
 6.169 	1.484 	0.779
 5.552 	1.736 	0.777
 5.642 	1.439 	0.601
 5.756 	1.011 	0.310
 5.620 	0.616 	0.318
 5.818 	0.351 	0.368
 6.121 	0.286 	0.369
 6.308 	0.050 	0.257
 6.744 	-0.091 	0.206
 6.807 	0.585 	0.494
 6.908 	0.421 	0.145
 6.908 	-0.067 	-0.270
 7.013 	-0.227 	-0.356
 6.819 	-0.210 	-0.318
 4.791 	0.221 	0.540
 5.132 	0.532 	0.495
 5.493 	1.215 	0.578
 5.745 	1.338 	0.642
 5.447 	1.087 	0.416
 5.308 	0.782 	0.674
 5.290 	0.296 	0.771
 5.499 	-0.186 	0.795
 6.007 	-0.509 	0.591
 6.514 	-0.446 	0.362
 6.651 	-0.090 	0.124
 6.513 	0.290 	0.231
 6.631 	0.364 	0.472
 6.642 	-0.228 	0.592
 6.737 	-0.530 	0.048
 6.318 	0.055 	0.011
 6.040 	0.097 	0.069
 5.896 	0.241 	0.174
 5.535 	0.564 	0.580
 5.285 	0.984 	0.699
 5.492 	1.137 	0.643
 5.522 	0.967 	0.270
 5.535 	0.695 	0.145
 5.818 	-0.020 	0.304
 6.490 	-0.615 	0.550
 6.647 	-0.834 	0.602
 6.698 	-0.004 	0.539
 6.766 	0.499 	0.270
 6.571 	0.288 	0.211
 6.501 	-0.399 	0.169
 6.485 	-0.593 	0.232
 6.488 	-0.081 	-0.026
 7.118 	0.517 	-0.068
 6.614 	0.622 	-0.012
 6.184 	0.692 	0.145
 6.195 	0.978 	0.043
 6.034 	1.330 	-0.150
 5.805 	0.878 	-0.297
 6.108 	0.352 	-0.040
 6.698 	-0.372 	0.111
 6.701 	-0.831 	0.212
 6.728 	-0.577 	0.414
 6.096 	0.311 	0.758
 6.534 	0.065 	0.114
 6.741 	0.134 	-0.234
 6.416 	-0.151 	0.043
 6.410 	-0.455 	0.678
 6.543 	-0.409 	0.671
 6.931 	0.336 	0.138
 7.261 	0.832 	-0.028
 7.056 	0.991 	-0.186
 6.556 	1.193 	-0.083
 6.380 	1.104 	-0.175
 6.573 	0.626 	-0.037
 6.657 	-0.045 	-0.015
 6.567 	-0.369 	0.283
 6.661 	-0.742 	0.459
 6.559 	-0.863 	0.444
 7.043 	-0.237 	0.589
 7.197 	-0.497 	0.139
 6.963 	-0.143 	-0.225
 6.736 	-0.052 	-0.033
 6.664 	-0.643 	0.414
 7.160 	-0.768 	0.698
 6.759 	0.324 	0.106
 6.693 	0.747 	0.179
 6.720 	0.966 	0.030
 6.701 	1.051 	0.004
 6.837 	0.957 	0.007
 7.029 	0.422 	-0.235
 6.988 	0.038 	-0.185
 7.054 	-0.332 	0.037
 7.125 	-0.524 	-0.072
 7.138 	-0.703 	-0.135
 7.205 	-0.802 	-0.100
 7.559 	-0.395 	-0.156
 7.381 	-0.241 	-0.151
 7.340 	-0.308 	-0.230
 7.647 	-0.729 	-0.206
 7.851 	-0.644 	-0.024
 6.698 	0.587 	0.076
 6.472 	0.788 	0.155
 6.513 	0.985 	-0.005
 6.687 	1.070 	-0.170
 7.016 	0.907 	-0.146
 7.357 	0.544 	-0.039
 7.289 	0.210 	-0.006
 7.396 	-0.101 	-0.346
 7.237 	-0.159 	-0.564
 7.241 	-0.639 	-0.345
 7.137 	-0.644 	-0.213
 6.817 	-0.563 	-0.079
 6.789 	-0.782 	0.538
 6.913 	-0.475 	0.792
 6.828 	-0.448 	1.309
 7.482 	-0.452 	0.603
 6.702 	0.692 	0.200
 6.668 	0.732 	0.043
 6.603 	0.758 	-0.033
 6.857 	0.473 	-0.031
 7.109 	0.084 	-0.081
 7.340 	0.035 	0.005
 7.458 	0.034 	0.050
 7.365 	-0.131 	-0.053
 7.270 	-0.299 	-0.284
 6.951 	-0.501 	-0.111
 6.652 	-0.751 	0.019
 5.999 	-0.454 	0.450
 6.055 	-0.054 	0.845
 5.976 	-0.860 	1.190
 6.515 	-1.016 	0.795
 6.092 	-0.789 	0.571
 6.687 	-0.023 	0.239
 6.918 	0.244 	0.013
 7.000 	0.326 	-0.144
 7.154 	0.101 	-0.182
 7.549 	-0.331 	-0.307
 7.554 	-0.553 	-0.337
 7.538 	-0.521 	-0.150
 7.516 	-0.396 	-0.058
 7.269 	-0.258 	-0.259
 7.499 	-0.774 	0.206
 6.781 	-0.829 	0.456
 6.614 	-0.622 	0.887
 6.602 	-0.300 	0.910
 6.842 	-0.290 	0.517
 7.076 	-0.725 	0.297
 7.335 	-0.806 	0.750
 6.914 	-0.224 	0.263
 7.111 	-0.329 	0.075
 7.394 	-0.376 	-0.152
 7.610 	-0.520 	-0.196
 7.483 	-0.627 	-0.296
 7.292 	-0.677 	-0.352
 7.235 	-0.570 	-0.265
 7.518 	-0.317 	-0.355
 7.726 	-0.093 	-0.475
 7.838 	-0.449 	0.025
 7.646 	-0.648 	0.313
 7.461 	-0.771 	0.409
 7.152 	-0.667 	0.514
 7.251 	-0.830 	0.498
 7.247 	-1.152 	0.370
 7.511 	-1.068 	0.139
 7.529 	-0.504 	-0.066
 7.363 	-0.645 	-0.026
 7.238 	-0.798 	-0.044
 6.998 	-0.527 	0.147
 6.627 	-0.577 	0.222
 6.830 	-0.528 	0.009
 7.062 	-0.469 	-0.102
 7.156 	-0.440 	-0.055
 7.313 	-0.295 	0.034
 7.652 	-0.277 	0.110
 7.817 	-0.380 	0.224
 7.499 	-0.571 	0.306
 7.077 	-0.767 	0.313
 7.138 	-0.908 	0.247
 7.228 	-1.229 	0.179
 7.138 	-1.564 	0.139
 7.578 	-0.485 	-0.123
 7.318 	-0.454 	0.002
 6.852 	-0.631 	0.165
 6.373 	-0.435 	0.536
 6.513 	-0.394 	0.482
 6.941 	-0.831 	0.157
 7.113 	-0.727 	0.004
 7.263 	-0.346 	-0.120
 7.360 	-0.314 	0.009
 7.003 	-0.160 	0.466
 6.744 	-0.527 	0.539
 6.553 	-0.926 	0.585
 6.630 	-1.000 	0.523
 6.873 	-0.959 	0.450
 7.152 	-1.080 	0.308
 7.284 	-1.220 	0.221
 6.814 	-0.239 	0.345
 6.617 	-0.332 	0.235
 6.545 	-0.331 	0.320
 6.754 	-0.433 	0.304
 6.899 	-0.808 	0.138
 6.726 	-0.959 	-0.012
 6.705 	-0.951 	0.047
 6.866 	-0.675 	0.043
 7.176 	-0.257 	0.070
 7.419 	0.056 	0.111
 7.373 	-0.028 	0.470
 7.199 	-0.336 	0.578
 7.404 	-0.569 	0.384
 7.619 	-0.701 	0.130
 7.765 	-0.774 	-0.279
 7.757 	-0.924 	0.022
 6.796 	0.086 	0.179
 6.553 	-0.124 	0.210
 6.674 	-0.395 	0.219
 6.616 	-0.698 	-0.015
 6.259 	-0.922 	-0.078
 6.181 	-1.188 	0.052
 6.377 	-0.968 	-0.224
 6.591 	-0.829 	-0.193
 6.856 	-0.569 	0.021
 7.223 	-0.271 	0.104
 7.810 	-0.182 	0.056
 8.142 	-0.330 	-0.283
 7.886 	-0.438 	-0.677
 7.871 	-0.418 	-0.701
 7.900 	-0.512 	-0.482
 7.550 	-0.665 	-0.514
 6.200 	-0.084 	-0.075
 6.357 	-0.194 	0.031
 6.537 	-0.571 	-0.087
 6.389 	-0.774 	0.024
 6.193 	-0.616 	0.344
 6.236 	-1.175 	0.295
 6.461 	-1.312 	-0.022
 6.774 	-1.302 	-0.369
 7.044 	-1.171 	-0.585
 7.536 	-0.499 	-0.610
 7.872 	-0.097 	-0.649
 7.964 	0.140 	-0.712
 7.930 	0.138 	-0.780
 7.733 	0.045 	-0.907
 7.545 	-0.169 	-0.931
 7.770 	-0.673 	-0.732
 6.328 	-0.366 	-0.240
 6.498 	-0.905 	0.071
 6.008 	-0.792 	0.234
 5.853 	-0.628 	0.701
 6.174 	-0.597 	0.831
 6.401 	-1.120 	0.384
 6.729 	-1.418 	0.013
 6.966 	-1.073 	-0.543
 6.922 	-1.179 	-0.602
 6.972 	-1.283 	-0.672
 7.569 	-0.355 	-0.867
 8.032 	0.122 	-1.151
 8.034 	0.240 	-1.199
 7.770 	0.025 	-1.129
 8.109 	-0.297 	-0.378
 8.148 	-0.588 	-0.423
 5.381 	0.204 	0.825
 5.404 	0.743 	1.141
 5.577 	1.229 	0.946
 5.894 	1.312 	0.580
 6.307 	1.333 	0.333
 6.504 	1.139 	0.232
 6.466 	0.818 	0.218
 6.248 	0.650 	0.190
 6.206 	0.546 	0.220
 6.404 	0.493 	0.247
 6.630 	0.372 	0.301
 6.816 	0.224 	0.428
 6.902 	0.087 	0.201
 6.860 	-0.095 	0.004
 7.031 	-0.265 	-0.085
 7.098 	-0.249 	-0.268
 5.166 	0.580 	0.330
 5.179 	0.647 	0.708
 5.470 	1.111 	1.073
 5.842 	1.102 	0.872
 5.863 	1.163 	0.663
 5.661 	1.359 	0.707
 5.586 	1.129 	0.553
 5.689 	1.044 	0.489
 6.018 	0.718 	0.334
 6.248 	0.226 	0.163
 6.687 	0.042 	0.169
 6.836 	0.074 	0.363
 6.975 	-0.080 	0.371
 7.042 	-0.152 	0.436
 6.967 	-0.438 	0.332
 7.095 	-0.398 	0.357
 6.374 	0.585 	0.047
 6.201 	0.438 	0.304
 6.079 	0.638 	0.419
 6.025 	0.921 	0.512
 5.760 	1.393 	0.560
 5.654 	1.416 	0.498
 5.650 	1.094 	0.211
 5.777 	1.172 	-0.015
 6.114 	0.438 	0.432
 6.586 	-0.415 	0.932
 6.801 	-0.705 	0.760
 7.020 	-0.301 	0.375
 7.133 	0.017 	0.268
 7.200 	-0.002 	0.240
 7.283 	-0.375 	0.226
 7.077 	-0.424 	0.314
 7.119 	0.578 	0.003
 6.958 	0.665 	0.270
 6.555 	0.639 	0.344
 6.321 	1.027 	0.139
 6.163 	1.439 	0.139
 5.990 	1.134 	-0.020
 6.005 	0.966 	0.013
 6.335 	0.708 	0.183
 6.599 	0.195 	0.147
 6.848 	-0.462 	0.246
 7.121 	-0.612 	0.538
 7.276 	-0.460 	0.345
 7.233 	-0.321 	0.168
 6.881 	-0.286 	0.303
 6.736 	-0.247 	0.363
 6.617 	-0.316 	0.459
 6.664 	0.390 	0.101
 7.028 	0.700 	0.093
 7.179 	1.045 	0.022
 7.003 	1.051 	0.093
 6.739 	1.103 	0.052
 6.648 	0.892 	0.100
 6.598 	0.786 	0.051
 6.746 	0.390 	0.011
 6.935 	-0.001 	0.246
 6.720 	-0.249 	0.564