# vtk DataFile Version 3.0
HighT1
ASCII
DATASET STRUCTURED_POINTS
DIMENSIONS 16 16 19
ORIGIN 929.001000000000 929.001000000000 5.001000000000
SPACING 10.000000000000 10.000000000000 10.000000000000
POINT_DATA 4864
FIELD attributes 1
U 3 4864 float
2.992 	-0.872 	0.057
 3.116 	-0.693 	0.125
 3.219 	-0.651 	0.205
 3.309 	-0.614 	0.054
 3.592 	-0.678 	-0.008
 3.796 	-0.323 	-0.021
 3.573 	0.086 	-0.068
 3.620 	-0.012 	0.046
 3.574 	-0.094 	0.146
 3.515 	0.001 	0.225
 3.356 	-0.237 	0.151
 3.433 	0.100 	-0.165
 4.161 	0.321 	-0.451
 4.848 	0.243 	-0.587
 5.400 	0.013 	-0.393
 5.282 	-0.133 	-0.005
 3.112 	-0.781 	0.005
 2.966 	-0.404 	-0.237
 2.888 	-0.248 	-0.169
 2.698 	-0.158 	-0.087
 2.833 	-0.336 	-0.060
 3.106 	-0.376 	-0.011
 3.584 	-0.471 	0.029
 3.877 	-0.330 	0.094
 3.984 	-0.121 	0.071
 3.995 	-0.184 	0.020
 3.790 	-0.336 	0.017
 3.974 	-0.272 	0.094
 4.687 	0.382 	0.042
 4.727 	0.787 	-0.265
 5.009 	0.697 	-0.497
 5.186 	0.534 	-0.126
 4.671 	-0.388 	0.057
 3.703 	-0.067 	0.219
 3.363 	-0.246 	0.347
 3.258 	-0.658 	0.323
 3.599 	-0.706 	0.170
 4.074 	-0.967 	-0.083
 4.434 	-1.173 	-0.001
 4.346 	-0.750 	0.072
 3.817 	-0.317 	0.173
 3.078 	0.059 	0.323
 3.188 	-0.423 	0.211
 3.583 	-0.835 	-0.163
 3.903 	-0.907 	-0.025
 4.424 	0.340 	0.375
 4.705 	1.283 	0.087
 4.723 	1.243 	-0.119
 4.919 	0.220 	-0.054
 5.256 	-0.349 	-0.080
 5.366 	-0.819 	-0.163
 5.207 	-0.668 	-0.010
 4.466 	-0.700 	0.093
 4.344 	-0.789 	-0.026
 4.490 	-1.049 	0.006
 4.033 	-0.886 	0.192
 4.490 	-0.308 	-0.001
 4.567 	-0.446 	0.109
 4.793 	-0.679 	0.097
 4.274 	-0.467 	0.119
 4.647 	-0.860 	-0.227
 4.761 	0.093 	0.078
 4.020 	0.997 	0.225
 4.205 	0.773 	-0.213
 4.897 	-0.036 	-0.117
 4.856 	-0.170 	-0.152
 4.837 	-0.084 	-0.219
 4.586 	-0.117 	-0.001
 4.166 	-0.417 	-0.039
 4.097 	-0.685 	-0.011
 3.754 	-0.916 	0.232
 3.316 	-1.352 	0.262
 3.236 	-1.416 	0.500
 3.327 	-2.040 	0.303
 4.036 	-1.954 	-0.173
 5.445 	-1.467 	-0.198
 6.289 	-0.731 	-0.224
 5.605 	0.739 	-0.170
 4.060 	0.903 	0.324
 3.633 	1.191 	0.195
 4.138 	0.330 	0.146
 3.921 	0.229 	0.103
 3.931 	0.292 	0.023
 4.064 	0.175 	-0.080
 4.081 	-0.027 	-0.084
 4.111 	-0.883 	-0.071
 4.057 	-0.541 	0.114
 3.573 	-0.882 	0.187
 4.001 	-1.887 	0.237
 4.407 	-2.414 	0.160
 5.439 	-1.482 	-0.563
 4.954 	-1.280 	-0.169
 4.484 	-0.037 	0.346
 3.431 	1.212 	0.315
 3.201 	0.895 	0.205
 3.881 	-0.010 	-0.120
 3.832 	-0.178 	0.259
 4.046 	-0.327 	0.143
 4.312 	-0.333 	0.051
 4.497 	0.016 	0.021
 4.841 	0.349 	-0.086
 5.359 	-0.054 	-0.673
 3.928 	-0.001 	0.237
 4.182 	-0.703 	-0.049
 4.827 	-1.310 	-0.803
 4.919 	-1.598 	-0.409
 5.026 	-0.788 	0.222
 5.860 	0.657 	-0.736
 4.901 	0.912 	-0.145
 4.349 	0.892 	0.209
 3.350 	0.339 	-0.047
 3.049 	-0.046 	0.124
 4.628 	-0.379 	-0.038
 4.551 	-0.735 	-0.041
 4.756 	-0.769 	-0.211
 4.957 	-0.567 	-0.153
 5.526 	0.045 	-0.330
 5.623 	0.403 	-0.389
 5.092 	0.734 	0.079
 4.529 	-0.778 	-0.421
 5.341 	-0.782 	-0.885
 4.709 	-0.692 	0.082
 4.138 	-0.782 	0.296
 3.745 	0.735 	0.387
 4.116 	1.335 	0.077
 4.131 	0.517 	0.159
 3.444 	1.132 	0.144
 2.661 	0.272 	0.232
 4.243 	-0.174 	-0.012
 4.118 	-0.474 	-0.113
 4.313 	-0.478 	-0.161
 4.496 	-0.221 	-0.086
 4.883 	0.053 	-0.054
 5.062 	1.322 	-0.168
 5.443 	0.977 	-0.326
 5.177 	0.409 	-0.358
 4.973 	-0.332 	-0.224
 4.769 	0.137 	-0.420
 4.529 	-0.703 	0.628
 3.616 	-0.092 	0.048
 3.991 	1.114 	-0.018
 3.465 	1.323 	0.150
 2.763 	1.195 	0.256
 2.528 	-0.042 	0.226
 4.704 	-0.037 	0.102
 4.376 	-0.280 	-0.060
 4.243 	-0.391 	0.003
 4.251 	-0.370 	0.065
 4.611 	0.123 	-0.056
 5.093 	0.669 	0.009
 5.264 	0.554 	0.133
 5.082 	0.810 	-0.064
 5.346 	0.323 	-0.358
 5.976 	0.416 	-0.543
 5.548 	0.568 	0.434
 3.353 	0.143 	0.283
 2.941 	0.757 	0.095
 3.166 	1.117 	0.116
 3.364 	0.586 	0.193
 3.050 	0.001 	0.204
 4.456 	-0.203 	0.138
 4.274 	0.071 	0.035
 4.660 	-0.009 	-0.120
 5.247 	-0.403 	-0.137
 4.837 	-0.393 	0.098
 4.595 	0.257 	-0.104
 4.936 	0.560 	-0.251
 5.161 	0.736 	-0.030
 6.119 	0.483 	-0.491
 5.650 	1.077 	-0.041
 5.896 	1.236 	-0.335
 5.077 	0.897 	0.362
 3.654 	0.883 	0.237
 2.777 	0.595 	0.537
 3.078 	-0.714 	0.244
 3.625 	-0.760 	-0.146
 2.772 	-1.426 	0.154
 3.952 	-0.523 	-0.638
 4.682 	-0.188 	-0.704
 5.346 	0.279 	-0.206
 4.982 	0.438 	-0.049
 4.403 	0.394 	-0.109
 4.706 	0.865 	-0.119
 4.599 	1.079 	0.137
 4.657 	1.410 	0.402
 4.715 	1.712 	0.110
 5.140 	1.741 	-0.107
 5.427 	1.543 	0.346
 5.311 	0.951 	0.232
 4.319 	-0.091 	0.333
 4.657 	-0.876 	-0.418
 4.776 	-0.641 	-0.414
 2.590 	-1.364 	-0.274
 3.086 	-0.939 	0.166
 3.880 	0.231 	0.063
 4.220 	0.542 	0.161
 4.205 	0.165 	0.126
 4.078 	0.793 	0.162
 3.650 	0.991 	0.313
 3.316 	1.266 	0.433
 3.334 	0.663 	0.012
 4.068 	0.517 	-0.069
 4.531 	0.454 	0.117
 5.012 	0.936 	0.140
 4.917 	0.616 	0.092
 5.361 	0.146 	-0.602
 4.897 	0.393 	-0.644
 3.648 	0.264 	-0.113
 3.650 	-0.257 	-0.330
 3.183 	-1.085 	0.084
 3.110 	-0.675 	0.055
 3.203 	0.104 	0.144
 2.870 	0.414 	0.363
 2.797 	0.400 	0.415
 3.257 	0.606 	0.220
 3.191 	0.831 	0.233
 3.776 	0.389 	-0.264
 3.945 	0.479 	-0.185
 3.910 	-0.029 	0.149
 3.619 	-0.031 	0.249
 3.671 	0.272 	0.228
 3.938 	0.724 	0.151
 4.784 	1.595 	-0.227
 5.488 	1.993 	-0.442
 3.529 	-0.299 	0.070
 3.498 	-0.383 	-0.067
 3.320 	-0.863 	-0.028
 3.981 	-0.034 	-0.220
 4.225 	0.353 	0.211
 4.047 	-0.399 	-0.234
 4.072 	-0.316 	0.065
 4.357 	0.254 	-0.118
 4.224 	0.531 	0.088
 3.820 	0.636 	0.219
 3.541 	0.313 	0.474
 3.523 	-0.133 	0.179
 3.402 	0.302 	0.223
 2.770 	0.690 	0.302
 2.240 	1.226 	0.438
 2.647 	1.642 	0.226
 4.174 	-0.339 	-0.207
 4.620 	-0.063 	-0.520
 5.093 	-0.159 	-0.484
 5.576 	-0.309 	0.009
 3.665 	0.571 	0.309
 3.334 	0.499 	-0.503
 2.639 	0.022 	0.283
 2.113 	0.241 	0.305
 2.485 	0.243 	-0.141
 3.407 	0.341 	-0.005
 3.911 	-0.161 	-0.040
 3.547 	-0.316 	0.139
 2.815 	-0.265 	0.236
 2.940 	0.182 	0.065
 3.330 	0.265 	-0.097
 3.763 	0.327 	-0.189
 4.555 	0.707 	0.028
 3.918 	0.799 	0.191
 3.731 	0.714 	-0.117
 4.182 	0.496 	-0.395
 4.429 	0.316 	-0.353
 4.772 	-0.064 	-0.260
 5.278 	-0.687 	0.101
 5.258 	-0.397 	0.166
 4.549 	0.165 	0.379
 4.438 	0.202 	0.391
 4.859 	-0.217 	0.030
 4.954 	-0.469 	-0.529
 5.212 	-0.207 	-0.678
 5.211 	0.072 	-0.182
 5.420 	0.194 	-0.218
 5.061 	0.292 	-0.098
 4.665 	0.588 	0.097
 4.102 	0.666 	-0.031
 3.800 	0.758 	-0.177
 3.874 	0.396 	-0.057
 4.067 	-0.121 	0.011
 4.062 	-0.219 	0.262
 4.368 	-0.358 	0.500
 4.757 	-0.527 	0.479
 4.978 	-0.108 	0.142
 5.363 	0.289 	-0.007
 5.103 	0.003 	-0.040
 4.688 	-0.125 	0.209
 4.999 	-0.663 	-0.090
 5.798 	-0.979 	-0.419
 5.480 	-0.600 	-0.470
 6.148 	-0.010 	-0.389
 3.996 	0.980 	0.198
 3.751 	0.737 	0.652
 4.034 	0.679 	0.731
 4.671 	0.315 	0.581
 6.020 	-0.434 	-0.084
 5.402 	-0.277 	-0.017
 4.816 	-0.666 	0.672
 4.509 	-1.142 	1.014
 4.804 	-0.263 	0.470
 4.734 	0.212 	0.084
 5.126 	0.353 	-0.060
 5.267 	-0.418 	-0.403
 5.400 	-0.885 	-0.224
 6.171 	-1.181 	0.255
 6.658 	-0.838 	-0.669
 6.109 	-0.464 	-0.146
 5.571 	0.624 	0.026
 5.929 	0.278 	-0.048
 6.048 	-0.167 	-0.029
 6.349 	-0.501 	-0.041
 6.693 	-0.452 	0.042
 6.215 	-0.848 	-0.350
 6.336 	-0.150 	0.027
 6.680 	-0.563 	0.509
 4.945 	-0.443 	1.135
 5.011 	-0.125 	0.750
 5.161 	-0.334 	0.512
 5.869 	-0.409 	-0.120
 6.554 	-1.157 	-0.285
 6.975 	-1.100 	0.211
 6.865 	-0.894 	0.039
 6.534 	-0.707 	-0.881
 6.142 	0.448 	-0.283
 6.426 	-0.133 	-0.205
 6.494 	-0.660 	-0.189
 6.474 	-0.618 	-0.170
 6.323 	-0.491 	-0.233
 6.206 	-0.181 	-0.373
 6.606 	-0.520 	-0.164
 6.872 	0.106 	0.312
 6.107 	0.537 	0.434
 5.530 	0.544 	-0.092
 5.822 	-0.104 	-0.515
 6.383 	-0.814 	-0.459
 6.791 	-2.315 	-0.143
 6.228 	-0.606 	-0.078
 6.205 	-0.140 	0.262
 6.000 	-0.455 	-0.375
 6.378 	0.196 	0.026
 6.570 	-0.047 	-0.071
 6.865 	-0.682 	-0.198
 6.824 	-0.827 	-0.244
 6.408 	-0.287 	-0.376
 6.399 	-0.113 	-0.524
 6.770 	-0.256 	-0.362
 6.942 	0.187 	-0.183
 6.964 	0.803 	-0.336
 7.167 	0.202 	-0.393
 6.961 	-0.505 	-0.446
 6.652 	-0.674 	-0.860
 5.826 	-1.472 	0.514
 4.920 	0.014 	0.453
 5.247 	0.317 	0.183
 5.317 	0.173 	-0.206
 5.770 	0.500 	0.182
 6.363 	0.388 	-0.328
 7.370 	-0.519 	-0.537
 7.129 	-0.674 	-0.067
 6.314 	-0.332 	-0.349
 6.450 	-0.353 	-0.504
 6.869 	-0.061 	-0.649
 7.180 	-0.051 	-0.821
 7.239 	0.180 	-0.477
 6.784 	-0.499 	-0.205
 7.424 	-0.947 	-0.763
 7.858 	-0.340 	-0.601
 6.022 	0.650 	0.710
 4.996 	-0.021 	0.648
 5.101 	-0.081 	0.605
 5.156 	0.741 	0.205
 6.481 	0.918 	-0.632
 6.451 	0.255 	-0.541
 6.529 	-0.400 	-0.051
 6.430 	0.108 	-0.041
 6.732 	-0.262 	-0.783
 6.674 	-0.382 	-0.190
 6.618 	0.213 	-0.183
 7.003 	0.213 	-1.279
 6.158 	0.384 	-0.309
 4.937 	-0.122 	0.116
 4.652 	-0.987 	0.469
 5.002 	-0.281 	0.012
 4.905 	0.640 	0.184
 5.233 	0.367 	0.242
 3.822 	0.721 	1.320
 2.810 	0.700 	1.136
 7.045 	0.568 	-0.266
 7.598 	0.336 	-0.157
 6.241 	-0.027 	0.098
 6.180 	-0.525 	0.002
 6.525 	-0.218 	-0.375
 6.398 	-0.032 	-0.015
 5.762 	0.650 	-0.130
 5.407 	0.057 	-0.229
 5.895 	0.278 	-0.021
 5.774 	0.394 	-0.327
 4.231 	-0.168 	0.913
 3.023 	-0.227 	0.899
 3.805 	0.194 	-0.219
 3.603 	0.724 	0.254
 2.949 	1.063 	0.700
 3.277 	0.285 	0.161
 7.298 	0.075 	0.160
 7.394 	0.482 	-0.132
 6.708 	0.569 	-0.149
 6.233 	-0.094 	0.078
 6.350 	-0.314 	-0.155
 6.509 	0.605 	0.083
 6.591 	0.429 	0.071
 7.017 	0.511 	-0.617
 6.261 	0.181 	-0.370
 5.838 	0.645 	-0.368
 5.427 	0.474 	0.911
 4.478 	-0.224 	0.871
 4.118 	0.394 	-0.094
 3.965 	1.207 	0.466
 4.116 	0.891 	0.643
 4.543 	-0.119 	0.580
 6.746 	0.544 	0.410
 7.139 	0.819 	-0.240
 6.914 	0.906 	-0.044
 6.430 	0.098 	-0.017
 6.228 	-0.057 	-0.089
 6.033 	0.067 	-0.050
 6.500 	0.199 	-0.158
 6.867 	0.510 	-0.116
 6.441 	-0.004 	0.030
 6.207 	0.880 	-0.160
 6.050 	0.987 	-0.045
 4.827 	0.888 	0.602
 4.214 	1.196 	0.588
 4.746 	1.634 	0.568
 5.256 	1.317 	-0.192
 5.401 	-0.069 	-0.639
 6.829 	1.382 	-0.263
 6.226 	0.604 	-0.408
 5.311 	0.075 	-0.413
 5.111 	-0.205 	-0.570
 5.169 	0.127 	-0.063
 5.020 	0.144 	-0.140
 4.266 	-0.405 	-0.192
 4.146 	-0.173 	-0.162
 4.283 	-0.058 	0.127
 4.258 	0.084 	0.289
 5.374 	1.143 	-0.285
 5.963 	1.680 	-0.146
 4.964 	1.239 	0.857
 5.532 	1.368 	0.526
 6.249 	1.320 	-0.824
 6.853 	0.186 	-1.016
 6.028 	1.170 	-0.522
 4.452 	-0.055 	0.330
 3.993 	-0.089 	-0.049
 4.229 	-0.079 	0.034
 4.232 	-0.153 	0.221
 3.671 	-0.107 	0.344
 3.735 	0.033 	0.460
 4.189 	-0.861 	0.047
 4.137 	-0.206 	0.213
 4.579 	-0.258 	0.370
 4.810 	-0.162 	0.872
 5.356 	0.670 	0.886
 5.833 	1.134 	0.593
 6.587 	1.219 	-0.993
 7.153 	0.587 	-1.111
 7.114 	0.415 	-0.932
 4.977 	1.053 	-0.014
 4.133 	0.601 	0.017
 4.734 	-0.026 	-0.286
 4.884 	-1.098 	0.379
 3.875 	0.579 	0.640
 3.426 	0.405 	0.839
 5.169 	-0.050 	0.024
 5.902 	-0.869 	-0.147
 5.034 	-1.193 	-0.040
 4.660 	-0.507 	-0.282
 5.122 	0.104 	-0.264
 5.800 	0.136 	-0.211
 6.370 	0.631 	-0.369
 6.851 	0.499 	-0.346
 6.872 	0.424 	-0.757
 6.591 	0.397 	-0.635
 5.241 	0.765 	0.145
 5.570 	0.012 	-0.168
 6.055 	-0.093 	-0.374
 5.910 	0.404 	-0.169
 5.218 	0.763 	0.698
 5.494 	0.026 	-0.079
 5.831 	0.366 	-0.198
 5.801 	-0.354 	0.539
 4.321 	-0.672 	-0.110
 3.255 	-0.305 	0.830
 3.485 	-0.220 	0.763
 4.331 	0.151 	0.778
 4.958 	0.395 	0.444
 5.290 	0.363 	0.255
 5.765 	0.417 	-0.011
 6.189 	0.676 	-0.401
 6.326 	1.203 	-0.175
 5.414 	0.256 	-0.252
 5.260 	-0.304 	-0.445
 5.367 	0.329 	0.249
 5.944 	0.392 	-0.021
 5.612 	0.230 	-0.228
 5.937 	0.136 	0.101
 6.071 	0.455 	0.142
 4.814 	0.805 	-0.316
 4.974 	-0.285 	-0.143
 4.816 	-0.340 	0.359
 4.510 	-0.294 	0.435
 4.676 	-0.016 	0.353
 4.947 	0.642 	0.306
 5.570 	0.704 	-0.099
 5.837 	0.822 	-0.189
 5.398 	0.976 	0.661
 5.213 	0.758 	0.111
 5.294 	0.783 	-0.193
 5.741 	1.095 	-0.174
 5.950 	0.927 	-0.285
 5.692 	0.601 	-0.215
 5.501 	0.718 	-0.174
 4.989 	0.414 	0.468
 4.744 	0.267 	1.006
 5.055 	0.259 	0.627
 5.928 	-0.308 	-0.104
 6.044 	-0.025 	-0.133
 5.876 	0.370 	-0.409
 5.429 	-0.067 	0.155
 5.245 	-0.167 	0.541
 5.651 	0.554 	0.110
 5.881 	1.326 	0.060
 5.870 	0.762 	-0.083
 5.005 	0.520 	-0.032
 4.465 	0.446 	0.076
 4.359 	0.234 	0.428
 5.032 	0.064 	0.610
 5.826 	0.429 	0.372
 6.195 	0.487 	0.255
 6.051 	0.495 	0.082
 6.010 	0.027 	-0.250
 5.573 	-0.378 	0.145
 5.498 	-0.207 	0.220
 5.910 	0.372 	-0.448
 5.729 	0.080 	-0.043
 5.734 	-0.158 	0.211
 5.527 	0.558 	0.093
 4.729 	1.149 	0.340
 4.596 	0.886 	0.565
 5.083 	0.488 	0.381
 5.387 	0.503 	0.248
 5.142 	-0.429 	-0.310
 5.014 	-0.324 	0.360
 5.016 	0.219 	0.828
 5.084 	0.165 	0.925
 5.813 	0.155 	0.506
 6.304 	0.249 	-0.085
 5.975 	0.330 	-0.010
 5.373 	-0.010 	-0.137
 5.846 	-0.483 	-0.278
 6.646 	-1.013 	-0.115
 6.882 	-0.904 	0.174
 6.260 	-0.336 	0.335
 5.501 	1.004 	-0.026
 5.884 	0.571 	0.043
 6.082 	0.309 	0.156
 6.146 	0.130 	0.130
 5.646 	0.126 	-0.160
 5.207 	-0.066 	-0.393
 5.130 	0.279 	0.303
 5.099 	0.275 	0.438
 5.349 	0.333 	0.660
 5.336 	0.419 	0.421
 5.429 	0.271 	-0.075
 5.799 	-0.364 	-0.465
 6.098 	-1.343 	-0.265
 6.776 	-1.204 	-0.424
 7.003 	-0.737 	-0.541
 6.452 	-0.564 	-0.495
 6.545 	0.805 	-0.426
 6.659 	0.752 	-0.528
 6.709 	0.551 	-0.394
 6.675 	0.240 	-0.157
 6.462 	-0.137 	0.030
 6.277 	-0.450 	-0.235
 6.235 	0.159 	-0.213
 6.235 	0.340 	0.142
 6.569 	0.519 	0.238
 6.088 	0.631 	-0.043
 6.522 	-0.231 	-0.756
 6.802 	-0.721 	-0.580
 6.847 	-1.860 	0.300
 6.820 	-1.091 	0.254
 6.739 	-0.323 	-0.086
 6.646 	-0.612 	-0.421
 6.409 	0.811 	-0.232
 6.664 	0.745 	-0.559
 6.846 	0.552 	-0.490
 6.972 	0.100 	-0.121
 6.849 	-0.312 	0.069
 6.776 	-0.719 	-0.086
 6.622 	-0.328 	-0.486
 6.738 	0.289 	-0.219
 7.051 	0.384 	0.088
 7.556 	0.057 	0.002
 7.797 	-0.308 	-0.449
 7.797 	-0.882 	-0.755
 6.130 	-1.462 	0.618
 5.847 	-1.078 	0.624
 5.970 	-0.423 	-0.008
 6.042 	-0.258 	-0.323
 6.845 	0.921 	-0.468
 6.830 	0.697 	-0.532
 6.599 	0.714 	-0.286
 6.788 	-0.012 	-0.001
 6.789 	-0.283 	-0.116
 6.877 	-0.842 	-0.515
 7.030 	-0.736 	-0.679
 7.021 	-0.094 	-0.764
 7.213 	0.089 	-0.442
 7.314 	-0.181 	-0.461
 7.079 	-0.429 	-0.258
 7.511 	-0.929 	-0.578
 6.553 	-0.115 	0.457
 5.253 	-0.643 	1.219
 4.657 	-0.442 	0.237
 4.483 	-0.138 	-0.205
 6.681 	0.793 	-0.073
 6.686 	0.568 	-0.056
 6.597 	0.221 	-0.271
 6.836 	-0.111 	-0.419
 7.031 	-0.553 	-0.876
 6.960 	-0.755 	-0.670
 6.994 	-0.503 	-0.461
 6.754 	-0.033 	-0.775
 6.418 	0.320 	-0.225
 5.807 	0.295 	0.201
 4.798 	-0.456 	0.782
 3.742 	-1.038 	0.491
 4.016 	-0.217 	1.028
 3.973 	-0.001 	0.888
 3.252 	0.046 	0.519
 3.171 	0.398 	0.761
 6.609 	0.080 	-0.250
 6.655 	0.122 	0.370
 6.818 	0.487 	0.305
 6.913 	0.007 	-0.232
 6.881 	-0.553 	-0.446
 6.741 	-0.660 	-0.261
 7.175 	-0.160 	-0.333
 6.673 	0.361 	-0.221
 6.564 	0.612 	0.130
 6.334 	0.492 	-0.130
 6.160 	0.572 	0.526
 5.272 	0.100 	0.699
 5.137 	-0.502 	-0.146
 3.032 	0.733 	1.542
 3.117 	0.657 	0.966
 3.980 	0.416 	0.201
 6.618 	-0.013 	-0.370
 6.615 	0.236 	-0.550
 6.538 	0.255 	-0.381
 6.368 	-0.104 	-0.066
 6.248 	-0.396 	-0.167
 6.503 	-0.194 	0.010
 6.844 	0.043 	-0.168
 6.724 	0.610 	-0.134
 6.680 	0.827 	-0.149
 6.408 	0.517 	0.035
 6.327 	1.404 	0.128
 6.447 	0.748 	-0.322
 6.006 	0.298 	-0.073
 4.066 	0.942 	1.068
 4.687 	0.307 	0.484
 5.033 	0.288 	0.141
 6.619 	-0.001 	-0.520
 6.211 	0.702 	-0.340
 5.986 	0.356 	0.285
 5.954 	-0.049 	0.178
 5.971 	-0.273 	-0.043
 5.897 	-0.386 	-0.156
 6.064 	-0.505 	0.138
 6.205 	-0.249 	0.329
 6.477 	-0.115 	0.428
 7.138 	0.603 	0.209
 6.664 	0.916 	0.202
 6.286 	0.706 	0.214
 6.361 	0.691 	-0.121
 6.919 	1.144 	0.124
 7.235 	0.422 	-0.468
 6.991 	0.289 	-0.350
 6.211 	0.385 	-0.351
 5.920 	0.852 	0.507
 5.543 	0.365 	0.792
 5.341 	-0.119 	0.549
 4.306 	-0.401 	0.299
 4.349 	-0.395 	0.383
 4.427 	-0.608 	0.208
 4.247 	-1.032 	0.355
 5.285 	-0.689 	0.216
 5.839 	0.124 	0.051
 6.176 	0.426 	-0.028
 6.031 	0.411 	0.151
 6.560 	0.722 	0.603
 6.773 	0.758 	-0.096
 6.856 	0.524 	-0.573
 7.063 	-0.275 	-0.626
 6.308 	0.983 	-0.129
 5.903 	1.138 	1.260
 5.315 	0.049 	0.281
 5.066 	-0.400 	0.245
 5.095 	0.004 	0.134
 5.298 	-0.293 	-0.208
 5.185 	-0.431 	-0.076
 4.703 	-0.793 	0.028
 4.476 	-0.978 	0.881
 4.872 	-0.055 	1.178
 5.355 	0.402 	0.910
 5.821 	0.302 	0.606
 6.371 	-0.443 	0.200
 6.896 	-0.367 	-0.226
 7.127 	0.137 	-0.307
 6.544 	-0.501 	-0.492
 6.108 	0.497 	0.087
 6.602 	1.588 	0.586
 5.477 	0.189 	-0.106
 4.749 	0.350 	0.362
 5.441 	-0.080 	0.733
 6.148 	-0.393 	-0.039
 6.061 	-0.496 	-0.263
 5.256 	-0.566 	-0.161
 5.214 	-0.761 	0.186
 5.193 	-0.876 	0.325
 5.335 	-0.992 	0.343
 6.090 	-1.119 	0.218
 6.657 	-0.856 	-0.133
 6.867 	-0.857 	-0.589
 6.944 	-0.558 	-0.488
 6.679 	-0.242 	-0.241
 6.719 	0.487 	-0.016
 6.937 	0.739 	-0.231
 7.170 	0.073 	-0.181
 6.870 	0.476 	-0.009
 6.687 	0.394 	0.149
 6.436 	-0.017 	0.068
 6.019 	0.063 	-0.337
 5.446 	-0.185 	-0.257
 5.306 	-0.234 	0.388
 5.212 	-0.767 	0.165
 5.363 	-1.284 	0.181
 6.050 	-1.341 	0.334
 6.440 	-1.074 	-0.089
 6.439 	-0.450 	-0.345
 6.563 	-0.127 	-0.545
 6.629 	-0.208 	-0.312
 6.653 	0.557 	-0.129
 6.679 	0.673 	0.099
 6.089 	-0.078 	0.015
 5.898 	-0.224 	0.133
 6.054 	0.249 	0.077
 5.956 	0.275 	-0.027
 5.845 	0.288 	-0.302
 5.718 	0.298 	-0.207
 6.153 	0.273 	-0.035
 6.734 	-0.262 	-0.579
 6.734 	-0.514 	-0.538
 6.565 	-0.519 	-0.019
 6.569 	-0.577 	0.486
 6.238 	-0.339 	-0.002
 5.653 	0.139 	-0.115
 5.676 	-0.239 	-0.607
 5.724 	1.253 	0.677
 5.293 	1.146 	0.512
 5.388 	1.374 	0.321
 5.507 	1.003 	0.097
 5.482 	0.678 	-0.071
 5.628 	0.654 	-0.156
 5.769 	0.309 	-0.220
 6.041 	0.144 	0.002
 6.373 	0.456 	0.438
 6.315 	0.496 	0.353
 6.473 	0.693 	0.200
 6.474 	0.586 	-0.090
 6.244 	0.175 	-0.307
 6.585 	0.325 	-0.155
 6.711 	-0.141 	0.352
 6.375 	0.434 	-0.189
 5.538 	1.039 	0.007
 5.468 	0.909 	0.259
 5.262 	0.908 	0.380
 4.920 	0.553 	0.401
 4.714 	0.252 	0.747
 5.141 	0.033 	1.006
 5.527 	0.356 	1.185
 5.640 	-0.049 	0.477
 6.186 	0.118 	0.140
 6.282 	0.322 	0.118
 6.244 	0.187 	0.133
 6.484 	-0.139 	0.125
 6.530 	0.192 	-0.063
 6.434 	0.400 	-0.158
 6.375 	0.250 	0.489
 6.320 	0.289 	0.782
 5.235 	0.746 	0.392
 5.428 	0.799 	0.502
 5.622 	0.636 	0.385
 5.555 	0.680 	0.306
 5.584 	0.295 	-0.054
 5.999 	-0.603 	0.242
 6.079 	-0.483 	0.730
 6.338 	-0.258 	0.869
 6.617 	-0.141 	0.411
 6.522 	0.255 	-0.030
 5.943 	0.188 	0.070
 5.870 	-0.187 	0.094
 5.964 	-0.029 	0.208
 5.858 	0.756 	-0.139
 5.633 	0.285 	0.231
 6.004 	0.061 	0.734
 6.655 	0.762 	0.228
 6.145 	0.793 	0.009
 6.227 	0.696 	-0.050
 6.345 	0.605 	-0.167
 6.610 	-0.208 	-0.127
 6.690 	-0.644 	0.078
 6.800 	-0.224 	0.102
 6.585 	-0.088 	0.500
 6.138 	0.217 	0.548
 5.419 	0.625 	0.408
 5.715 	0.278 	-0.054
 5.713 	-0.439 	-0.263
 5.917 	-0.955 	0.208
 6.572 	-0.386 	0.000
 6.498 	-0.036 	-0.290
 6.362 	-0.062 	-0.218
 7.050 	0.495 	-0.329
 7.178 	0.887 	-0.255
 6.895 	1.056 	-0.170
 7.079 	0.392 	-0.034
 7.413 	-0.146 	0.136
 6.819 	-0.559 	0.047
 6.324 	-0.576 	0.387
 6.501 	-0.105 	0.362
 6.263 	0.658 	0.435
 6.794 	0.565 	-0.060
 6.777 	0.026 	-0.539
 6.551 	-0.464 	-0.411
 6.728 	-1.529 	0.326
 6.988 	-1.175 	0.607
 7.239 	-0.445 	0.171
 7.160 	-0.829 	-0.115
 6.473 	0.334 	-0.204
 6.767 	0.508 	-0.309
 7.055 	0.432 	-0.283
 7.398 	0.135 	-0.240
 7.637 	0.148 	-0.034
 7.644 	-0.497 	0.057
 7.165 	-0.416 	0.018
 6.673 	-0.131 	-0.092
 6.951 	0.185 	-0.089
 7.272 	0.287 	-0.239
 7.378 	0.029 	-0.328
 7.503 	-0.635 	-0.251
 7.474 	-1.383 	-0.002
 7.267 	-1.155 	0.746
 7.137 	-0.292 	0.079
 6.498 	-0.885 	-0.178
 6.598 	-0.463 	-0.129
 6.778 	-0.412 	-0.293
 6.997 	-0.179 	-0.184
 7.285 	0.040 	0.128
 7.548 	0.087 	0.036
 7.348 	-0.393 	-0.229
 7.263 	-0.222 	-0.429
 7.308 	-0.413 	-0.528
 7.389 	-0.103 	-0.492
 7.388 	0.179 	-0.262
 7.083 	-0.231 	-0.137
 6.753 	-0.907 	0.092
 5.693 	-0.585 	1.496
 5.784 	-0.460 	1.326
 6.612 	-0.511 	-0.144
 6.082 	-0.398 	-0.167
 6.734 	-0.784 	0.141
 6.512 	-1.070 	-0.118
 6.605 	-0.642 	-0.303
 6.968 	-0.239 	-0.346
 7.079 	-0.243 	-0.432
 7.000 	-0.780 	-0.464
 7.292 	-0.723 	-0.659
 7.153 	-0.571 	-0.880
 6.762 	0.032 	-0.216
 6.625 	0.508 	0.018
 6.074 	-0.068 	0.740
 4.518 	-0.620 	0.936
 4.323 	-0.928 	1.349
 5.198 	-0.612 	0.408
 4.826 	-0.074 	0.059
 4.461 	0.054 	0.314
 7.040 	-0.455 	-0.355
 6.936 	-0.499 	0.149
 6.920 	-0.558 	0.204
 7.148 	-0.576 	-0.231
 7.237 	-0.553 	-0.478
 6.994 	-0.876 	-0.550
 6.540 	-0.866 	-0.453
 6.315 	-0.343 	-0.229
 6.575 	0.449 	0.094
 6.446 	-0.174 	0.130
 6.243 	-0.073 	0.400
 5.518 	0.292 	0.575
 5.951 	-0.672 	0.276
 5.928 	-0.594 	1.608
 6.077 	-0.054 	0.239
 5.996 	0.009 	-0.321
 7.131 	-0.378 	-0.334
 7.420 	-0.334 	-0.542
 7.599 	-0.265 	-0.491
 7.316 	-0.315 	-0.288
 6.741 	-0.256 	-0.190
 6.531 	-0.562 	-0.327
 6.500 	-0.923 	-0.109
 6.652 	-0.641 	-0.039
 6.737 	-0.444 	-0.038
 6.740 	-0.463 	0.242
 6.931 	-0.489 	0.200
 6.919 	-0.284 	0.105
 6.211 	-0.094 	0.069
 6.653 	0.103 	0.661
 6.941 	-0.288 	0.414
 7.583 	-0.584 	-0.086
 6.251 	-0.644 	-0.258
 6.064 	-0.430 	-0.140
 6.060 	0.056 	0.200
 6.035 	-0.081 	0.273
 6.162 	-0.118 	0.155
 6.376 	-0.396 	-0.041
 6.759 	-0.539 	-0.096
 6.888 	-0.541 	0.076
 6.905 	-0.515 	0.136
 6.860 	-0.414 	0.050
 6.786 	-0.322 	0.291
 6.598 	-0.521 	0.014
 6.590 	-0.564 	-0.011
 6.785 	-0.103 	-0.041
 7.186 	-0.260 	-0.253
 7.639 	-0.581 	-0.567
 6.284 	-0.525 	-0.254
 5.370 	0.195 	0.462
 5.225 	0.201 	0.854
 5.560 	-0.033 	0.736
 6.197 	-0.065 	0.069
 6.477 	-0.370 	0.036
 6.064 	-0.482 	0.191
 5.811 	-0.459 	0.246
 6.009 	-0.826 	0.355
 6.095 	-0.509 	0.292
 6.128 	-0.301 	0.762
 6.297 	-0.300 	0.989
 6.691 	-0.787 	0.682
 6.877 	-1.142 	0.117
 7.083 	-0.966 	0.014
 7.389 	-0.780 	-0.490
 5.324 	0.103 	0.130
 5.295 	0.404 	0.704
 6.065 	0.118 	0.168
 6.602 	-0.192 	-0.014
 6.951 	-0.205 	-0.069
 6.873 	0.106 	0.072
 6.300 	0.212 	0.253
 6.552 	-0.090 	0.097
 5.536 	-0.490 	0.625
 5.189 	-0.497 	1.066
 5.519 	-0.713 	1.001
 6.385 	-0.661 	0.746
 7.049 	-1.013 	0.334
 7.328 	-1.276 	0.057
 7.138 	-1.210 	0.052
 7.030 	-1.027 	-0.260
 5.805 	0.019 	0.164
 6.352 	0.242 	0.148
 6.838 	0.048 	-0.244
 6.836 	-0.171 	0.014
 6.990 	-0.407 	-0.039
 7.258 	-0.266 	-0.122
 7.555 	0.259 	-0.017
 7.566 	0.371 	-0.084
 7.439 	-0.223 	-0.086
 7.524 	-0.419 	0.024
 7.682 	-0.420 	-0.152
 7.763 	-0.676 	-0.194
 7.715 	-0.963 	-0.251
 7.736 	-0.995 	-0.437
 7.471 	-1.107 	-0.219
 7.014 	-1.137 	-0.133
 6.616 	0.317 	-0.227
 6.749 	0.317 	-0.212
 6.599 	-0.150 	0.099
 6.239 	-0.380 	0.300
 6.176 	-0.386 	0.239
 6.354 	-0.507 	-0.303
 6.608 	-0.240 	-0.506
 7.106 	-0.082 	-0.428
 7.431 	-0.123 	-0.136
 7.699 	-0.235 	-0.330
 7.653 	-0.612 	-0.449
 7.568 	-0.997 	-0.329
 7.739 	-1.163 	-0.405
 7.871 	-1.028 	-0.592
 7.659 	-0.575 	-0.594
 7.596 	-0.362 	-0.442
 6.523 	0.201 	-0.234
 6.231 	0.131 	0.045
 6.061 	-0.190 	0.691
 6.044 	-0.385 	0.492
 6.146 	-0.195 	0.333
 6.342 	-0.343 	-0.174
 6.539 	-0.344 	-0.506
 6.929 	-0.069 	-0.675
 7.381 	0.023 	-0.737
 7.487 	-0.033 	-0.740
 7.646 	-0.045 	-0.694
 7.610 	-0.321 	-0.698
 7.566 	-0.534 	-0.072
 7.454 	-0.586 	0.079
 7.604 	-0.246 	-0.367
 7.679 	-0.370 	-0.546
 5.701 	1.642 	0.947
 5.350 	1.768 	0.889
 5.502 	1.467 	0.748
 5.813 	1.098 	0.280
 5.562 	0.802 	0.331
 5.693 	0.537 	0.506
 5.956 	0.294 	0.406
 6.277 	0.240 	0.347
 6.606 	-0.009 	0.331
 6.845 	0.310 	0.427
 6.936 	0.463 	0.353
 6.941 	-0.031 	-0.194
 6.990 	-0.200 	-0.368
 6.845 	-0.228 	-0.369
 6.790 	0.083 	-0.088
 7.033 	0.249 	0.079
 5.231 	0.694 	0.598
 5.689 	0.975 	0.609
 5.718 	1.229 	0.471
 5.386 	0.947 	0.708
 5.385 	0.613 	0.612
 5.505 	0.203 	0.634
 5.806 	-0.340 	0.658
 6.366 	-0.442 	0.458
 6.674 	-0.090 	0.175
 6.503 	0.094 	0.278
 6.576 	0.381 	0.510
 6.636 	-0.079 	0.634
 6.780 	-0.528 	0.325
 6.546 	-0.130 	-0.136
 6.159 	0.278 	0.260
 6.337 	0.313 	0.431
 5.853 	0.513 	0.308
 5.505 	0.831 	0.602
 5.463 	1.112 	0.751
 5.544 	1.097 	0.266
 5.597 	0.840 	0.075
 5.666 	0.411 	0.147
 6.201 	-0.324 	0.423
 6.640 	-0.828 	0.565
 6.590 	-0.291 	0.683
 6.803 	0.324 	0.193
 6.729 	0.382 	0.312
 6.643 	-0.256 	0.179
 6.624 	-0.569 	0.356
 6.536 	-0.450 	0.016
 6.544 	0.312 	0.179
 6.524 	0.450 	0.378
 6.283 	0.731 	0.136
 6.084 	0.970 	0.038
 5.918 	1.186 	-0.186
 5.941 	1.173 	-0.356
 6.079 	0.538 	-0.104
 6.574 	-0.202 	0.145
 6.974 	-0.696 	0.178
 6.882 	-0.673 	0.163
 6.318 	0.003 	0.830
 6.471 	0.062 	0.343
 6.795 	0.031 	-0.126
 6.574 	-0.096 	0.020
 6.348 	-0.440 	0.476
 6.502 	-0.560 	0.695
 6.490 	-0.226 	0.428
 6.720 	-0.020 	0.261
 7.061 	0.977 	-0.200
 6.625 	1.079 	0.012
 6.604 	1.215 	-0.025
 6.582 	0.826 	0.025
 6.657 	0.055 	-0.018
 6.629 	-0.332 	0.227
 6.646 	-0.650 	0.418
 6.635 	-0.830 	0.421
 6.821 	-0.328 	0.567
 7.229 	-0.425 	0.370
 7.006 	-0.268 	-0.093
 6.681 	-0.054 	-0.037
 6.544 	-0.486 	0.493
 6.997 	-0.727 	0.785
 7.237 	-0.335 	0.485
 7.120 	-0.283 	0.373
 6.656 	0.949 	0.102
 6.645 	1.103 	0.003
 6.773 	1.072 	0.029
 7.016 	0.489 	-0.282
 7.005 	0.116 	-0.239
 7.013 	-0.231 	0.043
 7.066 	-0.523 	-0.015
 7.094 	-0.715 	-0.222
 7.166 	-0.789 	-0.121
 7.542 	-0.379 	-0.114
 7.300 	-0.203 	-0.195
 7.262 	-0.157 	-0.225
 7.468 	-0.607 	-0.259
 7.631 	-0.706 	-0.026
 7.801 	-0.467 	-0.194
 7.840 	-0.542 	-0.082
 6.489 	1.032 	0.136
 6.659 	1.084 	0.037
 7.001 	0.836 	0.001
 7.373 	0.528 	0.061
 7.291 	0.290 	0.023
 7.364 	-0.028 	-0.347
 7.296 	-0.202 	-0.601
 7.308 	-0.607 	-0.437
 7.283 	-0.616 	-0.277
 6.998 	-0.607 	-0.112
 6.964 	-0.487 	0.168
 7.327 	-0.716 	0.394
 7.301 	-0.693 	0.901
 7.630 	-0.637 	0.693
 7.781 	-0.334 	0.013
 7.811 	-0.215 	-0.285
 6.687 	0.826 	-0.025
 6.798 	0.359 	-0.067
 7.051 	0.026 	-0.040
 7.269 	-0.005 	0.037
 7.449 	0.112 	0.067
 7.423 	-0.081 	-0.045
 7.305 	-0.340 	-0.285
 7.037 	-0.463 	-0.201
 6.668 	-0.678 	-0.083
 6.246 	-0.918 	0.016
 6.105 	-0.239 	0.856
 6.267 	-0.451 	1.127
 6.667 	-0.827 	0.999
 6.434 	-1.006 	0.628
 6.341 	-0.427 	0.470
 6.937 	-0.240 	-0.043
 6.940 	0.240 	-0.135
 7.120 	0.073 	-0.208
 7.540 	-0.255 	-0.271
 7.611 	-0.507 	-0.281
 7.536 	-0.477 	-0.114
 7.478 	-0.402 	-0.053
 7.282 	-0.318 	-0.263
 7.361 	-0.665 	0.071
 6.894 	-0.920 	0.361
 6.631 	-0.841 	0.686
 6.642 	-0.527 	0.872
 6.783 	-0.358 	0.752
 7.101 	-0.559 	0.287
 7.202 	-0.769 	0.686
 7.382 	-0.579 	0.706
 7.407 	-0.787 	0.154
 7.326 	-0.374 	-0.136
 7.569 	-0.512 	-0.256
 7.559 	-0.545 	-0.425
 7.402 	-0.554 	-0.436
 7.330 	-0.471 	-0.286
 7.561 	-0.261 	-0.380
 7.730 	-0.110 	-0.498
 7.875 	-0.507 	-0.014
 7.663 	-0.690 	0.309
 7.356 	-0.705 	0.446
 7.050 	-0.792 	0.577
 7.164 	-0.820 	0.527
 7.279 	-1.027 	0.208
 7.486 	-0.915 	0.236
 7.860 	-0.790 	0.233
 7.886 	-0.748 	0.155
 7.404 	-0.817 	-0.042
 7.221 	-0.559 	0.098
 6.728 	-0.579 	0.184
 6.758 	-0.515 	0.089
 6.997 	-0.458 	-0.119
 7.160 	-0.407 	-0.058
 7.370 	-0.287 	0.022
 7.693 	-0.293 	0.068
 7.912 	-0.387 	0.134
 7.748 	-0.522 	0.289
 7.274 	-0.754 	0.316
 7.165 	-0.961 	0.275
 7.193 	-1.263 	0.210
 7.177 	-1.481 	0.081
 7.852 	-1.203 	-0.531
 8.123 	-0.906 	-0.667
 6.969 	-0.597 	0.124
 6.487 	-0.579 	0.467
 6.505 	-0.435 	0.557
 6.892 	-0.720 	0.296
 7.134 	-0.662 	0.050
 7.321 	-0.320 	-0.140
 7.358 	-0.306 	-0.120
 7.232 	-0.216 	0.438
 6.835 	-0.346 	0.517
 6.708 	-0.729 	0.585
 6.846 	-0.868 	0.557
 7.056 	-1.074 	0.397
 7.056 	-1.205 	0.345
 7.082 	-1.417 	0.262
 7.290 	-1.416 	-0.109
 7.918 	-0.981 	-0.912
 6.576 	-0.369 	0.274
 6.680 	-0.464 	0.333
 6.909 	-0.735 	0.302
 6.884 	-0.960 	0.099
 6.856 	-0.986 	0.033
 6.961 	-0.702 	-0.006
 7.167 	-0.306 	0.014
 7.427 	0.017 	0.116
 7.400 	-0.058 	0.425
 7.236 	-0.383 	0.635
 7.312 	-0.623 	0.514
 7.452 	-0.737 	0.283
 7.605 	-0.787 	-0.077
 7.561 	-1.024 	0.097
 7.408 	-1.286 	0.090
 7.407 	-1.089 	-0.198
 6.597 	-0.281 	0.198
 6.670 	-0.595 	0.097
 6.411 	-0.960 	-0.041
 6.173 	-1.139 	0.043
 6.400 	-0.974 	-0.151
 6.540 	-0.750 	-0.148
 6.779 	-0.583 	0.067
 7.181 	-0.311 	0.181
 7.726 	-0.187 	0.117
 8.061 	-0.320 	-0.257
 7.959 	-0.493 	-0.625
 7.920 	-0.527 	-0.583
 7.933 	-0.584 	-0.362
 7.675 	-0.712 	-0.322
 7.560 	-0.895 	-0.443
 7.611 	-0.991 	-0.508
 6.413 	-0.485 	-0.064
 6.450 	-0.798 	-0.129
 6.229 	-0.836 	0.189
 6.213 	-1.161 	0.206
 6.356 	-1.227 	0.048
 6.656 	-1.211 	-0.309
 7.087 	-1.037 	-0.622
 7.491 	-0.426 	-0.599
 7.784 	-0.038 	-0.603
 7.950 	0.204 	-0.685
 7.998 	0.234 	-0.783
 7.875 	0.039 	-0.905
 7.788 	-0.192 	-0.904
 7.835 	-0.561 	-0.781
 7.781 	-0.762 	-0.597
 7.690 	-0.884 	-0.655
 6.305 	-0.885 	0.137
 5.991 	-0.715 	0.583
 6.042 	-0.651 	0.807
 6.379 	-1.041 	0.557
 6.563 	-1.369 	-0.027
 6.735 	-1.226 	-0.389
 6.807 	-1.200 	-0.451
 7.075 	-1.165 	-0.805
 7.660 	-0.236 	-0.959
 8.055 	0.232 	-1.102
 8.013 	0.192 	-1.299
 7.908 	0.091 	-1.020
 8.200 	-0.215 	-0.321
 8.060 	-0.588 	-0.336
 7.941 	-0.916 	-0.536
 7.898 	-0.713 	-0.500
 5.303 	0.937 	1.197
 5.709 	1.119 	0.774
 6.331 	1.205 	0.383
 6.598 	1.210 	0.232
 6.496 	1.000 	0.274
 6.202 	0.777 	0.246
 6.127 	0.662 	0.179
 6.286 	0.597 	0.303
 6.533 	0.413 	0.357
 6.776 	0.303 	0.449
 6.873 	0.167 	0.302
 6.860 	-0.076 	0.050
 6.965 	-0.273 	-0.097
 7.065 	-0.303 	-0.299
 7.087 	-0.319 	-0.213
 7.265 	0.020 	0.014
 5.476 	0.802 	0.809
 5.830 	1.003 	0.902
 5.876 	1.056 	0.755
 5.559 	1.285 	0.713
 5.549 	1.379 	0.559
 5.709 	1.096 	0.490
 5.830 	0.788 	0.291
 6.265 	0.536 	0.167
 6.610 	0.139 	0.220
 6.778 	0.099 	0.384
 6.963 	-0.073 	0.386
 7.069 	-0.216 	0.465
 7.024 	-0.416 	0.397
 7.110 	-0.456 	0.395
 7.047 	-0.155 	0.142
 6.990 	0.083 	0.203
 6.364 	0.559 	0.276
 6.137 	0.764 	0.441
 5.895 	1.260 	0.585
 5.717 	1.492 	0.392
 5.816 	1.363 	0.156
 5.818 	0.969 	0.165
 6.028 	0.773 	0.334
 6.466 	-0.015 	0.794
 6.814 	-0.626 	0.869
 7.127 	-0.354 	0.561
 7.194 	-0.089 	0.360
 7.223 	-0.026 	0.248
 7.265 	-0.247 	0.208
 7.084 	-0.476 	0.261
 7.202 	-0.199 	0.444
 7.190 	-0.237 	0.270
 6.769 	0.718 	0.277
 6.521 	0.800 	0.253
 6.251 	1.162 	0.147
 6.152 	1.210 	-0.011
 6.074 	1.042 	0.072
 6.308 	0.698 	0.172
 6.555 	0.434 	0.179
 6.814 	-0.175 	0.116
 7.160 	-0.582 	0.429
 7.358 	-0.517 	0.378
 7.322 	-0.364 	0.204
 6.988 	-0.315 	0.278
 6.850 	-0.325 	0.374
 6.671 	-0.347 	0.350
 6.542 	-0.185 	0.448
 6.596 	-0.242 	0.557
 7.102 	1.021 	0.060
 7.032 	1.084 	0.111
 6.853 	1.064 	0.164
 6.778 	0.992 	0.224
 6.683 	0.803 	0.107
 6.764 	0.475 	0.041