# vtk DataFile Version 3.0
HighT1
ASCII
DATASET STRUCTURED_POINTS
DIMENSIONS 16 16 19
ORIGIN 929.001000000000 929.001000000000 5.001000000000
SPACING 10.000000000000 10.000000000000 10.000000000000
POINT_DATA 4864
 FIELD attributes 1
U 3 4864 float
4.248 	0.725 	0.062
 4.584 	0.936 	-0.390
 5.044 	1.727 	0.028
 4.721 	0.695 	-0.426
 3.473 	0.786 	0.134
 2.910 	0.196 	0.868
 3.001 	-0.241 	0.218
 2.831 	-0.431 	0.446
 4.037 	-0.838 	0.098
 4.710 	-1.632 	-0.014
 4.660 	-1.259 	0.116
 5.086 	-1.303 	-0.542
 4.857 	-0.073 	0.134
 4.032 	-0.112 	0.584
 3.235 	-0.562 	0.291
 3.434 	-0.100 	-0.212
 3.998 	1.471 	-0.259
 4.702 	0.931 	0.143
 4.704 	2.078 	-0.027
 4.362 	1.287 	0.119
 4.108 	0.847 	-0.491
 4.936 	0.792 	-0.172
 4.727 	-0.701 	0.081
 4.759 	-0.883 	-0.114
 4.698 	-0.754 	0.107
 4.979 	-1.176 	0.036
 5.221 	-1.344 	0.100
 5.405 	-1.047 	-0.643
 4.757 	-0.526 	0.169
 4.976 	0.115 	0.062
 4.364 	-0.083 	-0.109
 3.252 	0.674 	0.116
 3.034 	0.760 	0.065
 2.933 	0.138 	-0.037
 3.151 	0.745 	0.131
 3.793 	0.927 	0.358
 3.855 	-0.521 	-0.079
 4.614 	-1.111 	-0.126
 5.132 	-1.156 	-0.346
 4.669 	-0.654 	-0.233
 4.772 	-0.696 	-0.194
 5.188 	-1.264 	-0.459
 5.671 	-0.926 	-0.619
 5.759 	-0.151 	-0.027
 4.357 	-0.062 	0.086
 3.554 	0.032 	0.273
 2.016 	-0.085 	0.416
 2.741 	0.678 	0.015
 3.087 	-0.692 	0.457
 3.483 	-0.368 	0.359
 3.613 	-1.089 	0.660
 3.438 	-1.753 	0.581
 3.123 	-1.520 	-0.019
 3.385 	-0.695 	-0.093
 3.867 	-0.364 	-0.014
 3.984 	-0.772 	-0.091
 4.545 	-0.660 	-0.881
 4.514 	-0.121 	-0.079
 4.903 	0.054 	-0.301
 4.969 	0.157 	0.000
 4.323 	0.450 	-0.081
 4.366 	0.834 	-0.155
 3.165 	0.082 	0.156
 3.446 	0.357 	-0.213
 3.982 	-0.669 	-0.064
 4.773 	-0.455 	-0.676
 5.115 	-0.238 	-0.654
 4.147 	-0.065 	-0.116
 3.471 	-0.727 	0.055
 3.512 	-0.845 	0.153
 3.957 	-0.540 	-0.015
 4.617 	-0.505 	-0.396
 3.973 	0.283 	-0.035
 4.077 	0.504 	-0.325
 4.094 	0.225 	0.284
 4.921 	0.780 	-0.084
 5.371 	1.464 	-0.163
 4.831 	0.736 	0.009
 4.399 	0.239 	-0.188
 4.568 	0.305 	-0.518
 3.154 	0.345 	0.230
 2.631 	-0.211 	0.148
 3.052 	-0.411 	0.331
 3.794 	-0.622 	0.320
 4.671 	-0.765 	-0.220
 3.778 	-1.015 	0.156
 3.452 	-0.792 	0.241
 3.202 	-0.122 	0.140
 3.362 	0.745 	0.149
 3.521 	0.839 	-0.087
 3.488 	0.315 	0.035
 3.123 	0.137 	0.272
 3.091 	0.415 	0.399
 3.336 	0.380 	0.587
 3.570 	0.124 	0.233
 4.096 	0.448 	-0.057
 4.165 	0.010 	0.280
 4.209 	-0.794 	0.084
 4.192 	-1.032 	-0.277
 5.025 	-0.604 	-0.590
 4.513 	-0.487 	-0.146
 3.476 	0.332 	-0.412
 2.314 	0.578 	0.024
 2.260 	-0.145 	0.273
 2.368 	-0.283 	0.362
 2.676 	-0.162 	0.487
 3.373 	-0.230 	0.254
 3.587 	-0.690 	0.074
 3.895 	-0.540 	-0.098
 4.223 	-0.793 	0.080
 4.175 	-0.536 	0.096
 4.023 	-0.106 	0.293
 3.354 	-0.394 	0.155
 3.322 	-1.072 	-0.019
 3.664 	-0.695 	-0.446
 3.915 	-0.140 	-0.005
 4.044 	0.702 	0.135
 4.117 	0.901 	-0.182
 4.378 	0.604 	-0.498
 4.262 	0.487 	-0.236
 4.172 	0.301 	-0.122
 4.328 	0.150 	-0.335
 4.183 	-0.126 	-0.216
 4.353 	0.208 	-0.400
 4.243 	-0.220 	-0.316
 4.238 	-0.331 	0.035
 4.530 	-0.637 	-0.129
 4.431 	-0.704 	0.185
 4.898 	-0.826 	0.039
 4.948 	-0.376 	-0.238
 4.542 	-0.144 	-0.074
 3.359 	0.243 	0.347
 3.218 	0.389 	0.034
 3.586 	0.430 	0.067
 3.858 	0.337 	0.228
 3.882 	0.331 	0.039
 3.931 	0.109 	-0.192
 4.445 	-0.062 	-0.262
 4.434 	0.200 	0.329
 4.482 	0.515 	0.165
 4.391 	0.543 	-0.035
 4.472 	-0.108 	0.018
 4.606 	-0.665 	-0.064
 5.076 	-0.151 	-0.247
 4.395 	0.086 	-0.413
 4.348 	-0.225 	0.053
 4.424 	0.106 	0.248
 4.071 	0.746 	0.050
 3.148 	0.447 	0.014
 2.865 	0.264 	0.051
 3.649 	0.152 	-0.110
 3.949 	0.273 	-0.258
 4.483 	0.131 	-0.207
 4.044 	-0.077 	-0.131
 4.222 	0.655 	0.008
 3.785 	0.342 	0.266
 3.869 	0.111 	-0.268
 4.014 	0.026 	0.153
 4.180 	-0.622 	0.013
 4.464 	-0.114 	0.014
 4.001 	0.034 	0.385
 3.973 	-1.027 	0.147
 3.656 	0.016 	-0.284
 4.082 	0.829 	-0.133
 4.131 	0.712 	-0.102
 4.339 	0.628 	-0.274
 4.479 	0.664 	-0.047
 3.556 	0.361 	-0.052
 3.825 	0.402 	-0.218
 4.353 	0.311 	-0.564
 4.835 	-0.072 	-0.324
 5.209 	0.072 	0.217
 5.307 	-0.264 	-0.113
 4.410 	-0.214 	-0.133
 5.014 	0.300 	-0.297
 3.794 	-0.330 	0.334
 4.144 	-1.033 	0.081
 3.762 	-0.635 	0.157
 3.602 	-0.575 	0.286
 4.041 	0.525 	-0.062
 3.932 	0.933 	0.315
 4.306 	0.760 	-0.045
 4.388 	0.844 	-0.169
 4.578 	0.920 	-0.023
 4.605 	0.698 	-0.512
 4.644 	0.536 	-0.264
 5.480 	0.690 	-0.110
 4.650 	0.009 	0.340
 4.819 	0.476 	-0.397
 4.621 	0.961 	0.059
 4.443 	0.560 	0.311
 4.336 	-0.101 	0.371
 4.581 	-0.932 	0.103
 4.352 	-1.029 	0.269
 4.094 	-0.143 	-0.059
 3.392 	0.370 	0.139
 3.684 	-0.307 	0.167
 4.239 	-0.135 	-0.043
 4.195 	0.283 	-0.037
 4.573 	1.025 	0.119
 4.342 	0.846 	-0.128
 4.511 	0.960 	0.137
 4.370 	1.011 	-0.257
 4.065 	-0.148 	-0.154
 3.756 	-0.246 	0.329
 4.214 	-0.278 	0.496
 4.349 	0.379 	0.450
 4.293 	0.418 	-0.255
 4.744 	-0.385 	-0.234
 4.405 	-0.419 	-0.079
 4.280 	-0.099 	-0.002
 4.762 	0.151 	-0.168
 4.563 	0.206 	-0.232
 4.409 	-0.284 	-0.052
 4.252 	-0.078 	-0.020
 4.205 	0.585 	-0.054
 4.035 	0.971 	-0.071
 4.190 	0.292 	-0.132
 4.402 	0.136 	-0.207
 5.014 	-0.290 	0.051
 5.420 	0.297 	-0.484
 4.776 	-0.434 	0.364
 3.908 	0.665 	0.261
 3.315 	0.447 	0.030
 3.935 	-0.540 	-0.344
 4.311 	0.066 	-0.074
 4.331 	0.308 	-0.282
 4.225 	0.147 	-0.224
 4.445 	0.156 	0.259
 4.120 	0.042 	0.319
 3.763 	0.294 	-0.066
 3.366 	0.562 	-0.066
 3.381 	0.050 	0.313
 3.861 	-0.041 	0.272
 4.021 	-0.391 	-0.016
 4.807 	-0.123 	-0.258
 4.743 	-0.435 	-0.640
 5.446 	0.611 	0.082
 4.829 	0.973 	0.003
 4.715 	0.671 	-0.299
 2.860 	0.206 	0.174
 2.194 	-0.357 	0.384
 2.476 	0.485 	0.208
 3.175 	0.379 	0.395
 3.000 	0.303 	0.082
 2.463 	0.057 	0.286
 1.785 	0.192 	0.103
 1.959 	0.013 	0.393
 2.364 	-0.785 	0.283
 3.153 	-1.151 	-0.199
 3.894 	-1.116 	0.089
 4.078 	-0.203 	0.045
 4.387 	0.251 	0.122
 4.507 	0.721 	0.191
 4.216 	0.736 	-0.159
 4.444 	0.572 	0.262
 4.529 	-0.339 	-0.298
 4.592 	0.137 	-0.874
 5.486 	0.064 	-0.611
 5.337 	0.957 	-0.209
 5.752 	1.647 	-0.571
 4.365 	1.181 	0.432
 4.228 	0.098 	0.500
 4.500 	-0.179 	0.289
 4.310 	-0.051 	0.061
 4.626 	-0.706 	0.685
 5.116 	-0.909 	-0.538
 5.103 	-1.222 	0.557
 4.288 	-0.032 	0.475
 4.296 	0.165 	0.461
 4.792 	0.581 	-0.553
 5.867 	-0.161 	-1.100
 3.642 	0.485 	-0.157
 3.699 	0.312 	-0.256
 3.869 	-0.658 	0.348
 4.201 	0.049 	0.401
 4.480 	0.962 	0.254
 5.415 	0.956 	1.118
 5.520 	0.164 	0.544
 5.248 	-0.219 	0.474
 4.643 	-0.225 	0.363
 5.376 	-0.955 	-0.146
 5.531 	-0.767 	-0.222
 5.472 	-1.239 	0.142
 5.623 	-1.039 	0.101
 4.857 	0.173 	0.653
 4.643 	0.695 	0.250
 4.486 	-0.155 	-0.244
 3.878 	-0.313 	1.251
 4.356 	-0.581 	1.292
 4.897 	-0.561 	0.995
 5.034 	-0.699 	1.044
 4.682 	0.011 	1.164
 5.824 	-0.703 	0.579
 6.108 	-0.337 	0.762
 4.944 	0.499 	-0.150
 4.910 	-0.815 	-0.353
 5.590 	-1.220 	-0.440
 6.075 	-0.970 	-0.730
 5.298 	-1.120 	-0.138
 4.731 	0.464 	0.688
 4.126 	-0.155 	1.186
 4.192 	0.752 	0.536
 4.548 	-0.013 	-0.618
 5.742 	0.016 	-0.423
 5.605 	-0.406 	-0.799
 5.585 	-0.610 	0.660
 6.123 	-0.388 	0.052
 6.326 	-0.313 	-0.264
 5.866 	-1.095 	-0.212
 4.785 	-0.646 	-0.069
 5.218 	0.517 	-0.942
 6.043 	-0.867 	-0.715
 5.945 	-1.010 	-0.387
 5.825 	-0.717 	-1.066
 6.688 	-0.546 	-0.300
 6.673 	0.459 	-1.132
 7.058 	0.906 	0.394
 5.684 	0.423 	0.634
 5.145 	0.516 	-0.961
 5.570 	0.233 	-0.219
 5.719 	0.183 	-0.664
 5.680 	-0.305 	-1.620
 6.011 	0.092 	-0.738
 5.601 	-0.200 	0.140
 5.028 	-0.525 	-0.061
 5.646 	-0.687 	-0.309
 6.275 	-0.199 	-0.888
 5.807 	-0.793 	-0.012
 5.057 	-1.799 	-0.925
 5.180 	-1.230 	-0.594
 5.587 	-0.775 	-1.431
 5.309 	0.262 	0.680
 4.974 	0.616 	0.938
 5.476 	0.445 	0.317
 5.748 	0.003 	-0.280
 4.628 	-0.253 	0.374
 5.071 	-0.248 	0.218
 4.962 	0.468 	0.451
 5.427 	0.769 	0.022
 6.033 	0.122 	-0.234
 6.026 	0.340 	-0.365
 5.443 	-1.007 	0.665
 5.835 	-0.838 	-0.296
 6.068 	-0.159 	-0.258
 5.858 	-0.318 	-0.615
 5.904 	-0.102 	-0.689
 4.598 	0.236 	0.808
 4.475 	0.475 	0.939
 4.757 	-0.372 	0.367
 5.667 	-0.366 	-0.488
 5.954 	-0.317 	-0.724
 5.182 	0.242 	0.117
 5.136 	0.182 	0.816
 5.456 	0.185 	-0.232
 5.236 	-0.349 	-0.762
 5.702 	-0.252 	-0.538
 5.852 	-0.022 	-0.510
 5.712 	0.326 	0.195
 5.082 	-0.132 	0.342
 6.016 	-0.154 	-0.649
 5.138 	-0.048 	-0.178
 5.356 	0.622 	-1.206
 5.706 	1.056 	-0.410
 5.470 	0.260 	-0.361
 5.510 	0.239 	-0.204
 5.436 	-0.091 	0.137
 5.280 	0.016 	-0.013
 5.229 	0.211 	-0.413
 5.714 	0.475 	-0.492
 5.308 	-0.301 	-0.664
 5.136 	-0.668 	-0.444
 5.227 	-0.645 	0.236
 5.653 	-0.468 	-0.504
 5.801 	0.193 	0.465
 5.611 	0.083 	-0.285
 5.513 	0.224 	0.132
 6.020 	0.413 	-0.386
 5.488 	1.045 	-0.357
 5.179 	0.820 	-0.381
 5.359 	0.516 	-0.198
 4.822 	-0.138 	0.012
 4.259 	0.025 	-0.049
 4.470 	0.298 	0.091
 5.086 	0.458 	-0.261
 5.261 	0.404 	-0.156
 5.495 	-0.091 	-0.192
 5.412 	-0.139 	-0.237
 5.494 	0.037 	-0.106
 5.344 	0.031 	0.070
 5.115 	-0.292 	0.173
 5.284 	0.364 	-0.343
 4.683 	0.303 	0.047
 4.342 	0.224 	0.237
 4.625 	0.128 	0.160
 5.270 	0.172 	-0.138
 5.501 	-0.006 	-0.078
 5.382 	0.274 	-0.059
 5.187 	0.051 	-0.192
 5.389 	-0.080 	-0.501
 4.917 	0.539 	-0.201
 5.537 	0.369 	-0.180
 5.126 	0.215 	-0.124
 5.014 	0.354 	0.064
 4.871 	0.255 	-0.087
 5.371 	0.198 	-0.009
 4.905 	0.248 	-0.026
 4.745 	0.732 	-0.086
 4.730 	-0.384 	-0.159
 4.780 	-0.087 	-0.240
 4.654 	-0.091 	0.453
 4.401 	-0.098 	0.613
 4.622 	-0.026 	0.316
 5.019 	0.309 	0.062
 5.373 	0.038 	-0.096
 5.608 	0.072 	-0.355
 3.609 	0.587 	0.450
 3.884 	0.304 	0.632
 4.060 	0.834 	0.247
 3.868 	0.173 	0.365
 4.275 	-0.475 	0.124
 5.040 	-0.280 	-0.042
 5.168 	0.763 	-0.151
 4.738 	0.244 	-0.498
 4.963 	-0.037 	-0.830
 4.658 	-0.000 	-0.271
 5.067 	-0.374 	-0.179
 5.155 	0.147 	0.202
 5.434 	-0.142 	0.016
 5.484 	0.197 	-0.158
 5.128 	-0.049 	-0.294
 5.622 	-0.292 	0.041
 4.835 	0.627 	-0.624
 4.051 	-0.210 	0.309
 4.373 	-0.165 	0.353
 4.524 	-0.276 	1.069
 4.728 	-0.715 	-0.133
 4.472 	-0.756 	0.058
 4.535 	-0.114 	0.263
 4.380 	-0.028 	0.238
 4.367 	-0.757 	0.006
 4.896 	-0.366 	-0.421
 4.643 	-0.040 	-0.007
 4.782 	-0.764 	0.571
 5.376 	-0.535 	-0.401
 5.403 	0.054 	-0.327
 5.462 	-0.044 	-0.036
 5.720 	0.428 	0.022
 4.401 	0.633 	0.156
 4.178 	0.176 	-0.455
 4.375 	-0.222 	0.110
 4.544 	-0.211 	0.290
 5.361 	-0.474 	-0.076
 4.699 	-0.108 	-0.125
 4.104 	0.059 	0.330
 4.069 	-0.452 	0.469
 4.896 	-0.589 	-0.367
 4.717 	-0.547 	-0.191
 4.621 	0.065 	0.132
 4.701 	-1.114 	-0.239
 4.992 	-0.517 	0.150
 5.262 	-0.556 	0.510
 5.468 	-0.641 	-0.445
 5.496 	0.217 	-0.373
 5.271 	0.758 	-0.572
 5.005 	0.464 	-0.402
 4.861 	-0.252 	0.069
 4.472 	-0.188 	0.087
 4.588 	-0.476 	0.252
 4.660 	-0.162 	-0.040
 4.616 	0.000 	0.463
 4.827 	-0.142 	-0.156
 4.603 	-0.340 	-0.120
 4.901 	0.211 	0.370
 4.794 	-0.438 	0.060
 4.810 	-1.081 	0.408
 4.873 	-1.028 	0.030
 5.100 	-0.438 	0.396
 5.727 	-0.282 	0.103
 6.361 	0.511 	-0.179
 4.762 	0.753 	-0.024
 5.072 	0.483 	0.087
 5.330 	-0.258 	-0.138
 5.239 	-0.379 	0.128
 4.984 	-0.149 	0.231
 4.498 	-0.156 	0.375
 4.476 	0.191 	0.123
 4.446 	0.226 	0.055
 4.225 	0.003 	0.599
 3.982 	-0.638 	0.299
 4.931 	-1.186 	-0.183
 5.048 	-1.606 	-0.160
 5.044 	-1.297 	-0.192
 4.775 	-0.995 	-0.344
 4.937 	-0.040 	-0.321
 5.146 	0.317 	0.433
 5.121 	0.100 	-0.138
 5.234 	-0.010 	0.038
 5.319 	-0.162 	-0.269
 4.924 	0.019 	0.178
 4.804 	0.340 	0.092
 3.861 	0.443 	0.229
 3.265 	-0.092 	0.399
 3.574 	0.480 	0.374
 4.106 	-0.324 	0.414
 4.765 	-0.808 	-0.514
 5.064 	-1.908 	-0.621
 5.260 	-1.306 	-0.365
 4.546 	-1.209 	-0.225
 4.690 	-0.523 	0.032
 4.327 	-0.381 	-0.082
 4.945 	0.457 	0.208
 7.478 	0.206 	-0.574
 7.810 	0.312 	-0.458
 5.869 	-0.246 	-0.106
 6.411 	-0.596 	-0.673
 6.161 	0.923 	0.106
 5.513 	1.623 	0.515
 5.297 	1.515 	0.452
 5.028 	0.723 	0.740
 5.048 	0.703 	0.047
 4.722 	0.231 	0.375
 5.333 	-0.071 	-1.168
 4.517 	-0.985 	1.495
 5.191 	-1.227 	1.080
 5.873 	-0.862 	0.474
 6.440 	-0.668 	-1.026
 6.497 	-0.467 	-0.545
 5.255 	-0.206 	0.727
 6.574 	0.908 	-0.148
 6.426 	1.189 	-0.215
 4.375 	0.416 	1.010
 4.614 	1.140 	0.572
 4.524 	1.707 	1.124
 5.275 	1.305 	0.977
 4.891 	0.630 	0.698
 5.193 	0.632 	0.105
 4.884 	0.613 	-0.651
 5.306 	0.710 	-1.071
 5.566 	-0.706 	-0.413
 6.194 	-0.803 	-0.256
 6.613 	-1.008 	1.003
 6.841 	-0.527 	-0.937
 6.601 	-0.619 	-1.301
 4.524 	0.324 	0.841
 4.047 	1.211 	1.250
 4.552 	1.842 	0.414
 4.563 	0.983 	0.898
 4.980 	1.193 	1.292
 5.831 	0.916 	1.306
 5.764 	0.860 	1.079
 5.123 	0.880 	0.349
 4.744 	0.777 	-0.340
 5.208 	0.775 	-0.744
 5.892 	0.406 	-0.639
 6.496 	-0.276 	-0.782
 6.651 	-0.767 	0.036
 6.473 	-0.599 	1.330
 6.772 	-0.541 	0.094
 6.390 	-0.257 	-1.112
 4.229 	0.440 	0.404
 4.514 	0.891 	-0.714
 4.914 	1.310 	-0.967
 5.077 	1.443 	-0.718
 5.046 	0.856 	-0.052
 5.019 	1.002 	0.066
 5.003 	1.035 	-0.241
 5.370 	0.848 	-0.428
 5.462 	0.627 	-0.671
 5.971 	0.544 	-0.730
 6.578 	0.415 	-0.533
 6.466 	0.109 	-0.360
 7.019 	-0.379 	-1.272
 6.441 	-0.215 	0.155
 6.563 	0.207 	0.824
 6.509 	-0.204 	-0.724
 5.289 	0.222 	-0.018
 5.366 	0.256 	0.233
 5.862 	0.781 	-1.060
 5.297 	1.402 	-0.638
 5.192 	1.192 	-0.272
 5.375 	1.139 	-0.764
 5.864 	0.521 	-0.968
 6.092 	0.776 	-0.803
 6.331 	0.370 	-0.223
 6.313 	-0.071 	-0.281
 6.308 	0.288 	-0.690
 5.424 	-0.668 	-0.610
 4.782 	-0.091 	0.649
 5.070 	0.577 	1.271
 5.848 	0.634 	0.871
 6.699 	-0.220 	-0.458
 6.468 	-0.365 	-0.231
 6.897 	0.439 	-0.794
 5.964 	0.542 	0.167
 6.030 	1.322 	-0.799
 5.828 	0.959 	0.075
 5.780 	0.976 	0.493
 5.767 	0.517 	0.292
 6.367 	-0.028 	0.287
 6.636 	-0.557 	-0.259
 6.293 	0.395 	-0.734
 6.088 	0.208 	-0.481
 5.701 	0.129 	-0.181
 5.275 	0.267 	1.043
 5.696 	0.497 	0.019
 5.938 	-0.373 	-0.044
 6.204 	-0.253 	-0.231
 5.720 	0.280 	0.320
 5.755 	0.929 	0.128
 6.243 	1.318 	-0.465
 6.147 	1.331 	-0.342
 6.394 	0.556 	-0.155
 6.524 	0.244 	0.107
 6.252 	-0.467 	0.438
 6.139 	-0.506 	0.069
 6.344 	-0.508 	-0.540
 7.230 	-0.046 	-0.811
 6.417 	0.279 	-0.693
 6.112 	0.641 	-0.648
 6.696 	0.605 	-0.612
 5.626 	-0.016 	0.207
 5.180 	-0.425 	0.216
 4.967 	-0.744 	-0.255
 5.148 	0.073 	0.013
 5.650 	0.218 	0.077
 5.591 	0.591 	-0.100
 5.940 	0.820 	-0.177
 5.811 	0.009 	0.007
 6.024 	0.213 	-0.135
 5.967 	-0.447 	0.013
 6.020 	-0.071 	-0.250
 5.113 	-0.693 	-0.186
 5.376 	0.048 	-0.316
 6.148 	0.098 	-0.646
 6.306 	0.323 	-1.033
 5.855 	0.891 	0.107
 5.812 	0.199 	0.148
 6.062 	-0.118 	-0.195
 6.020 	-0.033 	-0.343
 5.536 	-0.340 	-0.680
 5.939 	0.055 	-0.291
 5.693 	0.023 	-0.279
 5.533 	0.089 	-0.461
 6.061 	0.108 	-0.696
 5.815 	0.283 	-0.313
 6.108 	-0.125 	-0.013
 5.361 	0.428 	0.236
 4.929 	0.499 	-0.016
 4.589 	-0.121 	0.255
 4.912 	0.063 	0.462
 5.279 	0.619 	0.655
 5.838 	0.715 	0.181
 6.283 	0.203 	0.043
 6.702 	-0.029 	0.003
 6.452 	0.023 	-0.348
 4.965 	-0.070 	-0.021
 5.050 	-0.044 	-0.118
 5.453 	0.142 	-0.391
 5.015 	-0.060 	-0.024
 4.780 	0.039 	0.053
 5.045 	0.198 	0.514
 4.998 	-0.981 	0.542
 5.243 	0.331 	0.333
 5.296 	0.874 	0.059
 4.989 	0.429 	-0.087
 4.982 	0.033 	0.291
 5.154 	0.109 	0.194
 5.507 	-0.169 	-0.288
 6.118 	-0.088 	-0.293
 6.072 	0.084 	0.171
 6.150 	0.375 	-0.343
 4.501 	0.460 	0.390
 3.883 	0.470 	0.769
 3.757 	-0.187 	0.630
 4.156 	-0.391 	0.572
 4.815 	0.141 	0.400
 4.571 	-0.858 	0.418
 4.692 	-1.058 	0.075
 4.931 	-0.245 	-0.082
 5.301 	-0.690 	0.033
 5.818 	0.641 	-0.025
 5.065 	-0.294 	0.012
 5.530 	-0.375 	0.423
 5.827 	-0.026 	-0.208
 5.393 	-0.348 	-0.174
 5.652 	0.001 	-0.259
 5.762 	0.689 	-0.225
 4.558 	0.529 	-0.362
 4.366 	0.528 	-0.056
 4.241 	-0.238 	0.495
 4.326 	-0.806 	-0.100
 4.789 	-0.748 	-0.341
 4.716 	-0.634 	-0.465
 4.830 	-0.708 	0.427
 5.414 	-0.747 	-0.129
 5.508 	-0.988 	-0.514
 5.313 	-0.488 	-0.427
 5.740 	-0.302 	-0.869
 5.622 	-0.508 	0.142
 5.631 	-0.230 	0.394
 5.912 	-0.545 	0.332
 5.853 	-0.470 	0.317
 5.989 	0.050 	0.033
 4.731 	1.334 	-0.376
 4.539 	0.874 	-0.240
 4.511 	0.137 	-0.395
 4.918 	-0.410 	-0.103
 4.736 	-0.638 	0.119
 5.174 	-0.416 	-0.238
 5.290 	-0.262 	0.004
 5.729 	-0.410 	-0.029
 5.411 	-0.324 	-0.721
 5.130 	-0.406 	-0.301
 5.072 	0.076 	0.130
 5.082 	-0.529 	0.334
 5.035 	-1.135 	0.287
 5.595 	-1.159 	0.048
 5.584 	-0.802 	0.001
 5.757 	-0.179 	-0.017
 4.825 	0.952 	-0.424
 4.698 	0.838 	0.024
 5.045 	0.232 	0.042
 5.267 	-0.417 	0.401
 5.159 	-0.428 	0.223
 5.228 	-0.189 	0.208
 5.477 	-0.249 	0.068
 4.858 	-0.210 	0.144
 4.638 	-0.203 	-0.002
 4.626 	-0.290 	0.288
 4.761 	-0.366 	0.414
 5.317 	-0.678 	0.381
 5.402 	-1.313 	0.177
 5.285 	-1.420 	0.395
 5.252 	-1.075 	-0.253
 5.484 	-0.441 	-0.241
 4.889 	0.720 	-0.566
 5.303 	0.741 	0.197
 5.408 	0.482 	-0.017
 5.579 	-0.130 	-0.059
 5.298 	-0.469 	0.034
 4.875 	-0.114 	0.111
 4.881 	0.164 	-0.068
 4.946 	0.167 	0.234
 4.768 	0.205 	0.238
 5.331 	-0.101 	0.122
 5.213 	-0.438 	-0.058
 5.698 	-1.613 	-0.033
 6.156 	-1.350 	-0.284
 6.049 	-1.353 	0.280
 5.976 	-0.724 	-0.266
 5.291 	-0.552 	0.307
 4.604 	1.360 	-0.233
 5.155 	0.796 	-0.110
 5.474 	0.232 	-0.422
 4.971 	-0.101 	0.215
 4.831 	-0.024 	0.346
 4.526 	0.106 	0.513
 4.461 	0.378 	0.590
 4.768 	0.173 	0.181
 5.097 	0.189 	0.301
 5.974 	-0.567 	-0.214
 6.321 	-0.632 	-0.720
 6.218 	-1.335 	-0.873
 6.435 	-1.670 	-0.274
 5.310 	-1.324 	0.770
 5.006 	-0.919 	0.230
 5.372 	-0.311 	0.197
 7.137 	0.423 	-0.547
 6.835 	0.351 	-0.345
 6.710 	0.136 	0.143
 7.128 	0.682 	-0.438
 6.236 	-0.123 	0.194
 6.248 	0.557 	0.557
 6.341 	0.163 	-0.401
 6.043 	0.847 	-0.287
 6.297 	1.505 	0.829
 6.103 	1.703 	-0.014
 6.788 	1.632 	-1.457
 5.876 	0.409 	-0.350
 6.030 	-0.197 	-0.371
 6.571 	-1.109 	-0.064
 6.957 	-1.216 	-0.343
 5.952 	-0.222 	-0.335
 6.901 	0.292 	-0.113
 6.070 	0.154 	-0.119
 5.684 	1.157 	-0.330
 6.306 	1.437 	0.537
 5.625 	0.629 	0.282
 5.893 	0.588 	0.412
 5.560 	1.226 	0.413
 5.730 	1.907 	0.799
 5.898 	1.774 	0.736
 6.362 	1.475 	-0.973
 6.924 	1.407 	-0.698
 6.179 	1.026 	-0.401
 6.416 	-0.067 	-0.412
 6.926 	-1.016 	-0.310
 7.099 	-0.650 	-0.599
 6.550 	-0.606 	-0.507
 5.220 	0.926 	1.150
 4.869 	0.144 	0.922
 4.786 	-0.096 	0.312
 5.523 	1.353 	0.599
 5.122 	1.041 	0.260
 5.360 	1.411 	0.520
 5.896 	1.764 	0.817
 6.019 	1.887 	0.583
 6.065 	1.555 	-0.198
 6.279 	1.027 	-0.776
 6.330 	1.102 	-0.810
 7.207 	0.372 	-0.395
 6.698 	-0.110 	-0.438
 6.942 	-0.596 	0.036
 7.439 	-0.808 	-0.301
 7.379 	-0.476 	-0.708
 5.678 	0.880 	0.381
 6.382 	0.758 	-0.906
 6.170 	0.328 	-0.554
 6.340 	0.293 	0.134
 5.615 	1.861 	0.180
 5.983 	1.960 	-0.459
 6.108 	1.909 	-0.476
 6.212 	2.199 	-0.547
 6.427 	1.641 	-0.985
 6.473 	0.371 	-0.595
 6.852 	0.248 	-0.215
 6.942 	0.098 	-0.520
 6.884 	-0.220 	-0.752
 7.032 	-0.676 	-0.149
 7.291 	-0.474 	-0.152
 7.062 	-0.746 	-0.326
 6.311 	0.998 	0.169
 6.769 	0.608 	-0.940
 6.579 	0.226 	-0.590
 6.713 	0.995 	-0.104
 6.037 	0.980 	0.083
 5.711 	0.743 	0.217
 5.892 	1.579 	0.052
 6.181 	1.672 	-0.161
 6.940 	1.032 	-0.282
 7.279 	0.791 	-0.634
 6.891 	0.722 	0.092
 6.479 	-0.055 	-0.422
 7.278 	-0.504 	-0.458
 7.283 	-0.393 	-0.161
 7.285 	-0.214 	0.125
 6.533 	-0.309 	-0.224
 6.437 	0.736 	-0.269
 7.066 	0.596 	-0.121
 6.625 	0.734 	-0.340
 6.495 	0.726 	-0.478
 6.083 	1.557 	0.435
 5.825 	0.638 	0.831
 5.871 	0.133 	0.761
 6.485 	0.333 	0.300
 7.019 	0.293 	0.158
 6.595 	1.008 	-0.192
 6.959 	0.332 	-0.301
 6.793 	0.250 	-0.576
 7.573 	0.368 	0.324
 6.709 	-0.154 	0.270
 6.352 	-0.130 	0.222
 6.182 	-0.276 	0.237
 6.481 	0.432 	-0.199
 6.189 	0.020 	-0.196
 6.463 	0.780 	-0.134
 6.593 	1.424 	0.021
 6.377 	1.548 	0.152
 6.319 	0.822 	0.231
 6.576 	-0.110 	0.341
 6.984 	0.282 	-0.350
 7.050 	0.146 	-0.576
 7.245 	0.395 	-0.843
 6.772 	0.408 	-0.392
 6.915 	1.091 	-0.366
 7.279 	0.288 	-0.134
 6.747 	0.594 	0.621
 6.485 	0.260 	0.077
 6.541 	-0.012 	-0.564
 5.545 	0.181 	0.131
 5.584 	0.046 	0.487
 5.736 	0.056 	0.160
 6.290 	0.782 	0.143
 6.528 	1.458 	0.018
 6.982 	0.740 	-0.174
 7.022 	0.367 	-0.185
 7.259 	0.271 	-0.266
 6.795 	0.356 	0.097
 6.628 	-0.076 	0.028
 6.661 	0.630 	-0.658
 6.941 	0.559 	-0.730
 6.579 	0.769 	0.375
 6.922 	0.756 	0.133
 6.919 	0.376 	-0.480
 6.545 	0.123 	-0.467
 6.273 	-0.101 	-0.511
 6.167 	0.036 	-0.441
 5.900 	0.142 	-0.055
 5.728 	0.641 	0.225
 6.180 	0.578 	-0.085
 6.355 	0.287 	-0.266
 6.378 	0.394 	-0.090
 6.470 	0.189 	0.022
 6.309 	0.684 	0.134
 6.027 	0.235 	-0.084
 5.558 	0.402 	-0.477
 5.567 	0.385 	0.147
 5.911 	0.155 	0.217
 6.519 	0.164 	-0.172
 7.018 	0.296 	-0.084
 7.169 	0.129 	0.169
 5.654 	-0.603 	-0.691
 5.737 	0.197 	-0.792
 5.778 	0.595 	-0.278
 5.218 	0.304 	0.145
 5.160 	-0.056 	0.290
 4.902 	0.013 	0.661
 5.355 	0.225 	0.621
 5.519 	0.366 	0.614
 5.942 	0.122 	0.037
 5.780 	0.889 	-0.044
 5.394 	1.016 	0.519
 5.761 	0.114 	0.624
 5.673 	-0.437 	0.027
 5.747 	-0.073 	-0.122
 6.163 	0.005 	0.029
 6.726 	0.374 	0.034
 4.173 	-0.252 	0.788
 4.918 	0.696 	0.457
 5.207 	0.701 	0.223
 5.410 	0.679 	-0.047
 4.831 	0.748 	0.216
 4.755 	0.352 	0.329
 4.580 	0.230 	0.388
 4.782 	0.065 	0.641
 5.258 	0.771 	0.645
 5.582 	1.098 	0.630
 5.662 	0.452 	-0.155
 5.667 	-0.387 	0.099
 5.926 	-0.828 	0.248
 6.531 	-0.758 	-0.014
 5.884 	-0.503 	0.010
 6.033 	-0.056 	0.168
 4.666 	0.037 	-0.052
 5.222 	0.787 	-0.531
 5.006 	1.249 	0.172
 4.804 	0.924 	0.266
 4.691 	0.791 	0.278
 4.856 	0.832 	-0.073
 4.673 	0.585 	-0.070
 4.478 	0.145 	-0.141
 4.416 	0.227 	-0.272
 5.135 	0.081 	-0.048
 5.631 	-0.286 	0.226
 5.832 	-0.845 	0.324
 6.223 	-0.840 	0.372
 6.316 	-0.645 	0.287
 6.231 	-0.349 	0.114
 6.494 	-0.732 	-0.259
 5.205 	0.145 	-0.510
 5.362 	0.751 	-0.320
 4.427 	0.933 	0.072
 4.582 	0.044 	-0.088
 5.077 	-0.001 	-0.301
 5.322 	0.031 	-0.363
 5.619 	-0.008 	-0.331
 5.854 	-0.172 	-0.555
 5.862 	-0.047 	-0.674
 5.721 	-0.415 	-0.281
 5.721 	-0.276 	-0.062
 5.282 	-0.699 	0.527
 5.071 	-1.389 	0.460
 5.590 	-0.981 	0.547
 6.322 	-0.428 	0.403
 6.406 	-0.551 	0.127
 4.898 	1.124 	-0.009
 4.465 	1.269 	-0.082
 4.867 	0.414 	-0.428
 4.734 	-0.108 	-0.020
 4.922 	-0.288 	0.158
 5.267 	-0.168 	0.187
 5.732 	0.164 	-0.291
 5.754 	-0.023 	-0.070
 5.623 	0.181 	-0.104
 5.244 	0.326 	0.326
 5.224 	-0.275 	0.177
 5.750 	-0.531 	0.453
 5.761 	-1.342 	0.397
 6.258 	-1.826 	0.193
 6.314 	-1.458 	0.051
 6.529 	-1.024 	-0.084
 5.273 	1.374 	-0.245
 5.292 	0.987 	0.036
 5.387 	0.538 	-0.245
 5.403 	-0.188 	-0.174
 5.615 	-0.326 	0.165
 5.524 	0.006 	0.286
 5.395 	0.433 	0.035
 5.778 	0.177 	0.085
 5.820 	0.134 	0.010
 5.958 	0.210 	0.122
 6.185 	-0.123 	-0.116
 6.205 	-0.513 	0.152
 6.220 	-1.593 	-0.457
 6.698 	-1.872 	0.091
 7.218 	-1.459 	-0.544
 7.129 	-1.393 	0.398
 6.214 	1.108 	-0.600
 6.396 	1.145 	-0.070
 5.789 	0.913 	-0.439
 5.304 	-0.100 	0.475
 5.447 	0.022 	0.450
 5.516 	0.208 	0.349
 5.534 	0.256 	0.184
 5.608 	0.230 	-0.089
 5.705 	0.246 	-0.535
 5.955 	0.428 	-1.182
 6.698 	0.287 	-0.783
 6.614 	-0.264 	-1.025
 6.333 	-2.009 	-0.698
 6.763 	-1.867 	0.320
 7.257 	-1.030 	0.543
 6.604 	-0.348 	0.503
 7.120 	-0.071 	-0.470
 7.017 	0.369 	-0.346
 7.342 	-0.210 	0.044
 7.387 	1.034 	-0.088
 6.327 	0.315 	0.458
 6.905 	0.560 	-0.039
 7.936 	-0.082 	-0.163
 6.942 	-0.242 	-0.096
 6.649 	1.162 	0.510
 7.712 	0.192 	-0.423
 6.277 	0.350 	-0.582
 6.318 	0.569 	-0.255
 6.361 	0.373 	-0.463
 6.183 	0.381 	-0.302
 5.732 	0.014 	-0.074
 6.082 	-0.162 	0.187
 6.878 	-0.432 	0.274
 6.788 	0.221 	0.005
 6.056 	0.435 	0.479
 5.758 	0.402 	0.833
 6.526 	-0.022 	0.746
 6.893 	-0.154 	0.298
 7.015 	-0.581 	0.460
 6.950 	-0.385 	-0.232
 7.102 	0.689 	0.016
 7.809 	0.363 	-0.759
 6.665 	0.612 	-0.270
 5.913 	0.901 	-0.412
 6.209 	0.395 	-0.449
 6.751 	-0.133 	-0.367
 6.881 	-0.158 	-0.414
 6.913 	-0.352 	-0.588
 6.374 	0.727 	0.469
 7.172 	0.733 	-0.245
 6.604 	1.382 	-0.300
 6.698 	-0.109 	0.107
 7.526 	-0.584 	-0.394
 7.692 	-0.484 	-0.430
 7.402 	0.076 	-0.183
 7.825 	0.004 	-0.166
 8.218 	0.153 	-0.680
 8.659 	0.538 	-1.193
 7.420 	0.827 	-0.283
 6.620 	1.011 	-0.382
 7.125 	-0.151 	-0.371
 7.446 	-0.207 	-0.077
 7.557 	-0.245 	-0.277
 7.866 	-0.079 	-0.020
 7.208 	1.188 	0.083
 7.087 	0.677 	-0.347
 7.089 	0.949 	-0.129
 7.021 	0.383 	-0.437
 7.040 	-0.037 	0.446
 7.349 	0.107 	0.190
 7.312 	0.116 	-0.021
 7.497 	0.265 	-0.884
 7.601 	0.839 	-0.317
 7.198 	0.629 	-0.203
 7.044 	0.581 	-0.167
 7.290 	0.360 	-0.268
 7.187 	0.280 	-0.329
 7.373 	-0.207 	-0.798
 7.209 	-0.913 	-0.481
 7.947 	-0.873 	-0.422
 7.394 	1.151 	-0.182
 7.424 	0.993 	-0.434
 7.003 	0.496 	-0.319
 7.751 	0.550 	-0.882
 7.604 	0.946 	0.110
 7.191 	0.021 	0.480
 6.602 	-0.041 	0.171
 6.729 	0.192 	-0.245
 7.210 	0.604 	-0.514
 7.390 	0.746 	-0.387
 7.178 	0.528 	-0.228
 7.270 	0.449 	-0.005
 7.023 	-0.179 	-0.494
 6.551 	-0.442 	-0.398
 6.684 	-0.723 	0.039
 6.736 	-0.780 	-0.045
 6.797 	0.688 	-0.156
 7.349 	0.421 	-0.180
 7.483 	0.766 	-0.761
 7.131 	0.750 	-0.213
 6.853 	0.963 	0.108
 7.092 	0.809 	0.435
 6.672 	0.416 	0.564
 6.971 	0.532 	0.005
 7.258 	0.716 	-0.015
 7.535 	0.881 	-0.313
 7.596 	0.595 	-0.497
 7.136 	0.197 	-0.189
 6.521 	-0.016 	-0.610
 6.510 	-0.198 	-0.286
 6.567 	-0.485 	0.234
 6.861 	-0.643 	-0.331
 7.319 	1.312 	-0.410
 6.206 	-0.313 	0.489
 6.742 	0.878 	-0.193
 6.703 	1.006 	0.053
 6.789 	1.305 	-0.098
 7.143 	0.953 	0.305
 6.903 	1.103 	0.281
 7.158 	0.648 	-0.188
 7.201 	0.548 	-0.628
 6.976 	0.722 	-0.397
 6.917 	0.583 	-0.664
 5.926 	0.157 	-0.613
 6.301 	0.361 	-0.437
 6.577 	0.283 	0.503
 6.654 	-0.238 	0.244
 6.450 	-0.584 	-0.341
 6.254 	1.154 	0.251
 6.215 	0.278 	0.303
 5.953 	0.110 	0.371
 6.326 	0.722 	0.003
 6.407 	1.175 	-0.010
 6.357 	0.209 	0.197
 6.835 	0.385 	-0.068
 6.736 	0.332 	0.189
 6.745 	0.461 	0.123
 7.160 	1.115 	0.074
 6.806 	0.780 	-0.728
 6.839 	0.580 	-0.156
 5.960 	0.131 	0.578
 6.044 	-0.235 	0.155
 6.279 	-0.681 	-0.201
 6.308 	-0.703 	-0.341
 5.990 	0.395 	-0.195
 6.075 	0.413 	-0.321
 6.028 	0.211 	0.033
 5.943 	0.153 	0.343
 6.280 	0.303 	0.497
 6.359 	0.075 	0.193
 6.155 	-0.073 	0.104
 6.140 	-0.218 	0.019
 6.694 	0.056 	-0.190
 6.876 	0.936 	-0.429
 6.763 	0.565 	-0.108
 6.398 	0.575 	0.960
 6.174 	0.388 	0.718
 5.981 	-0.227 	0.151
 5.616 	-0.550 	-0.145
 5.800 	-0.147 	0.300
 6.480 	0.254 	-0.108
 6.114 	-0.048 	-0.482
 6.390 	0.304 	-0.581
 6.101 	0.640 	-0.261
 6.040 	0.422 	0.071
 5.830 	0.205 	0.403
 5.757 	0.196 	0.425
 5.886 	-0.010 	0.240
 5.970 	0.432 	0.003
 6.133 	0.196 	-0.232
 5.991 	1.115 	0.341
 5.652 	0.290 	0.189
 5.699 	0.069 	0.282
 6.312 	-0.685 	0.284
 6.492 	-1.196 	0.408
 5.867 	0.047 	0.242
 6.032 	0.534 	0.157
 6.020 	-0.333 	-0.593
 5.187 	-0.059 	0.146
 5.153 	0.662 	0.238
 5.184 	0.484 	0.328
 5.287 	0.398 	0.071
 5.297 	0.450 	-0.034
 5.143 	0.131 	-0.045
 5.322 	0.409 	0.131
 5.417 	0.336 	0.318
 6.062 	0.708 	0.541
 5.875 	0.296 	0.248
 6.093 	-0.190 	-0.115
 6.453 	-0.708 	-0.045
 6.683 	-1.052 	0.068
 6.123 	-0.735 	0.935
 5.300 	0.132 	-0.185
 5.020 	0.443 	-0.321
 3.954 	0.640 	0.519
 3.962 	0.424 	0.336
 4.156 	0.102 	0.231
 4.414 	0.005 	0.049
 4.435 	0.562 	-0.056
 4.624 	0.275 	0.238
 5.094 	-0.127 	0.124
 5.212 	0.038 	0.527
 5.375 	0.602 	0.620
 5.704 	-0.048 	0.470
 6.187 	-0.603 	0.221
 6.570 	-1.014 	0.041
 6.578 	-1.091 	-0.026
 6.371 	-0.617 	-0.185
 6.341 	0.537 	-0.377
 5.897 	0.833 	-0.375
 4.675 	0.936 	0.426
 5.283 	0.570 	-0.138
 5.778 	0.650 	-0.391
 5.661 	0.699 	-0.369
 5.698 	0.612 	-0.439
 6.065 	0.083 	-0.622
 6.500 	0.103 	-0.800
 6.298 	0.063 	-0.707
 6.162 	0.092 	-0.315
 5.984 	-0.199 	0.124
 6.106 	-0.611 	0.459
 6.095 	-0.766 	0.408
 6.387 	-1.172 	0.300
 6.829 	-1.294 	0.015
 5.988 	0.792 	0.022
 5.899 	0.926 	-0.261
 5.927 	1.136 	-0.255
 6.009 	0.682 	-0.148
 5.895 	0.705 	-0.110
 5.865 	0.689 	-0.138
 6.156 	0.493 	-0.371
 6.253 	0.245 	-0.269
 6.133 	0.247 	-0.169
 6.376 	0.533 	-0.198
 6.242 	0.701 	-0.390
 6.219 	0.160 	0.109
 6.038 	-0.353 	0.628
 6.211 	-0.975 	0.498
 6.542 	-1.622 	0.389
 7.183 	-1.500 	-0.144
 5.910 	1.291 	0.099
 5.892 	1.198 	-0.191
 6.286 	0.866 	-0.172
 5.652 	1.036 	-0.005
 5.469 	0.801 	-0.147
 6.002 	0.541 	-0.177
 6.339 	0.504 	-0.266
 6.211 	0.444 	-0.216
 6.089 	0.576 	-0.080
 5.960 	0.569 	-0.391
 6.271 	0.771 	-0.371
 6.514 	0.518 	-0.382
 6.567 	-0.107 	-0.542
 6.666 	-1.214 	-0.370
 7.142 	-1.235 	-0.469
 7.373 	-1.655 	0.381
 6.410 	0.944 	-0.019
 6.695 	1.152 	-0.263
 6.526 	1.179 	0.147
 5.880 	0.863 	0.349
 6.139 	0.788 	0.057
 6.030 	0.926 	0.192
 5.876 	0.843 	-0.148
 6.024 	0.654 	-0.555
 6.139 	0.574 	-0.613
 6.036 	0.370 	-0.645
 6.486 	0.160 	-0.630
 6.811 	0.013 	-0.623
 6.981 	-0.405 	-0.648
 7.121 	-1.466 	0.109
 7.572 	-1.546 	0.193
 7.367 	-1.348 	-0.046
 7.869 	0.272 	-0.279
 8.140 	0.214 	-0.365
 8.668 	0.062 	-0.487
 8.403 	-0.165 	-0.102
 8.159 	0.029 	-0.379
 8.407 	0.812 	-0.483
 8.409 	0.308 	-0.265
 8.945 	0.365 	-0.063
 8.278 	0.262 	-0.111
 8.488 	0.024 	-0.804
 8.140 	0.061 	-0.204
 8.559 	0.609 	-0.622
 7.717 	0.534 	-0.262
 6.687 	0.345 	0.029
 6.641 	-0.164 	-0.137
 6.448 	-0.019 	0.349
 7.230 	0.021 	-0.291
 7.286 	-0.093 	-0.075
 7.289 	-0.008 	-0.359
 7.335 	0.257 	0.224
 7.758 	0.667 	0.973
 7.559 	0.748 	0.459
 8.188 	0.537 	-0.522
 8.506 	0.885 	-0.611
 8.413 	0.241 	-0.148
 7.873 	-0.166 	-0.014
 8.092 	0.688 	0.212
 7.685 	0.502 	-0.217
 7.443 	1.203 	-0.261
 7.128 	0.706 	-0.258
 7.745 	0.314 	-0.857
 7.567 	0.046 	0.001
 7.605 	0.451 	-0.244
 7.355 	0.368 	-0.359
 7.178 	0.718 	-0.228
 7.438 	1.116 	0.287
 7.399 	0.685 	-0.233
 7.542 	0.728 	-0.027
 8.405 	0.615 	-0.321
 8.380 	0.532 	-0.134
 7.825 	0.011 	-0.107
 7.724 	0.433 	-0.702
 8.321 	0.304 	0.025
 8.164 	0.514 	-0.168
 7.812 	1.126 	-0.449
 7.800 	0.254 	-0.259
 8.066 	-0.354 	-0.415
 8.063 	0.665 	-0.385
 7.678 	0.726 	-0.351
 7.828 	0.803 	-0.644
 7.585 	1.192 	-0.396
 7.568 	0.941 	-0.582
 7.363 	0.340 	0.010
 7.376 	0.066 	0.174
 7.261 	-0.404 	-0.200
 7.721 	0.028 	-0.356
 7.571 	0.315 	-0.844
 8.198 	0.014 	-0.505
 7.508 	0.468 	0.133
 7.151 	0.881 	-0.006
 7.493 	0.392 	-0.092
 7.895 	-0.016 	-0.514
 8.015 	0.047 	-0.235
 8.071 	0.547 	0.116
 8.024 	0.899 	-0.526
 7.757 	1.367 	-0.296
 7.719 	1.331 	-0.211
 7.818 	1.148 	-0.458
 7.542 	0.530 	0.197
 7.135 	0.012 	0.271
 7.319 	-0.320 	-0.163
 7.733 	-0.187 	-0.395
 8.122 	0.314 	-0.778
 7.742 	0.419 	-0.675
 7.771 	0.683 	-0.010