# vtk DataFile Version 3.0
HighT1
ASCII
DATASET STRUCTURED_POINTS
DIMENSIONS 16 16 19
ORIGIN 929.001000000000 929.001000000000 5.001000000000
SPACING 10.000000000000 10.000000000000 10.000000000000
POINT_DATA 4864
FIELD attributes 1
U 3 4864 float
2.261 	0.958 	0.903
 2.689 	0.577 	0.273
 3.245 	-0.588 	-0.022
 3.273 	-1.012 	0.065
 2.933 	-0.515 	0.142
 3.095 	-0.319 	0.244
 3.167 	-0.276 	0.320
 3.184 	-0.064 	0.216
 3.303 	-0.337 	0.164
 3.255 	-0.611 	0.021
 3.390 	-0.588 	-0.153
 3.558 	-0.438 	0.002
 3.582 	-0.420 	0.074
 3.900 	-0.175 	0.119
 3.954 	-0.388 	0.051
 3.671 	-0.166 	-0.052
 3.221 	0.328 	-0.391
 3.813 	-0.263 	-0.685
 4.312 	-0.273 	-0.481
 4.821 	0.145 	-0.408
 4.818 	0.456 	-0.318
 4.529 	-0.507 	0.188
 3.773 	-0.370 	0.099
 3.171 	0.038 	-0.060
 2.854 	-0.136 	-0.034
 2.975 	-0.325 	-0.021
 3.416 	-0.405 	-0.094
 3.855 	-0.822 	0.135
 4.953 	-1.012 	-0.301
 4.909 	-0.743 	-0.056
 4.716 	-0.413 	-0.002
 3.448 	-0.341 	0.112
 3.587 	0.387 	-0.243
 3.926 	0.335 	-0.379
 4.035 	0.414 	-0.128
 4.038 	0.089 	0.149
 4.579 	0.518 	-0.032
 5.132 	1.014 	-0.035
 3.451 	0.166 	0.453
 3.281 	0.285 	0.366
 4.035 	-0.928 	0.505
 4.409 	-1.120 	0.017
 4.443 	-1.038 	0.089
 4.310 	-1.034 	-0.022
 3.430 	-1.257 	0.229
 3.068 	-0.315 	0.179
 3.105 	-0.243 	0.318
 4.011 	-0.913 	0.025
 3.098 	0.050 	0.139
 3.495 	0.258 	-0.002
 4.250 	0.372 	-0.263
 4.776 	0.382 	-0.525
 4.791 	0.372 	-0.172
 4.725 	0.837 	0.019
 5.079 	1.008 	0.047
 5.253 	0.198 	-0.140
 5.240 	-0.534 	-0.009
 5.137 	-0.875 	0.028
 4.785 	-1.367 	0.182
 4.342 	-0.982 	-0.271
 3.617 	-0.862 	-0.136
 3.794 	-0.220 	0.194
 3.293 	-0.730 	0.381
 3.915 	-1.704 	0.402
 3.421 	-0.126 	0.181
 3.205 	-0.135 	0.127
 3.301 	0.204 	0.120
 3.719 	0.717 	-0.120
 4.542 	0.888 	-0.253
 4.869 	0.827 	-0.012
 5.194 	0.531 	0.017
 5.295 	-0.032 	0.090
 5.132 	-0.275 	-0.161
 4.111 	-0.176 	-0.045
 3.861 	-0.541 	-0.006
 3.315 	-1.021 	-0.082
 2.401 	-0.540 	0.354
 2.372 	-0.355 	0.877
 4.170 	-0.834 	-0.003
 5.770 	-1.645 	-0.716
 3.723 	-0.275 	-0.190
 3.602 	-0.004 	-0.154
 3.750 	0.008 	-0.115
 3.934 	0.205 	-0.046
 4.210 	0.461 	-0.019
 4.508 	0.682 	-0.036
 4.821 	0.387 	-0.044
 4.652 	-0.012 	-0.084
 4.462 	-0.014 	-0.065
 4.397 	0.387 	0.084
 4.121 	0.135 	-0.094
 4.419 	0.057 	-0.226
 4.984 	-0.470 	-0.198
 5.684 	-1.019 	-0.283
 5.922 	-0.828 	-0.362
 6.561 	-0.608 	-0.989
 2.794 	-0.159 	0.340
 3.113 	-0.273 	0.322
 3.615 	-0.387 	0.262
 3.790 	-0.573 	0.451
 3.753 	-0.268 	0.430
 4.142 	0.225 	0.119
 4.407 	0.134 	0.086
 4.602 	-0.049 	0.123
 4.676 	-0.444 	0.135
 4.622 	-0.642 	0.112
 4.891 	-0.705 	0.278
 5.153 	-0.152 	-0.009
 5.710 	0.177 	-0.399
 5.721 	-0.728 	-0.158
 5.611 	-0.461 	-0.179
 6.109 	-0.284 	-1.035
 4.232 	-0.063 	-0.256
 4.591 	-0.280 	-0.252
 4.855 	-0.090 	-0.335
 5.060 	-0.098 	-0.212
 5.330 	-0.018 	-0.156
 5.785 	-0.050 	-0.065
 5.464 	-0.233 	0.204
 5.141 	-0.351 	0.081
 5.351 	-0.657 	-0.260
 5.665 	-0.678 	-0.337
 6.073 	-0.319 	-0.375
 5.890 	-0.315 	-0.260
 5.368 	-0.099 	0.011
 6.301 	-0.352 	-0.297
 5.711 	-0.248 	-0.235
 4.765 	0.071 	0.235
 4.326 	0.370 	-0.236
 4.456 	-0.004 	-0.169
 4.536 	-0.256 	-0.087
 4.879 	-0.025 	-0.081
 5.201 	-0.102 	-0.106
 5.368 	0.048 	0.036
 4.932 	-0.019 	0.135
 4.717 	-0.446 	-0.117
 4.955 	-0.168 	-0.535
 5.065 	-0.098 	-0.271
 5.161 	-0.235 	-0.106
 5.411 	-0.029 	-0.105
 5.851 	-0.384 	-0.369
 5.817 	0.868 	0.008
 3.904 	0.426 	0.581
 4.160 	0.144 	0.115
 3.905 	0.241 	-0.183
 4.726 	0.082 	-0.264
 4.680 	0.198 	-0.204
 4.563 	0.149 	-0.025
 5.435 	-0.168 	-0.124
 5.518 	-0.114 	0.109
 5.265 	-0.154 	0.178
 4.403 	-0.199 	0.005
 4.077 	0.232 	-0.102
 4.166 	-0.097 	-0.085
 4.423 	-0.456 	-0.096
 4.933 	-0.151 	0.038
 5.143 	0.821 	0.023
 5.557 	0.986 	-0.267
 5.305 	1.071 	-0.137
 4.939 	0.669 	0.276
 3.318 	0.155 	0.043
 4.190 	-0.054 	-0.087
 4.904 	0.357 	-0.139
 4.686 	0.304 	-0.002
 4.393 	-0.448 	0.500
 4.632 	0.007 	-0.009
 3.901 	-0.381 	0.314
 4.052 	-0.164 	0.222
 3.972 	-0.506 	0.319
 4.703 	-0.314 	-0.001
 5.535 	-0.127 	-0.277
 5.643 	-0.191 	0.113
 4.940 	0.318 	0.006
 5.466 	0.054 	-0.075
 5.347 	1.147 	0.088
 5.309 	1.000 	-0.071
 4.672 	0.282 	-0.080
 3.828 	0.039 	0.003
 3.522 	0.402 	0.051
 3.607 	0.213 	0.226
 3.308 	-0.895 	0.336
 3.265 	-1.033 	-0.174
 3.813 	-1.348 	-0.282
 4.448 	-1.169 	-0.791
 5.483 	-0.378 	-0.912
 5.546 	-0.380 	-0.604
 6.024 	0.224 	-0.713
 5.858 	0.480 	-0.073
 5.089 	0.446 	0.072
 5.265 	0.674 	0.141
 5.551 	0.817 	-0.015
 5.728 	0.472 	-0.103
 3.896 	0.074 	0.223
 3.838 	0.843 	0.026
 3.697 	0.517 	0.200
 4.382 	0.262 	-0.202
 5.286 	-0.821 	0.099
 4.122 	-0.905 	0.207
 3.089 	-0.982 	-0.101
 3.402 	-0.766 	0.039
 3.594 	0.238 	-0.162
 4.301 	0.530 	0.044
 4.283 	0.554 	0.471
 4.339 	1.082 	-0.011
 3.710 	1.267 	0.159
 3.415 	0.816 	-0.143
 4.025 	0.589 	-0.166
 4.335 	-0.073 	0.107
 5.295 	0.593 	0.060
 5.086 	0.582 	-0.460
 5.258 	0.266 	0.090
 6.240 	0.136 	-0.421
 5.423 	0.189 	-0.026
 4.760 	-0.350 	-0.028
 4.001 	0.120 	-0.245
 3.362 	-0.302 	-0.089
 2.982 	-0.051 	0.344
 3.088 	0.153 	0.182
 3.372 	0.683 	0.331
 3.544 	0.462 	-0.079
 4.147 	1.347 	-0.057
 4.000 	0.494 	-0.108
 4.136 	0.416 	-0.107
 4.114 	0.340 	0.171
 5.156 	0.675 	-0.032
 5.039 	0.154 	-0.173
 5.625 	0.128 	-0.246
 5.478 	0.981 	0.139
 5.398 	0.319 	0.066
 3.782 	-0.165 	0.251
 3.327 	-0.262 	0.043
 3.912 	0.136 	-0.271
 3.974 	-0.617 	0.186
 3.964 	0.048 	0.076
 4.261 	-0.351 	0.329
 3.940 	0.556 	0.319
 3.309 	0.853 	0.087
 3.558 	-0.035 	0.132
 3.147 	0.064 	0.342
 3.231 	-0.223 	0.340
 3.508 	0.417 	0.291
 3.681 	0.932 	1.007
 4.613 	0.903 	0.044
 5.103 	1.149 	0.205
 5.495 	1.706 	-0.632
 4.887 	0.439 	0.423
 4.646 	0.101 	-0.243
 5.049 	0.173 	0.105
 4.803 	-0.371 	-0.005
 4.977 	0.132 	-0.236
 4.832 	-0.300 	0.692
 3.917 	-0.307 	-0.136
 2.881 	0.998 	0.474
 3.283 	0.761 	-0.323
 4.063 	0.060 	-0.242
 3.391 	-0.531 	0.218
 3.908 	0.766 	-0.332
 3.676 	1.407 	0.952
 3.977 	0.177 	-0.018
 4.854 	0.306 	-0.714
 4.945 	0.237 	-0.168
 4.812 	1.121 	0.397
 3.898 	0.703 	0.750
 3.850 	0.514 	0.699
 3.784 	0.740 	0.469
 3.839 	0.764 	0.032
 4.183 	0.452 	-0.133
 4.618 	-0.243 	-0.178
 5.079 	-0.550 	-0.108
 5.182 	-0.898 	-0.136
 4.857 	-0.353 	0.019
 4.226 	-0.064 	0.198
 3.925 	1.097 	-0.375
 4.799 	0.757 	-0.449
 5.128 	0.403 	-0.923
 4.335 	-0.082 	-0.392
 5.002 	-0.203 	-0.371
 4.696 	1.354 	0.169
 4.738 	0.476 	0.134
 4.691 	0.429 	0.236
 4.405 	0.598 	-0.106
 4.892 	0.284 	-0.690
 4.803 	0.014 	-0.249
 4.928 	0.302 	-0.145
 4.715 	0.109 	0.336
 5.031 	-1.384 	1.013
 5.007 	-0.709 	0.483
 5.113 	0.392 	0.529
 5.257 	0.237 	-0.295
 5.639 	0.041 	-0.412
 4.834 	0.409 	-0.213
 4.629 	0.104 	0.030
 4.505 	-0.437 	-0.170
 5.092 	0.946 	-0.314
 5.517 	0.679 	-0.286
 4.736 	0.723 	0.372
 4.220 	0.613 	-0.241
 4.293 	0.822 	-0.192
 4.593 	0.200 	0.095
 5.234 	-0.372 	-0.075
 5.734 	-0.450 	0.112
 6.098 	-1.242 	0.100
 4.733 	-0.409 	0.665
 4.197 	-0.069 	0.546
 5.843 	0.219 	-0.099
 6.332 	0.765 	-0.807
 6.395 	0.645 	-0.613
 5.748 	0.417 	-0.742
 5.228 	0.027 	-0.038
 5.057 	0.459 	-0.321
 4.985 	1.044 	-0.086
 4.304 	1.204 	0.278
 4.270 	1.000 	-0.191
 5.173 	0.593 	-0.474
 5.806 	-0.613 	0.166
 6.222 	-0.933 	0.029
 5.951 	-0.765 	-0.003
 5.939 	-0.334 	0.482
 6.023 	-0.531 	0.353
 5.390 	-0.226 	0.421
 5.305 	0.859 	0.330
 5.407 	1.042 	-0.145
 5.874 	0.812 	-0.089
 6.429 	0.829 	-0.608
 5.776 	0.526 	0.159
 4.755 	0.839 	-0.222
 5.006 	1.066 	-0.431
 5.629 	0.943 	-0.095
 6.185 	0.294 	-0.161
 6.370 	-0.042 	-0.333
 6.655 	-0.147 	-0.375
 6.671 	-0.406 	-0.315
 6.349 	-0.700 	0.254
 6.263 	-0.382 	0.177
 6.307 	0.104 	-0.563
 6.237 	-0.457 	-0.724
 5.470 	1.066 	-0.336
 5.792 	1.026 	-0.375
 5.978 	0.912 	-0.289
 5.861 	0.722 	-0.116
 5.929 	0.719 	-0.125
 5.914 	0.583 	-0.086
 5.828 	0.940 	0.137
 6.148 	0.792 	0.016
 6.333 	0.430 	0.068
 6.583 	0.276 	-0.103
 6.803 	0.302 	-0.340
 6.755 	0.299 	-0.752
 6.869 	-0.118 	-0.131
 6.665 	-0.480 	-0.054
 6.629 	-0.704 	-0.363
 6.458 	-0.848 	-0.777
 4.495 	0.494 	0.144
 4.123 	0.793 	0.203
 4.185 	0.785 	0.067
 4.123 	0.580 	0.224
 4.196 	0.370 	0.298
 4.333 	0.414 	0.470
 4.462 	0.672 	0.420
 4.878 	0.591 	0.629
 5.433 	0.601 	0.511
 6.162 	0.838 	-0.195
 6.661 	0.996 	-0.654
 6.773 	0.489 	-0.687
 6.777 	0.048 	-0.201
 6.380 	-0.720 	-0.282
 6.999 	-0.885 	-0.604
 7.110 	-0.962 	-0.929
 5.103 	0.212 	-0.118
 5.375 	0.339 	-0.065
 5.662 	0.272 	-0.386
 5.862 	0.186 	-0.470
 6.354 	-0.224 	-0.522
 6.457 	0.502 	-0.636
 6.098 	0.631 	-0.255
 5.963 	0.300 	-0.129
 6.063 	0.517 	-0.137
 6.377 	0.573 	-0.488
 6.263 	1.016 	-0.452
 6.707 	0.208 	-0.223
 6.538 	-0.253 	-0.198
 6.716 	-0.358 	-0.619
 7.121 	-0.432 	-0.209
 6.910 	-0.536 	-0.334
 5.896 	0.156 	-0.432
 5.562 	0.124 	-0.201
 5.526 	0.258 	-0.037
 5.789 	-0.207 	0.203
 5.846 	-0.222 	0.370
 6.155 	0.038 	0.157
 6.585 	0.506 	0.093
 6.514 	0.382 	-0.372
 6.702 	0.397 	-0.732
 7.024 	0.574 	-0.781
 6.804 	0.953 	-0.514
 6.616 	-0.505 	-0.061
 6.519 	-0.481 	-0.103
 7.073 	-0.386 	-0.344
 6.195 	-0.045 	0.246
 5.522 	0.011 	0.161
 5.983 	0.308 	-0.533
 6.125 	0.287 	-0.362
 5.652 	-0.464 	-0.052
 5.770 	-0.097 	-0.003
 5.781 	-0.061 	0.026
 6.283 	0.202 	0.164
 6.300 	0.621 	0.169
 6.778 	0.514 	-0.153
 6.678 	0.692 	0.011
 6.552 	0.250 	-0.138
 7.256 	0.306 	-0.213
 6.667 	0.216 	0.129
 6.236 	-0.412 	-0.265
 5.868 	-0.225 	0.186
 5.781 	0.668 	0.129
 5.960 	0.694 	-0.283
 6.216 	0.207 	-0.207
 6.053 	0.032 	0.034
 6.181 	-0.511 	-0.364
 5.344 	-0.132 	0.076
 4.407 	-0.442 	0.764
 3.996 	-0.643 	1.425
 5.633 	0.689 	0.341
 6.292 	0.757 	-0.061
 6.523 	0.856 	-0.185
 6.775 	0.392 	-0.525
 6.436 	0.879 	-0.794
 6.566 	0.728 	0.107
 6.232 	0.182 	-0.164
 5.698 	-0.090 	-0.110
 6.439 	0.305 	0.385
 6.770 	0.395 	-0.045
 6.207 	-0.611 	-0.090
 6.432 	-0.512 	-0.249
 6.548 	-0.933 	-0.062
 5.588 	0.244 	0.170
 5.854 	-0.280 	0.148
 6.847 	-0.031 	-0.040
 5.382 	0.402 	0.024
 5.817 	0.631 	-0.629
 6.168 	0.320 	-0.647
 6.094 	0.205 	-0.556
 5.462 	-0.219 	-0.404
 5.034 	0.316 	-0.024
 4.492 	0.389 	-0.007
 4.111 	-0.558 	0.144
 4.719 	-0.070 	0.079
 5.136 	-0.378 	0.074
 6.612 	-0.307 	-0.215
 6.477 	-0.420 	-0.556
 6.715 	-0.434 	0.317
 6.586 	-0.015 	-0.718
 6.361 	0.373 	-0.189
 5.471 	-0.428 	1.088
 6.199 	-0.307 	-0.221
 5.881 	-0.786 	0.174
 5.899 	-0.534 	-0.200
 4.928 	-0.007 	-0.022
 4.922 	-0.286 	0.038
 4.369 	0.729 	0.466
 4.067 	0.505 	0.092
 4.690 	-0.048 	-0.460
 5.154 	-0.501 	-0.249
 5.104 	-0.544 	-0.128
 6.249 	-0.316 	-0.330
 6.053 	-0.357 	0.037
 6.418 	-0.637 	-0.264
 6.396 	-0.000 	-0.555
 6.880 	0.235 	-0.247
 6.370 	-0.021 	0.669
 6.643 	0.238 	0.097
 6.052 	0.247 	-0.173
 6.027 	0.093 	0.021
 5.004 	-0.824 	0.631
 5.402 	-0.829 	-0.393
 5.232 	0.294 	0.767
 3.857 	0.581 	0.868
 4.449 	-0.160 	-0.442
 4.986 	-0.928 	-0.581
 5.012 	-0.249 	0.129
 5.985 	-0.178 	0.218
 5.851 	-0.054 	-0.333
 5.565 	-0.700 	-0.500
 5.887 	-0.091 	-0.053
 5.788 	0.911 	-0.578
 6.077 	0.593 	0.968
 6.323 	0.178 	-0.135
 6.266 	0.827 	-0.451
 5.111 	0.436 	0.143
 5.463 	-0.710 	0.250
 5.306 	-0.343 	-0.180
 4.550 	0.688 	0.583
 4.247 	0.483 	1.106
 4.304 	-0.033 	-0.272
 3.925 	-0.044 	0.019
 3.868 	-0.475 	0.632
 4.907 	-0.606 	-0.046
 5.218 	-0.393 	-0.069
 5.252 	-0.358 	-0.446
 5.050 	-0.249 	-0.325
 4.969 	1.297 	-0.362
 5.837 	1.257 	0.020
 6.170 	0.466 	-1.070
 5.972 	0.915 	-0.432
 6.114 	0.438 	-0.126
 5.348 	-0.033 	-0.133
 5.111 	0.812 	0.409
 5.190 	0.127 	0.553
 5.749 	-0.243 	0.236
 5.156 	0.308 	-0.555
 4.722 	1.176 	0.243
 4.981 	-0.495 	0.307
 5.841 	-0.426 	-1.103
 6.119 	-0.149 	-0.360
 6.235 	0.250 	0.267
 5.507 	-0.357 	-0.160
 5.658 	0.248 	0.558
 4.896 	1.263 	0.607
 5.006 	1.642 	0.989
 4.413 	0.962 	0.987
 4.406 	0.693 	0.581
 4.564 	0.905 	0.164
 4.870 	1.709 	0.232
 5.166 	0.927 	-0.220
 5.361 	0.408 	-0.449
 5.500 	-0.011 	-0.469
 5.716 	-0.083 	0.380
 5.188 	-0.063 	0.725
 5.577 	-0.599 	0.054
 5.791 	0.339 	-0.349
 5.830 	0.223 	-0.157
 5.148 	-0.001 	-0.182
 4.748 	-0.083 	-0.532
 5.360 	0.945 	0.518
 5.568 	1.320 	0.583
 5.504 	1.237 	0.619
 5.040 	0.580 	-0.127
 4.922 	0.788 	-0.105
 5.354 	0.901 	-0.147
 5.527 	0.604 	-0.091
 5.634 	0.629 	-0.090
 4.997 	0.381 	0.568
 5.229 	-0.428 	0.936
 6.230 	-0.191 	0.187
 7.047 	-0.254 	-0.188
 6.789 	0.099 	-0.307
 5.842 	0.807 	-0.235
 5.553 	0.354 	-0.136
 5.008 	-0.083 	0.043
 5.031 	0.338 	0.207
 5.613 	0.892 	-0.507
 5.472 	1.072 	0.185
 5.884 	0.829 	-0.364
 5.130 	0.871 	-0.252
 4.351 	0.949 	0.130
 4.816 	0.404 	0.123
 5.224 	0.349 	0.402
 5.005 	0.222 	-0.026
 5.465 	0.091 	1.042
 5.385 	-0.471 	1.096
 7.603 	0.366 	-0.552
 7.071 	0.267 	-0.390
 6.202 	0.798 	-0.378
 5.810 	0.426 	-0.467
 6.070 	-0.163 	-0.281
 5.920 	-0.427 	-0.314
 5.369 	0.636 	0.353
 5.430 	1.022 	-0.118
 4.978 	0.923 	-0.022
 4.989 	1.223 	-0.215
 5.684 	0.628 	-0.185
 5.826 	0.137 	0.169
 5.292 	-0.107 	0.177
 5.382 	0.123 	0.049
 5.408 	-0.263 	-0.415
 5.648 	-0.409 	0.299
 6.884 	0.353 	-0.483
 6.567 	0.453 	-0.240
 6.568 	0.499 	-0.233
 6.516 	0.421 	-0.001
 5.967 	0.244 	0.085
 6.128 	0.146 	-0.445
 5.747 	0.615 	0.139
 5.303 	1.288 	-0.048
 5.836 	1.196 	-0.585
 6.409 	0.815 	-0.750
 7.217 	0.024 	-0.831
 7.415 	0.215 	-0.476
 6.848 	-0.085 	0.047
 6.516 	-0.171 	0.291
 6.359 	-0.634 	-0.032
 6.090 	-0.175 	-0.224
 6.784 	0.717 	-0.627
 6.910 	0.694 	-0.327
 6.393 	0.167 	-0.052
 6.057 	0.197 	0.121
 6.068 	0.089 	0.177
 6.217 	0.122 	-0.134
 6.526 	0.297 	-0.188
 6.779 	0.728 	0.016
 6.688 	0.573 	-0.099
 6.736 	-0.046 	-0.398
 6.971 	-0.404 	-0.513
 7.088 	0.248 	-0.591
 7.250 	0.192 	-0.442
 7.017 	-0.105 	0.131
 7.063 	-0.808 	-0.033
 6.955 	-0.738 	-0.556
 5.520 	0.212 	0.171
 5.946 	0.431 	0.163
 5.849 	0.555 	0.102
 5.941 	0.375 	0.075
 6.120 	0.052 	0.035
 6.216 	0.009 	0.168
 6.679 	0.450 	0.142
 6.876 	0.649 	0.215
 6.650 	0.927 	-0.116
 6.393 	-0.026 	-0.660
 6.124 	-0.406 	-1.082
 6.409 	-0.142 	-0.939
 6.628 	0.020 	-0.109
 6.836 	-0.302 	-0.144
 6.396 	-1.180 	-0.368
 6.804 	-0.886 	-0.770
 5.765 	0.215 	-0.109
 5.836 	-0.049 	-0.058
 6.228 	0.071 	-0.096
 6.203 	0.230 	-0.148
 6.480 	-0.176 	-0.183
 6.436 	0.230 	-0.025
 6.672 	0.682 	0.078
 7.137 	0.820 	0.029
 7.166 	1.048 	-0.325
 6.902 	0.096 	-0.330
 6.423 	-0.017 	-0.012
 6.279 	0.015 	-0.076
 6.482 	-0.203 	-0.371
 6.849 	-0.729 	-0.587
 6.566 	-0.967 	-0.439
 6.369 	-0.895 	-0.347
 5.944 	0.396 	-0.358
 5.820 	-0.144 	-0.212
 5.983 	-0.345 	0.008
 6.360 	-0.151 	-0.021
 6.617 	-0.559 	-0.003
 6.729 	-0.097 	-0.060
 6.602 	0.299 	-0.003
 6.581 	0.716 	-0.306
 6.796 	0.941 	-0.116
 6.811 	0.058 	-0.244
 6.901 	-0.219 	0.016
 6.722 	0.395 	0.327
 6.555 	-0.578 	-0.161
 6.572 	-0.480 	-0.175
 6.450 	-0.731 	-0.465
 6.326 	-0.668 	0.131
 5.969 	0.177 	-0.492
 5.160 	-0.355 	0.077
 5.307 	-0.452 	0.236
 5.506 	-0.320 	0.273
 6.012 	-0.292 	0.268
 6.087 	-0.008 	0.041
 6.161 	0.247 	0.062
 6.179 	0.556 	0.042
 6.327 	-0.171 	-0.243
 6.941 	-0.492 	-0.488
 7.220 	0.180 	-0.452
 6.821 	0.053 	-0.256
 6.170 	-0.278 	-0.209
 6.115 	-0.601 	-0.007
 6.229 	-0.285 	0.222
 6.295 	0.011 	-0.141
 5.279 	-0.422 	0.364
 5.929 	-0.679 	0.313
 6.041 	-0.761 	0.180
 5.801 	-0.664 	0.137
 5.865 	-0.417 	0.210
 6.184 	-0.424 	0.900
 6.465 	-0.697 	0.505
 6.364 	0.059 	0.224
 6.556 	-0.639 	-0.453
 6.660 	-0.444 	-0.766
 5.963 	0.165 	-0.209
 6.102 	0.152 	0.153
 5.186 	-0.143 	0.379
 4.637 	-0.946 	-0.063
 5.097 	-0.268 	-0.065
 5.317 	-0.121 	-0.074
 6.486 	-0.695 	-0.271
 6.689 	-0.841 	-0.210
 6.621 	-0.454 	0.009
 6.479 	-0.682 	0.161
 6.555 	0.047 	-0.323
 5.811 	-0.314 	0.238
 6.368 	-0.487 	0.340
 6.080 	-0.410 	0.149
 6.514 	-0.310 	-0.420
 6.413 	0.357 	-0.412
 5.529 	-0.020 	0.534
 4.727 	0.114 	0.479
 4.934 	-0.057 	0.163
 5.429 	-0.188 	-0.443
 5.046 	-1.054 	0.498
 4.950 	-1.262 	0.765
 6.061 	-0.813 	-0.188
 6.331 	-0.841 	-0.393
 6.924 	-0.470 	-0.429
 6.515 	0.084 	-0.068
 5.886 	0.562 	-0.018
 5.867 	0.034 	0.127
 6.053 	-0.151 	0.451
 5.844 	-0.374 	-0.243
 6.036 	-0.271 	0.288
 5.546 	0.419 	0.308
 5.034 	0.170 	0.802
 5.238 	0.315 	0.446
 5.298 	0.341 	-0.139
 5.135 	0.191 	-0.556
 5.182 	-0.560 	-0.218
 5.162 	-1.264 	0.131
 5.702 	-0.819 	-0.197
 5.650 	-1.045 	-0.580
 5.986 	-0.950 	-0.149
 6.358 	0.025 	-0.351
 6.466 	0.314 	-0.066
 6.431 	0.121 	0.160
 5.841 	0.518 	0.141
 6.109 	-0.613 	-0.040
 5.804 	0.491 	0.532
 5.359 	0.976 	-0.120
 4.523 	-0.505 	0.372
 4.723 	0.492 	0.890
 5.558 	0.141 	0.027
 5.622 	-0.324 	-0.318
 6.061 	-0.385 	-0.439
 6.369 	-0.494 	-0.321
 5.373 	-0.906 	-0.130
 5.622 	-0.857 	-0.202
 5.211 	-0.942 	-0.316
 5.656 	-0.328 	-0.240
 5.850 	0.048 	-0.428
 6.193 	0.007 	-0.173
 6.620 	0.183 	-0.277
 6.512 	0.321 	-0.089
 6.275 	0.624 	-0.007
 6.355 	0.835 	0.145
 5.713 	0.263 	0.395
 5.090 	0.612 	1.173
 6.404 	0.014 	0.430
 6.343 	-0.070 	-0.096
 5.822 	0.113 	0.203
 4.714 	0.416 	0.261
 4.707 	-1.043 	0.022
 4.932 	-0.697 	-0.078
 5.064 	-0.563 	-0.491
 5.058 	-0.554 	-0.132
 4.885 	-0.491 	-0.319
 5.166 	-0.252 	-0.630
 5.668 	0.104 	-0.816
 6.176 	0.563 	-0.491
 6.522 	0.699 	-0.355
 6.611 	0.666 	-0.122
 6.782 	0.425 	0.097
 6.841 	0.022 	0.333
 6.832 	-0.086 	0.130
 6.280 	0.083 	-0.072
 6.007 	0.422 	-0.099
 6.066 	0.846 	-0.208
 6.264 	0.412 	-0.427
 6.109 	-0.120 	0.093
 5.879 	-0.187 	0.188
 5.892 	0.079 	-0.022
 5.317 	-0.076 	-0.122
 5.966 	0.188 	0.743
 5.559 	0.810 	0.718
 5.775 	1.707 	1.086
 5.829 	0.588 	0.832
 5.742 	1.000 	0.591
 6.018 	1.718 	-0.025
 6.120 	1.290 	0.025
 5.780 	0.591 	-0.325
 5.680 	0.628 	-0.457
 5.636 	0.510 	-0.147
 5.639 	0.235 	0.320
 6.002 	-0.494 	0.124
 6.709 	-0.290 	-0.460
 6.348 	0.305 	-0.207
 5.662 	0.240 	-0.168
 5.062 	0.158 	-0.150
 4.971 	0.250 	0.447
 5.793 	0.599 	0.848
 6.208 	1.235 	1.035
 6.089 	0.828 	0.526
 5.284 	0.763 	0.405
 5.488 	1.441 	0.286
 5.417 	0.901 	-0.007
 5.305 	0.224 	0.225
 5.739 	0.552 	0.508
 5.782 	0.730 	0.500
 5.396 	0.992 	0.817
 6.778 	-0.511 	-0.613
 6.413 	-0.000 	-0.037
 6.044 	0.975 	-0.148
 5.181 	0.363 	0.209
 5.289 	0.502 	0.269
 5.626 	0.013 	0.315
 5.500 	0.198 	0.175
 5.735 	0.537 	0.128
 5.771 	0.819 	-0.129
 5.410 	0.516 	-0.038
 5.055 	1.198 	0.084
 5.176 	0.681 	0.657
 5.285 	-0.164 	0.628
 5.102 	-0.196 	0.627
 5.240 	0.084 	0.702
 5.557 	0.562 	0.707
 6.634 	0.017 	-0.541
 6.209 	0.646 	0.066
 5.854 	0.699 	0.074
 5.786 	0.176 	-0.170
 6.411 	0.501 	-0.559
 6.516 	0.346 	-0.519
 6.470 	-0.223 	0.292
 6.177 	0.202 	-0.140
 5.664 	0.664 	-0.009
 5.947 	0.625 	0.137
 5.825 	0.802 	0.037
 5.873 	0.569 	0.159
 6.216 	0.195 	0.160
 6.343 	-0.246 	0.478
 6.054 	-0.283 	0.307
 6.107 	-0.118 	0.337
 7.091 	0.003 	-0.642
 6.626 	0.500 	-0.063
 6.615 	0.579 	0.207
 6.556 	0.128 	0.328
 6.580 	0.004 	0.118
 6.587 	-0.000 	-0.158
 6.737 	0.113 	0.003
 7.089 	0.087 	0.093
 7.107 	0.531 	-0.312
 6.781 	1.002 	-0.229
 7.090 	0.328 	-0.407
 6.430 	0.671 	-0.513
 6.573 	0.252 	-0.138
 6.970 	-0.067 	0.363
 7.249 	-0.063 	0.156
 6.969 	-0.782 	0.169
 6.912 	0.004 	-0.660
 6.696 	0.569 	-0.324
 6.786 	0.455 	0.291
 6.764 	-0.018 	0.478
 7.017 	-0.299 	-0.021
 7.419 	-0.112 	-0.275
 7.439 	0.161 	-0.247
 6.958 	0.170 	0.000
 6.647 	0.246 	-0.008
 6.718 	0.252 	-0.461
 7.080 	0.159 	-0.610
 7.095 	0.686 	-0.441
 7.211 	0.242 	-0.104
 7.189 	-0.122 	-0.132
 7.582 	-0.122 	0.018
 7.135 	-0.386 	0.082
 6.189 	0.457 	0.059
 6.385 	0.888 	0.143
 6.916 	0.548 	0.086
 6.992 	-0.005 	-0.101
 7.205 	-0.133 	-0.336
 7.370 	0.039 	-0.092
 6.948 	0.340 	-0.186
 6.564 	0.680 	0.009
 6.579 	0.375 	-0.074
 6.546 	-0.365 	-0.100
 6.598 	-0.585 	-0.058
 6.767 	-0.256 	-0.042
 7.035 	-0.290 	-0.009
 7.344 	-0.077 	-0.002
 7.317 	-0.442 	0.074
 7.186 	-0.307 	-0.376
 6.460 	0.641 	-0.312
 6.576 	0.561 	-0.280
 6.849 	0.401 	-0.170
 7.016 	0.160 	-0.406
 6.684 	0.053 	-0.020
 6.367 	0.250 	0.356
 6.299 	0.570 	0.081
 6.501 	0.612 	-0.148
 7.033 	-0.100 	-0.226
 6.817 	-0.490 	-0.331
 6.857 	-0.729 	-0.116
 6.933 	-0.618 	-0.237
 7.145 	-0.434 	-0.388
 7.225 	-0.553 	-0.401
 7.510 	-0.623 	-0.294
 7.137 	-0.802 	-0.314
 6.117 	0.275 	-0.544
 6.416 	0.543 	-0.111
 6.625 	0.355 	0.042
 6.588 	0.366 	-0.057
 6.794 	0.341 	0.177
 6.934 	0.079 	0.111
 6.992 	0.165 	0.186
 6.770 	0.105 	0.067
 6.771 	-0.090 	-0.075
 6.922 	-0.140 	-0.563
 6.974 	-0.310 	-0.364
 7.106 	-0.368 	-0.025
 7.492 	-0.250 	-0.348
 7.556 	-0.483 	-0.452
 7.739 	-0.441 	-0.211
 7.040 	-0.633 	-0.218
 6.190 	0.517 	0.312
 6.118 	0.263 	0.519
 6.196 	0.096 	0.371
 5.958 	-0.303 	0.561
 5.981 	-0.295 	0.552
 6.148 	-0.009 	0.349
 6.254 	0.006 	0.164
 6.406 	0.013 	0.027
 6.574 	-0.184 	-0.132
 6.892 	-0.540 	-0.418
 7.242 	-0.422 	-0.701
 7.497 	-0.134 	-0.421
 7.390 	-0.086 	-0.157
 6.856 	-0.159 	0.133
 6.468 	-0.269 	0.019
 6.433 	-0.459 	-0.126
 5.317 	0.366 	0.568
 5.464 	0.061 	0.175
 6.115 	-0.381 	-0.027
 6.772 	-0.586 	-0.139
 6.486 	-0.572 	0.052
 5.797 	-0.269 	0.526
 6.123 	-0.059 	0.564
 6.532 	-0.229 	0.095
 6.958 	-0.647 	-0.278
 6.826 	-0.801 	-0.762
 6.130 	-0.253 	0.158
 5.973 	0.125 	0.634
 5.474 	0.011 	0.517
 5.575 	-0.325 	0.233
 5.853 	-0.503 	-0.027
 6.156 	-0.863 	-0.202
 6.271 	-0.181 	0.086
 6.639 	-0.763 	-0.001
 6.747 	-1.035 	-0.229
 6.999 	-0.783 	-0.200
 7.175 	-0.395 	-0.435
 7.273 	-0.039 	0.098
 6.925 	-0.085 	0.179
 7.542 	-0.235 	0.046
 6.639 	-0.558 	-0.356
 5.910 	0.138 	-0.212
 5.504 	0.033 	0.983
 5.318 	0.009 	0.522
 5.720 	0.051 	-0.056
 5.674 	-0.178 	-0.094
 4.468 	0.017 	0.294
 4.306 	-0.668 	1.081
 6.613 	-0.859 	0.007
 6.726 	-0.956 	-0.292
 6.900 	-0.952 	-0.372
 6.720 	-0.609 	-0.196
 6.709 	-0.120 	0.282
 7.137 	0.044 	-0.037
 6.795 	-0.067 	0.512
 6.102 	-0.260 	-0.212
 5.730 	0.055 	-0.163
 5.588 	0.545 	0.896
 5.737 	0.046 	0.348
 6.498 	-0.238 	-0.005
 6.870 	-0.156 	-0.413
 6.507 	-0.134 	-0.249
 6.378 	0.113 	-0.260
 6.207 	-0.081 	-0.507
 6.975 	-0.893 	-0.212
 6.830 	-0.708 	-0.421
 6.496 	-0.968 	-0.119
 6.147 	-0.570 	-0.221
 6.248 	-0.227 	0.189
 7.044 	-0.179 	0.199
 6.538 	0.265 	0.583
 6.102 	-0.079 	-0.038
 5.925 	-0.167 	-0.234
 6.143 	0.942 	0.650
 6.340 	0.249 	-0.109
 6.202 	-0.062 	0.740
 6.776 	-0.012 	-0.052
 6.380 	-0.349 	-0.091
 5.974 	-0.583 	-0.382
 6.445 	-0.596 	-0.407
 6.266 	-0.480 	-0.137
 6.333 	-0.413 	-0.119
 6.273 	-1.141 	0.124
 6.015 	-0.319 	-0.203
 5.752 	-0.244 	-0.606
 5.619 	-0.169 	-0.434
 6.089 	0.266 	-0.110
 6.399 	-0.181 	-0.511
 6.548 	0.337 	-0.199
 6.777 	0.576 	0.089
 6.941 	0.337 	0.083
 7.106 	0.008 	0.457
 7.086 	0.033 	0.245
 6.529 	-0.275 	0.396
 6.158 	-0.699 	-0.003
 6.305 	-0.708 	-0.176
 6.534 	-0.200 	-0.187
 6.972 	-0.294 	-0.359
 7.058 	-0.412 	-0.398
 6.271 	-1.138 	0.109
 5.917 	-0.098 	-0.146
 6.064 	-0.192 	-0.668
 6.279 	-0.257 	-0.690
 6.380 	-0.545 	-0.641
 6.145 	-0.590 	-0.505
 6.897 	0.410 	-0.098
 6.714 	0.397 	0.479
 6.277 	-0.177 	0.478
 6.108 	-0.392 	0.296
 6.276 	-0.335 	0.179
 6.505 	-0.557 	0.164
 6.321 	-0.647 	-0.418
 6.395 	-0.442 	0.003
 6.891 	0.182 	0.033
 6.854 	0.494 	0.300
 7.092 	0.514 	-0.191
 5.861 	0.045 	0.102
 5.678 	-0.301 	-0.223
 6.110 	0.122 	0.387
 6.242 	0.900 	0.388
 6.261 	0.983 	1.058
 6.475 	1.038 	0.685
 6.501 	1.552 	0.386
 6.493 	1.507 	0.468
 6.544 	1.091 	-0.018
 6.174 	0.660 	-0.177
 6.065 	0.400 	0.009
 6.110 	0.051 	-0.010
 6.900 	-0.073 	-0.413
 6.647 	-0.386 	0.062
 6.905 	0.216 	-0.177
 6.271 	0.437 	0.202
 5.903 	0.488 	0.129
 5.455 	0.058 	0.154
 5.507 	0.439 	0.772
 5.779 	0.873 	1.090
 5.925 	0.611 	1.030
 5.510 	0.800 	0.587
 5.733 	1.543 	0.623
 5.639 	1.280 	0.149
 5.551 	0.558 	0.441
 5.845 	0.175 	0.762
 5.893 	-0.009 	0.978
 6.213 	-0.481 	0.163
 6.986 	0.121 	-0.512
 6.663 	-0.161 	0.000
 6.658 	0.345 	-0.016
 6.758 	1.036 	0.209
 5.895 	0.645 	-0.076
 5.366 	0.877 	-0.012
 5.513 	0.114 	0.299
 5.862 	0.227 	0.370
 5.788 	0.284 	0.285
 5.810 	0.688 	0.351
 5.302 	1.052 	0.242
 5.054 	1.299 	0.836
 5.161 	0.523 	0.352
 5.420 	-0.238 	0.878
 5.780 	-0.326 	1.065
 6.168 	-0.383 	1.170
 7.071 	0.289 	-0.394
 6.382 	0.332 	0.437
 6.152 	0.469 	0.035
 6.358 	0.822 	0.082
 6.562 	0.765 	-0.105
 6.329 	0.754 	-0.128
 6.566 	0.385 	0.142
 6.614 	0.240 	-0.036
 6.330 	0.219 	0.135
 5.872 	0.901 	0.219
 5.806 	1.126 	0.360
 6.239 	0.787 	0.370
 5.659 	0.759 	-0.256
 5.857 	-0.060 	0.073
 6.087 	-0.499 	0.417
 6.043 	-0.517 	0.718
 6.815 	0.499 	-0.164
 6.565 	0.702 	0.401
 6.568 	0.535 	0.398
 6.498 	0.317 	0.419
 6.606 	0.315 	0.337
 6.818 	0.305 	0.089
 6.950 	0.242 	-0.042
 6.871 	0.072 	0.182
 7.229 	0.626 	-0.032
 6.728 	0.707 	-0.062
 6.627 	0.837 	-0.011
 6.269 	1.010 	-0.280
 6.190 	0.766 	-0.413
 6.526 	0.018 	-0.094
 6.640 	-0.467 	-0.021
 6.570 	-0.629 	0.638
 7.341 	0.484 	-0.542
 7.056 	0.453 	-0.019
 7.126 	0.575 	0.286
 7.339 	0.319 	0.319
 7.251 	0.186 	-0.313
 7.383 	0.228 	-0.281
 7.290 	0.239 	-0.023
 7.046 	0.067 	0.032
 6.892 	0.423 	0.227
 7.221 	0.891 	-0.104
 6.957 	0.973 	-0.076
 6.554 	1.130 	-0.363
 6.869 	0.584 	-0.164
 6.956 	0.100 	-0.226
 6.967 	-0.313 	-0.141
 7.185 	-0.511 	0.079
 6.702 	0.006 	-0.140
 6.843 	0.141 	-0.314
 7.265 	0.271 	-0.204
 7.447 	0.321 	-0.439
 7.381 	0.072 	-0.397
 7.366 	0.039 	-0.259
 7.234 	0.307 	-0.096
 6.969 	0.410 	0.102
 6.830 	0.518 	0.045
 6.759 	0.829 	-0.161
 6.735 	1.012 	-0.149
 6.891 	0.973 	-0.016
 7.126 	0.601 	-0.425
 7.205 	0.184 	-0.284
 7.205 	-0.131 	-0.062
 7.322 	-0.169 	-0.117
 6.528 	-0.276 	-0.281
 6.626 	-0.017 	-0.220
 6.697 	0.129 	-0.284
 6.874 	0.287 	-0.316
 6.670 	0.064 	0.011
 6.380 	0.106 	0.452
 6.551 	0.103 	0.223
 6.788 	0.441 	0.006
 6.743 	0.479 	0.063
 6.543 	0.916 	-0.055
 6.574 	0.902 	-0.217
 6.754 	0.671 	-0.231
 7.194 	0.032 	-0.278
 7.400 	-0.113 	-0.061
 7.437 	-0.309 	0.110
 7.248 	-0.338 	0.083
 6.076 	-0.114 	-0.594
 6.211 	0.060 	-0.038
 6.227 	0.354 	-0.004
 6.111 	0.251 	0.001
 6.442 	0.216 	0.250
 6.722 	-0.290 	0.488
 6.942 	-0.334 	0.468
 6.864 	0.096 	0.361
 6.784 	0.186 	0.054
 6.849 	0.231 	-0.025
 6.909 	0.297 	-0.001
 7.262 	0.007 	-0.036
 7.484 	-0.340 	-0.237
 7.441 	-0.650 	-0.185
 7.366 	-0.714 	-0.300
 7.361 	-0.288 	-0.062
 5.372 	-0.003 	0.557
 5.900 	0.213 	0.754
 5.993 	0.202 	0.842
 6.125 	0.043 	0.944
 6.139 	-0.547 	1.029
 6.481 	-0.856 	0.715
 6.863 	-0.685 	0.292
 6.966 	-0.295 	0.109
 7.000 	-0.152 	-0.039
 7.248 	-0.594 	-0.111
 7.539 	-0.631 	-0.102
 7.539 	-0.544 	-0.136
 7.098 	-0.469 	-0.128
 7.028 	-0.518 	-0.275
 7.118 	-0.646 	-0.173
 7.139 	-0.560 	-0.151
 5.474 	-0.183 	0.128
 6.071 	-0.242 	0.159
 6.674 	-0.269 	0.140
 6.984 	-0.445 	-0.053
 6.899 	-0.487 	0.054
 6.991 	-0.596 	0.225
 7.131 	-0.755 	0.125
 7.312 	-0.579 	-0.075
 7.421 	-0.513 	-0.333
 7.076 	-0.936 	0.035
 6.676 	-0.531 	0.331
 6.250 	-0.309 	0.453
 6.450 	-0.416 	0.126
 6.738 	-0.556 	0.032
 7.104 	-0.355 	-0.126
 7.113 	-0.323 	-0.111
 6.823 	-0.746 	0.396
 7.007 	-1.033 	0.041
 6.888 	-0.747 	-0.253
 6.760 	-0.280 	-0.365
 6.790 	-0.096 	-0.446
 6.948 	-0.211 	-0.229
 7.160 	-0.351 	-0.047
 7.169 	-0.511 	-0.016
 7.090 	-0.648 	0.131
 6.766 	-0.203 	0.021
 5.860 	0.015 	0.676
 6.142 	-0.086 	0.526
 6.850 	-0.704 	0.193
 6.632 	-0.891 	-0.004
 6.606 	-0.703 	0.190
 7.084 	-0.392 	0.076
 7.255 	-0.821 	0.118
 7.054 	-0.853 	-0.150
 6.831 	-0.907 	-0.197
 6.730 	-0.698 	-0.183
 6.695 	-0.574 	-0.068
 6.814 	-0.273 	-0.260
 7.061 	-0.154 	0.241
 6.907 	-0.034 	0.273
 6.479 	-0.352 	0.375
 6.193 	0.016 	0.360
 6.811 	-0.062 	0.128
 6.871 	-0.609 	-0.046
 6.464 	-0.859 	-0.106
 6.219 	-0.760 	-0.103
 6.415 	-0.816 	-0.031
 6.624 	-0.605 	0.230
 7.057 	-1.191 	-0.296
 6.693 	-0.714 	-0.230
 6.535 	-0.851 	0.169
 6.434 	-0.793 	-0.044
 6.237 	-0.697 	-0.011
 6.386 	-0.304 	0.116
 6.618 	-0.141 	0.464
 6.744 	0.063 	0.124
 6.460 	-0.038 	0.314
 6.895 	-0.197 	0.397
 6.929 	-0.465 	-0.098
 6.800 	-0.464 	-0.005
 6.431 	-0.642 	0.163
 6.385 	-0.960 	0.135
 6.666 	-1.178 	-0.190
 6.797 	-1.134 	-0.225
 6.857 	-1.133 	-0.282
 6.473 	-0.393 	-0.081
 6.148 	-0.856 	0.315
 6.719 	-1.143 	0.015
 6.821 	-0.540 	-0.243
 6.746 	-0.646 	-0.554
 6.495 	-0.392 	-0.358
 6.242 	-0.091 	-0.231
 6.425 	-0.355 	-0.061
 6.622 	-0.723 	-0.208
 6.428 	-0.533 	0.235
 6.551 	-0.422 	0.673
 6.571 	-0.388 	0.852
 6.621 	-1.247 	0.498
 6.977 	-1.345 	-0.013
 7.289 	-1.143 	-0.497
 6.792 	-1.126 	-0.114
 6.927 	-0.841 	-0.250
 7.393 	-0.704 	-0.381
 7.334 	-1.112 	0.303
 7.402 	-0.647 	-0.101
 7.420 	-0.568 	-0.516
 7.451 	-0.665 	-0.395
 7.314 	-0.079 	-0.561
 6.665 	-0.491 	0.028
 5.863 	-1.034 	0.034
 5.856 	-0.720 	0.521
 6.126 	-0.530 	0.531
 6.699 	-0.774 	0.500
 7.417 	-1.078 	-0.208
 7.551 	-1.211 	-0.163
 7.644 	-1.234 	-0.362
 6.765 	-0.104 	0.067
 6.835 	-0.036 	0.332
 7.248 	0.421 	0.107
 7.339 	0.684 	0.596
 7.306 	0.780 	0.285
 6.584 	0.164 	-0.016
 6.752 	-0.139 	-0.018
 6.432 	0.305 	0.400
 6.307 	0.985 	1.146
 6.522 	1.215 	0.832
 6.798 	1.336 	0.338
 6.979 	1.306 	0.158
 6.743 	1.025 	0.167
 6.415 	0.887 	0.469
 6.514 	0.475 	0.368
 6.404 	0.238 	0.168
 7.538 	-0.306 	-0.407
 6.965 	0.115 	0.157
 7.155 	0.161 	0.397
 6.834 	0.427 	0.562
 6.534 	0.725 	0.130
 5.504 	0.497 	0.251
 5.409 	-0.041 	0.434
 5.729 	0.530 	1.014
 6.170 	0.729 	0.971
 5.900 	1.014 	0.829
 5.534 	1.188 	0.786
 5.653 	1.224 	0.740
 5.705 	1.025 	0.696
 5.580 	0.813 	0.695
 5.792 	0.425 	0.749
 5.897 	0.221 	0.426
 7.667 	-0.033 	-0.658
 7.630 	0.519 	0.107
 6.831 	-0.058 	0.006
 6.852 	0.479 	0.392
 7.092 	0.437 	0.115
 5.854 	0.920 	0.228
 5.124 	0.603 	0.284
 5.187 	0.227 	0.550
 5.471 	0.178 	0.672
 5.964 	0.772 	0.647
 5.769 	1.039 	0.654
 5.568 	1.252 	0.801
 5.439 	1.494 	0.558
 5.369 	0.968 	0.502
 5.388 	0.666 	0.461
 6.199 	0.016 	0.453
 7.429 	0.184 	-0.317
 7.409 	0.414 	0.294
 7.146 	0.323 	0.324
 6.591 	0.301 	0.281
 6.392 	0.197 	0.334
 6.524 	0.956 	0.174
 6.685 	0.704 	-0.069
 6.823 	0.464 	-0.099
 6.366 	0.449 	0.240
 5.900 	0.755 	0.366
 5.931 	0.907 	0.353
 5.854 	1.506 	0.376
 5.865 	1.018 	0.072
 5.482 	1.101 	-0.272
 5.924 	0.525 	0.253
 6.509 	-0.160 	0.262
 7.249 	0.483 	0.061
 7.062 	0.524 	0.309
 6.697 	0.671 	0.534
 6.506 	0.549 	0.476
 6.749 	0.152 	0.220
 6.941 	0.263 	0.262
 6.925 	0.299 	0.241
 6.858 	0.269 	0.157