# vtk DataFile Version 3.0
HighT1
ASCII
DATASET STRUCTURED_POINTS
DIMENSIONS 16 16 19
ORIGIN 929.001000000000 929.001000000000 5.001000000000
SPACING 10.000000000000 10.000000000000 10.000000000000
POINT_DATA 4864
 FIELD attributes 1
U 3 4864 float
4.376 	0.162 	-0.825
 4.311 	0.208 	0.180
 4.380 	0.434 	-0.159
 5.372 	1.309 	0.161
 5.106 	1.088 	0.060
 5.217 	1.065 	0.426
 5.047 	1.437 	0.341
 3.947 	0.158 	0.157
 4.197 	-0.257 	-0.037
 4.843 	1.228 	0.251
 4.175 	0.721 	-0.012
 4.173 	1.302 	0.320
 4.279 	0.919 	0.702
 4.255 	0.129 	0.074
 4.010 	-0.342 	0.255
 4.101 	-0.253 	0.069
 3.487 	0.487 	-0.444
 3.932 	-0.064 	0.373
 3.514 	0.612 	0.344
 2.437 	-0.064 	0.603
 2.899 	-0.123 	0.097
 3.192 	0.048 	0.323
 4.137 	-0.417 	0.334
 4.135 	-0.512 	-0.086
 4.130 	-0.259 	-0.546
 4.264 	0.972 	-0.017
 4.742 	1.235 	-0.034
 4.679 	1.512 	-0.444
 5.310 	1.041 	-0.142
 4.939 	0.711 	-0.308
 4.959 	-0.751 	0.176
 5.418 	0.121 	-0.339
 4.412 	1.120 	-0.598
 4.216 	0.344 	0.098
 4.275 	-0.071 	-0.062
 4.160 	0.205 	-0.206
 3.472 	0.113 	0.116
 2.963 	0.296 	0.309
 2.427 	0.118 	0.235
 2.396 	-0.141 	0.383
 2.910 	0.531 	0.121
 3.271 	0.968 	-0.142
 4.145 	1.543 	0.095
 4.267 	1.387 	0.046
 4.584 	0.843 	-0.334
 5.065 	0.675 	0.061
 3.795 	0.016 	0.261
 3.134 	0.047 	0.114
 4.084 	0.187 	-0.210
 3.787 	0.686 	0.009
 3.780 	-0.167 	-0.123
 3.860 	-0.009 	-0.152
 3.834 	0.788 	-0.359
 4.148 	-0.166 	0.060
 3.755 	0.307 	-0.212
 3.059 	-0.342 	-0.161
 3.298 	0.230 	0.330
 3.068 	0.289 	-0.109
 2.914 	0.206 	0.230
 3.436 	0.958 	-0.160
 2.686 	0.547 	0.558
 2.634 	0.087 	0.468
 2.925 	-0.769 	0.395
 3.405 	-0.381 	-0.262
 3.365 	0.076 	0.408
 3.745 	0.605 	-0.009
 4.282 	-0.618 	-0.259
 3.744 	-0.280 	0.174
 2.946 	0.044 	0.408
 3.268 	-0.037 	0.129
 3.035 	0.262 	-0.060
 3.111 	-0.283 	0.001
 2.974 	-0.064 	-0.006
 2.866 	-0.008 	0.089
 3.358 	-0.064 	0.039
 3.007 	0.613 	0.202
 3.091 	-0.215 	0.093
 3.037 	-0.279 	-0.151
 2.994 	-0.510 	-0.240
 3.085 	0.455 	-0.072
 4.527 	-0.289 	-0.083
 4.871 	-0.072 	-0.020
 4.726 	-0.216 	-0.416
 3.940 	0.250 	0.122
 3.976 	0.178 	-0.021
 3.646 	-0.573 	0.119
 3.643 	-0.110 	0.199
 3.822 	0.400 	-0.101
 4.021 	-0.059 	0.111
 3.460 	-0.460 	0.176
 3.184 	-0.805 	0.034
 3.667 	0.520 	-0.042
 3.597 	-0.184 	0.108
 3.730 	0.257 	-0.122
 3.293 	-0.333 	-0.119
 2.981 	-0.124 	0.356
 4.323 	0.190 	0.002
 4.226 	-0.273 	0.011
 4.482 	-0.569 	-0.057
 4.889 	0.196 	-0.010
 5.183 	0.420 	-0.286
 4.638 	-0.000 	0.023
 4.860 	-0.509 	-0.213
 4.804 	0.171 	-0.242
 4.732 	0.512 	-0.022
 4.291 	-0.114 	0.128
 2.889 	-0.547 	0.489
 3.490 	0.148 	0.049
 3.846 	0.219 	-0.217
 3.512 	-0.089 	0.160
 3.828 	0.413 	-0.143
 4.584 	0.225 	-0.212
 3.824 	-0.362 	-0.262
 4.444 	-0.098 	-0.380
 4.564 	0.255 	-0.092
 4.630 	0.178 	-0.312
 4.828 	0.810 	-0.141
 4.643 	0.465 	-0.078
 3.283 	-0.636 	0.174
 3.866 	-0.317 	-0.377
 5.113 	0.673 	-0.585
 5.005 	0.481 	-0.503
 4.600 	0.575 	0.042
 3.298 	0.259 	0.176
 3.538 	0.497 	-0.421
 3.821 	-0.379 	-0.352
 3.909 	-0.303 	-0.382
 4.148 	0.015 	-0.224
 2.482 	-0.361 	0.172
 3.139 	-0.185 	0.535
 3.769 	0.376 	-0.032
 3.943 	0.461 	0.317
 4.512 	0.718 	0.188
 4.182 	1.020 	0.242
 4.211 	0.389 	-0.365
 3.663 	-0.245 	0.624
 2.760 	0.338 	0.733
 3.390 	1.382 	0.060
 3.825 	0.952 	-0.046
 4.050 	0.540 	-0.149
 4.462 	0.640 	-0.400
 4.583 	0.057 	-0.281
 4.014 	-0.286 	-0.036
 3.805 	-0.225 	0.091
 3.510 	-0.744 	-0.096
 3.631 	-0.504 	0.245
 3.529 	0.073 	-0.019
 3.707 	-0.067 	0.297
 4.041 	0.191 	0.042
 4.050 	0.139 	-0.205
 4.165 	0.188 	0.194
 3.967 	0.049 	-0.148
 4.427 	0.611 	-0.240
 3.382 	0.558 	0.295
 4.079 	1.042 	-0.016
 4.509 	1.100 	-0.495
 4.279 	0.589 	-0.044
 4.399 	0.779 	0.121
 3.499 	0.019 	0.151
 3.010 	-0.206 	0.353
 4.950 	-0.573 	-0.172
 4.184 	-0.392 	0.212
 3.669 	-0.295 	0.018
 3.974 	-0.300 	-0.571
 3.464 	-0.258 	0.405
 3.623 	-0.394 	0.038
 3.489 	-0.261 	0.101
 3.979 	0.334 	-0.214
 4.241 	0.865 	-0.096
 4.707 	0.680 	-0.108
 4.336 	0.097 	0.057
 4.044 	1.025 	0.223
 4.185 	0.972 	-0.199
 4.191 	0.516 	-0.060
 4.330 	0.566 	-0.016
 3.771 	0.377 	0.133
 4.300 	0.094 	-0.027
 3.996 	-0.149 	0.349
 4.469 	0.487 	-0.618
 3.219 	-0.193 	0.178
 3.266 	-0.032 	0.088
 2.567 	-0.751 	0.374
 3.169 	-0.177 	-0.261
 3.296 	0.365 	0.081
 3.434 	0.392 	0.194
 3.193 	0.104 	0.305
 3.349 	-0.111 	0.098
 3.231 	0.069 	0.157
 2.999 	0.367 	0.125
 3.226 	0.453 	0.217
 2.884 	0.289 	0.340
 3.287 	0.188 	0.273
 2.548 	0.812 	0.342
 3.317 	0.949 	0.196
 3.494 	0.583 	0.193
 3.671 	0.462 	-0.304
 4.049 	0.038 	-0.111
 4.158 	-0.569 	-0.093
 2.320 	-0.141 	0.511
 2.782 	0.117 	0.047
 3.305 	-0.294 	-0.014
 3.058 	-0.415 	0.128
 2.614 	-0.292 	0.284
 2.727 	-0.188 	0.173
 2.672 	0.296 	0.310
 2.823 	0.685 	0.103
 3.155 	0.133 	-0.051
 3.364 	-0.299 	0.014
 3.996 	0.217 	-0.039
 3.723 	0.208 	0.298
 4.366 	0.494 	-0.056
 3.522 	-0.165 	0.134
 3.922 	0.195 	0.051
 3.600 	-0.316 	-0.263
 3.881 	0.156 	-0.214
 3.891 	0.221 	0.078
 4.363 	0.329 	-0.510
 4.028 	-0.113 	0.204
 3.325 	-0.669 	-0.066
 3.484 	-0.545 	-0.217
 3.730 	-0.080 	-0.064
 3.795 	0.188 	-0.028
 3.926 	0.061 	-0.241
 3.932 	-0.149 	-0.132
 3.912 	0.092 	0.132
 4.110 	-0.056 	-0.178
 4.185 	-0.183 	-0.011
 4.308 	0.327 	0.065
 3.269 	0.311 	0.218
 3.333 	-0.329 	0.051
 3.674 	-0.368 	0.141
 3.667 	0.205 	0.045
 3.322 	0.346 	0.004
 3.904 	-0.047 	-0.051
 3.765 	-0.171 	-0.059
 3.603 	-0.053 	-0.123
 3.690 	-0.218 	-0.095
 3.450 	0.118 	0.144
 3.468 	0.127 	-0.060
 3.442 	0.311 	-0.101
 2.562 	-0.291 	0.152
 2.446 	-0.467 	0.097
 2.937 	-0.066 	-0.153
 3.576 	0.057 	-0.044
 3.923 	0.307 	0.060
 3.659 	-0.358 	0.125
 3.329 	-0.542 	0.079
 3.154 	-0.272 	0.327
 3.703 	0.487 	-0.071
 2.836 	-0.264 	0.088
 3.056 	0.058 	0.004
 3.189 	0.061 	0.105
 2.981 	0.037 	0.265
 2.641 	-0.256 	0.226
 2.992 	0.249 	0.123
 2.917 	0.182 	0.264
 6.273 	0.489 	-1.295
 6.487 	0.165 	-0.228
 6.627 	-0.040 	0.075
 5.017 	-0.027 	0.433
 4.564 	0.681 	1.025
 4.680 	0.888 	0.666
 5.140 	0.696 	0.569
 5.530 	0.778 	0.533
 5.638 	1.252 	0.239
 5.273 	0.036 	0.197
 5.389 	-0.074 	-0.103
 6.144 	0.334 	0.147
 6.467 	1.424 	-0.450
 5.847 	1.570 	0.084
 5.365 	0.578 	0.531
 5.025 	0.223 	0.388
 6.806 	1.229 	-0.832
 5.758 	0.010 	0.310
 5.417 	0.880 	0.534
 4.275 	1.048 	0.632
 4.005 	0.644 	0.345
 4.595 	0.026 	0.425
 5.059 	0.458 	0.328
 4.922 	0.946 	-0.054
 5.647 	0.173 	-0.252
 5.979 	-0.714 	-0.330
 5.194 	0.206 	0.098
 5.112 	0.348 	0.254
 4.920 	0.945 	0.363
 5.742 	1.287 	0.555
 5.766 	0.474 	0.365
 6.227 	0.829 	-0.119
 5.167 	-0.065 	-0.417
 5.530 	1.150 	-0.228
 4.519 	1.589 	1.108
 4.567 	0.359 	0.008
 5.824 	-0.050 	-0.154
 4.827 	0.045 	0.338
 4.345 	-0.067 	1.136
 4.939 	0.851 	-0.056
 5.291 	-0.338 	-0.389
 5.427 	0.366 	-0.390
 5.493 	-0.044 	-0.104
 5.802 	0.445 	0.020
 5.172 	0.410 	0.165
 5.304 	0.819 	0.068
 5.303 	0.491 	0.563
 4.517 	0.309 	0.030
 4.357 	0.324 	1.154
 4.844 	0.996 	0.364
 5.188 	0.855 	0.349
 5.046 	0.047 	0.278
 5.259 	0.318 	0.078
 4.922 	0.001 	0.355
 4.133 	-0.017 	0.529
 4.408 	0.508 	0.147
 4.852 	0.737 	-0.186
 5.556 	0.699 	-0.862
 5.041 	-0.224 	0.025
 5.098 	0.250 	-0.551
 4.817 	0.582 	0.473
 4.172 	0.566 	0.823
 5.057 	0.801 	0.094
 5.579 	0.546 	-0.473
 4.360 	-0.112 	0.544
 4.914 	0.237 	0.345
 4.835 	-0.059 	0.458
 4.800 	-0.511 	0.142
 4.426 	-0.376 	0.442
 4.684 	-0.005 	0.064
 3.529 	-0.200 	0.427
 3.628 	-0.268 	0.375
 4.368 	0.392 	-0.033
 3.840 	0.345 	0.109
 3.939 	0.241 	0.319
 4.184 	0.047 	0.409
 4.382 	0.488 	0.103
 4.135 	0.618 	0.187
 3.655 	0.210 	0.072
 3.537 	0.359 	-0.018
 6.455 	-0.222 	-0.508
 6.365 	-0.103 	0.404
 5.004 	0.094 	0.233
 4.674 	0.069 	0.319
 5.371 	-0.008 	0.242
 4.846 	0.089 	0.212
 5.423 	-0.456 	0.393
 5.276 	-0.446 	0.330
 4.987 	0.829 	0.267
 5.590 	0.225 	0.100
 5.236 	0.040 	-0.305
 4.429 	-0.434 	0.439
 4.707 	0.243 	0.511
 4.689 	0.671 	0.131
 4.413 	0.720 	-0.219
 4.072 	0.202 	0.250
 4.483 	-0.757 	0.305
 5.587 	-0.072 	0.310
 5.435 	-0.178 	-0.105
 5.240 	-0.518 	0.026
 5.261 	-0.187 	-0.200
 5.595 	0.159 	0.058
 5.568 	-0.229 	-0.232
 5.741 	-0.154 	-0.460
 5.631 	0.016 	-0.132
 5.971 	-0.051 	-0.367
 6.303 	0.108 	-0.532
 5.714 	-0.051 	-0.089
 5.240 	0.217 	0.258
 4.513 	-0.097 	0.685
 4.547 	-0.147 	0.254
 5.058 	0.565 	-0.504
 5.493 	-0.121 	-0.695
 5.126 	-0.440 	-0.908
 5.241 	-0.414 	-0.438
 4.428 	-0.421 	-0.062
 4.702 	-0.593 	-0.203
 4.822 	-0.056 	-0.098
 5.136 	0.103 	-0.202
 5.409 	-0.565 	0.117
 5.382 	-0.325 	-0.244
 5.390 	-0.358 	-0.536
 5.166 	0.408 	-0.178
 5.417 	0.532 	0.170
 5.215 	0.368 	-0.046
 5.369 	0.388 	-0.177
 4.927 	-0.105 	-0.108
 4.734 	0.022 	0.258
 5.656 	1.248 	-0.483
 4.505 	-0.341 	0.562
 4.243 	-1.291 	0.248
 3.998 	-0.655 	0.543
 3.616 	-0.787 	-0.245
 3.534 	0.135 	0.550
 4.022 	-0.795 	-0.303
 4.133 	-0.335 	-0.007
 4.769 	-0.487 	0.033
 5.106 	-0.393 	-0.392
 5.196 	0.522 	-0.101
 5.343 	0.517 	-0.213
 5.190 	0.049 	-0.307
 4.766 	0.040 	-0.487
 5.156 	0.479 	0.104
 4.310 	0.014 	0.489
 5.464 	0.249 	-0.730
 5.470 	0.982 	0.062
 4.855 	-1.254 	0.472
 3.808 	-0.349 	0.683
 3.729 	-0.520 	0.387
 3.973 	-0.605 	0.490
 4.606 	-0.595 	0.026
 4.527 	-0.558 	-0.151
 4.708 	-0.522 	-0.185
 4.803 	0.132 	-0.314
 4.958 	-0.214 	-0.008
 4.615 	0.554 	0.479
 4.527 	0.327 	-0.296
 4.510 	0.641 	-0.676
 4.654 	0.627 	-0.019
 4.911 	0.293 	-0.155
 5.103 	0.632 	-0.117
 5.347 	0.741 	-0.346
 4.666 	-0.681 	0.113
 4.267 	-0.430 	0.525
 4.532 	-0.286 	0.189
 4.179 	-0.432 	-0.044
 3.857 	-0.909 	0.119
 3.904 	-0.799 	-0.416
 4.031 	-0.205 	-0.209
 3.884 	-0.255 	0.399
 4.486 	-0.214 	0.658
 4.733 	0.142 	0.648
 4.151 	0.285 	0.164
 3.951 	0.647 	-0.202
 4.158 	0.579 	0.384
 4.784 	0.742 	-0.247
 4.682 	0.032 	-0.493
 5.249 	0.830 	-0.559
 5.417 	-0.337 	-0.660
 5.349 	0.341 	0.040
 4.499 	-0.309 	-0.239
 4.352 	-0.177 	0.346
 4.323 	-0.869 	0.347
 3.685 	-0.625 	0.343
 3.587 	0.208 	-0.104
 3.039 	-0.027 	0.584
 3.678 	-0.284 	-0.146
 3.694 	-0.249 	0.310
 3.849 	0.094 	0.605
 3.745 	0.547 	0.823
 3.754 	0.536 	0.164
 4.182 	0.881 	-0.127
 4.354 	-0.217 	-0.351
 4.360 	0.303 	-0.057
 4.952 	0.068 	-0.232
 5.618 	0.267 	-0.369
 5.370 	0.350 	-0.481
 5.423 	0.487 	-0.454
 5.219 	-0.255 	0.139
 4.454 	-0.196 	-0.043
 3.834 	0.499 	0.131
 3.974 	-0.435 	0.374
 3.900 	-0.231 	0.327
 3.047 	-0.070 	0.621
 3.178 	-0.271 	0.528
 3.702 	0.169 	-0.059
 4.138 	0.477 	-0.195
 4.171 	0.550 	-0.140
 4.738 	0.313 	0.548
 4.949 	0.217 	0.351
 4.905 	0.078 	0.131
 5.197 	0.610 	-0.027
 5.344 	0.544 	0.012
 4.073 	0.047 	0.559
 4.257 	-0.041 	0.190
 4.037 	-0.141 	0.022
 4.398 	0.098 	-0.317
 4.643 	-0.084 	-0.073
 4.297 	-0.502 	-0.241
 4.306 	-0.041 	0.099
 3.922 	-0.457 	0.051
 3.824 	-0.757 	0.159
 4.092 	0.346 	0.105
 3.991 	0.958 	0.182
 4.941 	0.501 	0.300
 4.623 	0.040 	0.373
 5.340 	0.072 	0.421
 5.196 	0.670 	0.609
 4.706 	0.591 	0.452
 4.165 	0.094 	0.286
 4.229 	-0.316 	0.275
 4.296 	-0.389 	0.054
 4.682 	-0.163 	-0.187
 4.411 	-0.005 	-0.114
 4.222 	-0.174 	-0.167
 4.289 	-0.186 	0.022
 3.902 	-0.499 	0.074
 3.428 	-0.590 	0.214
 3.293 	-0.524 	0.139
 3.531 	0.116 	0.255
 4.569 	-0.653 	0.407
 4.609 	-0.548 	0.446
 4.491 	-0.266 	0.302
 4.736 	-0.258 	0.501
 4.758 	0.470 	0.349
 4.418 	0.081 	0.509
 4.200 	-0.046 	0.111
 3.695 	-0.490 	0.182
 3.893 	-0.414 	0.173
 3.997 	0.218 	-0.034
 3.671 	-0.080 	-0.039
 3.800 	-0.381 	0.161
 3.215 	-0.251 	0.461
 3.195 	-0.704 	0.420
 3.273 	-1.032 	0.374
 3.437 	-1.056 	0.115
 7.330 	1.681 	-1.352
 6.369 	-0.195 	-0.017
 6.374 	-0.090 	0.815
 5.756 	0.236 	0.448
 5.916 	-0.240 	0.065
 6.003 	0.542 	0.286
 6.042 	0.097 	0.709
 6.198 	0.789 	0.906
 6.989 	1.577 	0.394
 6.258 	1.420 	0.027
 6.452 	-0.157 	0.048
 6.857 	-0.202 	-0.025
 6.370 	0.081 	0.039
 6.576 	1.104 	0.931
 7.032 	1.797 	-0.186
 5.810 	1.028 	0.413
 7.717 	0.962 	0.719
 6.807 	-0.046 	0.488
 5.528 	0.043 	1.105
 6.632 	0.676 	0.546
 5.378 	0.736 	0.534
 5.698 	0.169 	0.638
 6.470 	0.380 	0.335
 6.036 	0.567 	-0.122
 6.019 	0.901 	0.200
 6.533 	0.417 	-0.845
 6.817 	0.162 	-0.370
 6.845 	0.263 	0.151
 5.790 	0.620 	0.171
 6.266 	0.405 	0.975
 6.631 	2.107 	0.708
 6.994 	0.944 	-0.022
 5.996 	0.732 	-0.004
 6.142 	0.975 	0.149
 6.535 	0.491 	0.575
 6.570 	0.663 	-0.286
 5.927 	0.876 	0.014
 5.202 	-0.214 	0.978
 6.574 	0.340 	0.315
 7.099 	1.185 	-0.886
 6.856 	0.458 	-0.437
 6.766 	0.360 	-0.623
 7.020 	0.060 	-0.249
 6.701 	0.717 	0.564
 7.286 	0.410 	0.141
 5.870 	-0.151 	0.728
 5.949 	0.833 	0.443
 5.773 	1.115 	0.655
 5.006 	0.613 	0.467
 5.294 	0.772 	0.165
 4.768 	0.199 	1.184
 5.321 	0.462 	0.900
 5.969 	1.171 	0.666
 5.705 	0.635 	0.558
 5.455 	-0.199 	0.458
 6.524 	0.231 	0.290
 6.651 	1.267 	-0.348
 6.736 	0.733 	-0.159
 5.664 	0.209 	0.228
 4.851 	0.534 	0.724
 4.832 	-0.353 	0.471
 3.899 	0.455 	0.703
 4.507 	-0.334 	0.612
 5.403 	0.947 	0.303
 4.319 	0.262 	0.809
 4.982 	0.452 	0.818
 5.298 	0.201 	0.922
 4.746 	0.749 	0.348
 4.943 	0.382 	0.628
 5.321 	0.637 	0.281
 5.458 	0.190 	0.854
 5.169 	-0.473 	0.502
 5.408 	1.117 	0.151
 4.702 	0.888 	0.540
 4.143 	0.307 	0.464
 4.735 	-0.244 	0.838
 4.757 	0.392 	0.871
 5.176 	-0.159 	0.405
 4.866 	-0.341 	0.259
 4.486 	0.134 	0.261
 5.466 	0.119 	-0.206
 4.924 	-0.115 	0.468
 5.285 	-0.166 	0.303
 5.535 	0.000 	0.110
 5.773 	0.625 	-0.006
 5.955 	0.188 	0.028
 5.791 	0.256 	0.839
 5.733 	0.320 	0.147
 5.948 	0.935 	-0.022
 5.914 	1.554 	0.271
 5.610 	0.447 	0.333
 5.373 	-0.306 	0.581
 5.307 	0.029 	0.174
 5.303 	-0.687 	0.490
 5.422 	-0.471 	0.093
 5.380 	-0.125 	-0.549
 6.278 	0.425 	-0.652
 6.159 	0.104 	0.143
 5.800 	-0.013 	0.078
 6.206 	-0.630 	-0.125
 5.756 	0.202 	-0.092
 6.385 	0.080 	-0.071
 6.038 	0.279 	0.294
 5.380 	-0.170 	0.048
 5.438 	-0.423 	-0.195
 6.136 	0.378 	0.144
 5.855 	-0.016 	-0.231
 5.832 	0.076 	0.099
 5.188 	0.100 	0.607
 5.423 	-0.211 	0.172
 5.584 	-0.250 	0.117
 5.299 	-0.244 	-0.261
 5.741 	0.811 	-0.524
 5.546 	-0.368 	0.166
 6.164 	0.192 	0.035
 6.055 	-0.205 	-0.011
 4.913 	-0.764 	0.172
 5.952 	0.196 	0.335
 5.354 	0.410 	0.193
 5.251 	-0.789 	-0.093
 5.272 	-0.574 	0.311
 5.489 	0.020 	-0.188
 5.815 	0.195 	-0.540
 5.573 	0.301 	0.237
 5.509 	0.063 	0.253
 5.510 	-0.068 	-0.286
 5.465 	0.231 	0.086
 5.115 	-0.159 	-0.055
 5.057 	-0.222 	-0.796
 4.499 	0.511 	0.348
 4.262 	0.077 	1.025
 4.734 	-0.369 	0.384
 5.227 	-1.100 	0.563
 4.754 	-0.739 	0.801
 5.052 	-0.901 	-0.008
 4.645 	-1.033 	-0.098
 4.419 	-1.033 	0.275
 4.280 	-0.678 	0.387
 4.202 	-0.529 	0.569
 5.026 	0.380 	0.192
 5.465 	0.211 	-0.185
 5.567 	0.524 	-0.372
 5.075 	-0.211 	-0.080
 4.834 	0.186 	0.100
 5.200 	0.331 	-0.640
 5.288 	0.644 	0.152
 5.048 	-0.129 	0.525
 5.241 	-0.550 	0.185
 5.830 	-0.865 	0.240
 5.382 	-0.686 	0.610
 5.692 	-1.224 	0.112
 5.934 	-1.074 	-0.188
 5.963 	-0.344 	-0.394
 4.526 	-0.788 	0.341
 3.766 	-0.890 	0.113
 4.348 	-0.836 	0.309
 4.842 	-1.289 	-0.265
 4.940 	0.088 	-0.688
 4.940 	0.107 	-0.424
 5.280 	0.560 	-0.197
 5.076 	-0.364 	-0.115
 5.643 	0.795 	0.191
 5.796 	0.438 	0.107
 5.989 	-0.566 	0.150
 5.930 	-0.478 	0.108
 5.961 	-0.800 	0.280
 5.461 	-0.590 	0.127
 5.314 	-0.758 	-0.398
 5.149 	-0.784 	-0.356
 4.648 	-0.125 	0.491
 3.580 	-0.816 	0.520
 3.701 	-0.887 	0.196
 4.673 	-0.525 	0.010
 4.669 	-0.051 	0.030
 4.600 	-0.042 	-0.871
 4.965 	0.735 	-0.072
 5.082 	0.105 	-0.213
 5.015 	0.016 	-0.062
 5.514 	-0.699 	-0.816
 6.197 	-0.310 	-0.446
 5.792 	-0.665 	-0.307
 5.736 	-0.081 	0.277
 5.431 	-0.210 	0.177
 4.743 	-0.043 	0.516
 4.467 	-0.493 	0.341
 4.771 	-0.147 	0.344
 4.718 	-0.994 	-0.040
 3.591 	-0.362 	0.218
 3.659 	-0.207 	0.788
 3.827 	0.066 	0.627
 4.868 	-0.449 	-0.060
 4.855 	0.230 	-0.560
 4.441 	-0.041 	-0.663
 5.457 	-0.479 	-0.611
 5.543 	-1.377 	0.008
 5.880 	-0.702 	-0.362
 5.910 	-0.469 	-0.403
 6.078 	-0.427 	-0.938
 6.352 	0.367 	-0.243
 6.520 	0.391 	-0.259
 5.857 	0.151 	0.193
 4.579 	-0.207 	0.794
 4.182 	-0.791 	0.024
 4.046 	-0.329 	0.557
 3.834 	-0.279 	0.731
 4.548 	-0.426 	0.304
 4.897 	-0.062 	0.370
 5.175 	0.576 	-0.140
 4.967 	-0.915 	0.407
 4.843 	-1.290 	0.073
 5.181 	-0.955 	-0.289
 5.227 	-0.466 	0.284
 4.865 	-0.473 	-0.323
 5.356 	-0.032 	0.128
 5.478 	0.540 	0.607
 5.926 	0.446 	0.212
 5.894 	0.646 	0.082
 5.869 	0.146 	0.274
 5.018 	-0.239 	-0.057
 4.242 	-0.013 	0.463
 4.031 	-0.285 	0.606
 4.111 	-0.464 	0.516
 4.268 	-0.379 	0.289
 4.692 	-0.086 	0.163
 4.840 	-0.710 	1.228
 5.078 	-1.599 	0.602
 4.769 	-1.085 	0.317
 5.031 	-0.457 	0.360
 5.134 	-0.276 	0.344
 5.167 	0.287 	0.539
 5.047 	-0.149 	0.561
 5.051 	0.086 	0.304
 4.901 	-0.049 	0.219
 5.390 	0.253 	-0.014
 4.782 	0.236 	-0.310
 4.261 	-0.074 	0.168
 4.587 	-0.286 	-0.014
 4.488 	-0.390 	0.045
 3.786 	-0.690 	0.275
 3.791 	-0.451 	0.459
 5.165 	-0.585 	0.237
 4.893 	-1.008 	0.552
 4.445 	-0.542 	0.565
 4.128 	-0.262 	0.489
 4.564 	-0.018 	0.604
 4.686 	0.198 	0.916
 4.601 	-0.035 	0.667
 4.277 	0.049 	0.530
 4.474 	-0.332 	0.327
 4.563 	-0.054 	-0.177
 4.735 	0.491 	-0.026
 4.303 	0.022 	0.451
 4.703 	0.101 	0.229
 4.096 	-0.091 	0.227
 4.145 	0.448 	0.047
 3.806 	0.072 	-0.020
 6.844 	-0.573 	0.057
 6.900 	-0.661 	0.142
 6.643 	-0.687 	0.542
 7.458 	-0.040 	0.386
 6.093 	-0.183 	0.609
 5.393 	0.312 	0.936
 5.838 	0.426 	0.369
 6.402 	0.616 	0.211
 6.318 	1.237 	0.736
 6.486 	1.044 	0.296
 6.987 	0.260 	-0.222
 7.891 	0.306 	-0.255
 7.332 	-0.049 	-0.001
 7.384 	0.215 	-0.046
 7.480 	0.948 	0.215
 8.057 	1.377 	-0.077
 7.395 	-0.270 	0.803
 6.363 	-0.461 	0.168
 6.347 	-0.628 	0.818
 6.307 	0.193 	0.075
 6.574 	0.760 	0.203
 6.498 	0.225 	0.376
 6.295 	0.772 	0.213
 6.070 	0.896 	-0.341
 7.086 	1.326 	0.299
 7.044 	0.392 	-0.740
 6.324 	-0.352 	0.389
 5.733 	0.198 	-0.041
 6.359 	-0.116 	-0.153
 7.589 	0.236 	1.062
 7.029 	1.009 	0.659
 6.992 	1.435 	0.621
 5.479 	0.150 	0.030
 5.603 	-0.550 	-0.124
 6.424 	-0.497 	-0.142
 6.612 	0.126 	-0.239
 6.577 	0.859 	0.243
 6.861 	0.798 	0.084
 6.802 	0.553 	-0.399
 7.013 	0.299 	-0.618
 6.586 	0.516 	-0.845
 7.181 	0.806 	-1.344
 6.555 	-0.093 	0.431
 5.975 	0.341 	0.602
 5.848 	-0.238 	0.955
 5.439 	-0.146 	0.704
 6.580 	1.340 	0.964
 6.582 	1.096 	0.760
 5.417 	-0.329 	0.485
 5.377 	-0.877 	-0.238
 5.554 	-0.227 	0.865
 5.797 	0.547 	0.463
 5.490 	-0.287 	0.755
 6.402 	0.813 	0.784
 6.931 	0.719 	0.269
 7.462 	0.472 	0.496
 7.035 	0.810 	0.035
 5.402 	0.302 	0.928
 5.009 	0.024 	0.842
 4.920 	0.306 	0.755
 4.592 	-0.070 	0.796
 3.801 	-0.084 	0.868
 4.591 	0.252 	0.751
 5.008 	0.196 	0.181
 5.857 	-1.052 	0.194
 5.870 	-0.100 	0.245
 5.239 	1.087 	0.953
 5.731 	0.986 	0.061
 5.645 	0.633 	-0.275
 6.003 	0.413 	0.327
 6.336 	0.098 	0.824
 6.442 	-0.342 	1.002
 6.865 	1.282 	0.269
 6.246 	0.952 	0.911
 5.507 	0.490 	0.626
 5.079 	0.142 	0.860
 4.848 	0.537 	0.635
 4.709 	0.224 	0.828
 4.873 	-0.178 	0.594
 4.289 	-0.402 	0.992
 5.485 	0.367 	0.496
 5.089 	1.499 	0.933
 4.934 	1.487 	0.269
 5.236 	0.308 	0.216
 6.029 	-0.106 	-0.271
 6.534 	0.242 	-0.286
 6.224 	-0.085 	0.744
 6.739 	-0.129 	-0.098
 5.936 	0.794 	0.196
 5.477 	0.757 	1.024
 5.488 	0.363 	0.880
 5.220 	-0.094 	0.848
 5.564 	0.084 	0.465
 5.690 	-0.067 	0.432
 6.038 	-0.351 	0.137
 5.368 	-0.484 	0.190
 5.158 	0.099 	-0.208
 4.888 	0.676 	0.088
 5.781 	0.697 	0.183
 6.035 	0.158 	0.380
 6.364 	-0.117 	0.560
 5.957 	0.005 	0.233
 5.790 	0.281 	0.523
 5.337 	0.286 	0.793
 5.775 	1.062 	0.510
 6.423 	0.728 	0.315
 6.606 	0.309 	-0.240
 6.427 	-0.274 	0.040
 6.193 	-0.061 	0.793
 6.302 	0.077 	-0.256
 6.269 	-0.280 	0.048
 5.694 	-0.215 	-0.093
 5.071 	0.775 	-0.054
 5.795 	0.729 	-0.454
 6.491 	-0.071 	0.007
 6.402 	0.676 	-0.310
 5.551 	-0.528 	1.095
 4.495 	-1.250 	0.860
 5.245 	0.007 	1.088
 5.048 	0.151 	0.386
 5.371 	-0.577 	0.384
 6.108 	-0.512 	-0.447
 6.282 	-0.214 	-0.408
 6.096 	0.044 	0.194
 6.124 	0.197 	0.412
 6.047 	-0.051 	-0.345
 5.948 	0.062 	0.259
 5.596 	-0.130 	0.191
 5.648 	-0.424 	-0.389
 5.077 	-0.361 	0.610
 4.911 	0.056 	0.979
 4.052 	0.231 	1.401
 4.330 	-0.576 	0.570
 5.268 	-0.754 	0.355
 4.879 	-0.382 	-0.093
 5.179 	-0.123 	-0.058
 5.200 	-1.054 	0.294
 4.940 	-1.375 	0.899
 5.626 	-0.136 	0.418
 5.774 	0.207 	0.014
 5.346 	0.060 	-0.060
 5.185 	-0.078 	-0.433
 5.608 	0.164 	0.107
 5.278 	-0.026 	0.136
 5.623 	-0.403 	-0.486
 5.818 	0.266 	-0.375
 5.202 	0.730 	0.539
 4.796 	0.271 	0.249
 4.856 	-0.029 	-0.132
 5.276 	-0.116 	-0.484
 5.404 	-0.308 	-0.196
 5.728 	-0.577 	-0.130
 5.728 	-0.877 	-0.093
 4.923 	-0.785 	0.376
 4.727 	-0.245 	0.180
 4.723 	0.050 	0.176
 5.014 	0.103 	0.054
 4.986 	0.067 	0.119
 5.234 	-0.432 	-0.195
 5.291 	0.428 	0.056
 5.704 	-0.245 	-0.666
 5.761 	0.654 	0.054
 5.927 	0.646 	0.229
 5.489 	0.311 	0.192
 5.934 	0.220 	-0.370
 6.191 	-0.394 	0.409
 6.605 	-0.280 	-0.624
 6.147 	-0.410 	0.239
 5.562 	-0.201 	0.323
 4.753 	-0.703 	0.913
 4.455 	-0.181 	0.471
 4.951 	-0.547 	0.153
 5.464 	-0.252 	-0.564
 5.805 	-0.396 	-0.444
 5.213 	-0.309 	-0.119
 5.576 	-0.354 	-0.277
 5.554 	0.282 	-0.450
 5.255 	0.635 	-0.230
 5.841 	0.570 	0.073
 6.374 	0.264 	-0.231
 6.175 	0.152 	-0.178
 6.395 	0.096 	0.106
 6.578 	-0.235 	-0.252
 5.943 	-0.131 	0.411
 5.793 	0.404 	0.145
 6.101 	0.049 	0.688
 5.402 	-0.238 	0.459
 4.714 	-0.828 	0.880
 4.904 	-0.479 	0.504
 5.856 	0.031 	0.098
 6.100 	-0.450 	-0.817
 5.783 	-0.673 	-0.077
 5.294 	0.200 	-0.279
 5.734 	0.332 	-0.080
 5.806 	-0.058 	0.109
 6.107 	-0.237 	-0.145
 6.337 	-0.583 	-0.636
 5.740 	-0.727 	-0.603
 5.443 	-0.340 	-0.614
 5.587 	0.263 	0.190
 6.341 	0.258 	-0.316
 6.082 	0.054 	0.410
 5.879 	-0.128 	0.434
 5.842 	-0.591 	0.589
 5.944 	-0.517 	0.194
 6.010 	-0.867 	0.033
 5.348 	-0.464 	-0.172
 5.456 	-0.108 	-0.200
 4.876 	-0.469 	0.676
 5.263 	-0.839 	0.469
 5.635 	-0.642 	-0.239
 5.475 	-0.802 	0.071
 5.197 	-0.531 	-0.019
 5.028 	-0.316 	-0.179
 5.139 	-0.203 	0.042
 5.250 	-0.126 	0.222
 5.718 	0.168 	-0.039
 6.032 	0.430 	0.363
 6.419 	0.121 	0.739
 5.661 	-0.225 	0.407
 5.703 	-0.483 	-0.008
 5.082 	-0.322 	0.446
 4.763 	-0.017 	0.481
 5.284 	-0.349 	0.193
 6.006 	-0.417 	0.460
 5.596 	-0.984 	0.561
 5.261 	-0.655 	0.222
 5.079 	-0.479 	0.075
 4.658 	-0.646 	0.259
 4.677 	-0.273 	0.834
 4.747 	0.244 	0.891
 5.377 	-0.518 	0.318
 5.412 	0.043 	0.385
 5.634 	0.195 	0.242
 6.011 	0.265 	0.173
 6.218 	0.294 	-0.073
 5.865 	0.278 	-0.074
 4.658 	-0.006 	0.626
 4.712 	-0.553 	0.005
 4.742 	-0.886 	0.399
 5.788 	-0.218 	-0.011
 5.202 	-0.642 	0.759
 4.979 	-0.250 	0.254
 4.567 	-0.471 	0.527
 4.358 	-0.266 	0.558
 4.491 	-0.458 	0.624
 4.566 	0.131 	0.376
 4.515 	-0.084 	0.404
 4.537 	-0.292 	0.154
 4.766 	-0.190 	-0.257
 4.608 	-0.224 	-0.118
 4.807 	-0.020 	0.164
 5.194 	0.292 	0.169
 5.352 	0.112 	0.064
 4.842 	-0.258 	0.192
 4.656 	-0.533 	0.078
 7.882 	-0.848 	0.163
 7.971 	-0.236 	0.350
 7.098 	-0.462 	0.431
 6.941 	-0.449 	0.291
 6.791 	-0.170 	0.650
 6.998 	-0.242 	-0.062
 6.543 	0.045 	0.067
 6.794 	-0.078 	0.346
 6.846 	0.426 	0.214
 6.983 	0.488 	0.306
 7.694 	0.131 	-0.373
 7.589 	-0.791 	-0.646
 8.203 	0.240 	-0.098
 8.248 	0.463 	0.126
 8.619 	1.244 	0.105
 8.550 	0.903 	0.417
 6.353 	-0.575 	0.744
 6.987 	-0.323 	0.578
 7.037 	-0.445 	0.026
 7.001 	-0.062 	0.339
 6.884 	-0.093 	-0.041
 6.760 	0.121 	0.106
 7.080 	0.466 	0.314
 6.278 	-0.575 	-0.272
 6.493 	-0.261 	0.357
 6.952 	0.722 	-0.335
 7.024 	-0.756 	0.701
 6.762 	0.080 	0.144
 6.760 	-0.068 	0.886
 6.788 	0.559 	1.244
 6.284 	0.638 	0.814
 6.475 	0.676 	0.701
 5.199 	-0.676 	-0.118
 5.798 	-0.418 	-0.225
 5.903 	-0.768 	0.082
 6.225 	-0.055 	-0.168
 6.414 	0.241 	0.150
 6.707 	0.582 	0.206
 6.934 	0.513 	-0.596
 6.473 	-0.315 	-0.258
 6.214 	-0.428 	-0.805
 6.503 	0.275 	-0.274
 5.855 	0.373 	0.721
 5.125 	-0.401 	1.200
 5.733 	0.030 	1.124
 5.440 	0.191 	0.695
 5.523 	0.200 	0.540
 5.773 	0.410 	0.926
 6.386 	-0.691 	0.207
 6.409 	-0.995 	-0.612
 6.462 	-0.746 	0.062
 5.719 	0.116 	0.336
 6.447 	0.120 	-0.432
 6.446 	-0.246 	0.746
 7.498 	-0.040 	0.517
 6.476 	-0.093 	0.220
 6.840 	-0.422 	0.082
 6.760 	0.601 	-0.049
 6.105 	0.316 	1.368
 5.643 	0.273 	0.947
 4.775 	-0.012 	0.838
 4.701 	0.306 	0.731
 4.384 	-0.479 	1.081
 5.189 	-0.127 	0.358
 7.143 	-0.733 	-0.203
 7.116 	-0.840 	-0.909
 5.625 	0.228 	0.417
 5.547 	-0.028 	0.165
 6.362 	-0.094 	0.121
 6.236 	-0.244 	-0.158
 6.473 	0.251 	0.880
 7.109 	0.071 	1.101
 6.246 	0.366 	0.032
 6.942 	0.886 	1.033
 5.579 	1.040 	1.456
 5.315 	0.219 	1.158
 5.455 	0.333 	0.521
 4.788 	0.241 	0.755
 4.593 	-0.039 	0.779
 4.700 	-0.310 	1.221
 6.815 	-0.361 	-0.115
 6.186 	-0.334 	0.766
 5.674 	-0.122 	0.895
 5.732 	0.048 	0.270
 6.158 	-0.340 	-0.288
 6.236 	-0.496 	-0.130
 5.986 	0.490 	0.334
 6.303 	-0.253 	0.094
 6.312 	0.743 	0.451
 6.700 	0.588 	1.747
 6.121 	1.512 	1.403
 6.186 	0.361 	0.700
 6.078 	0.108 	1.125
 5.957 	-0.231 	0.656
 6.111 	-0.408 	0.085
 6.267 	-0.232 	0.077
 5.115 	-0.128 	0.565
 5.589 	-0.292 	0.533
 6.272 	0.003 	-0.044
 6.128 	-0.467 	0.292
 5.837 	-0.299 	0.794
 6.256 	-0.266 	0.227
 6.407 	0.206 	-0.074
 5.675 	0.056 	0.779
 5.415 	0.176 	0.740
 5.936 	0.504 	0.430
 6.984 	0.850 	0.159
 7.081 	0.007 	0.250
 6.957 	0.165 	0.334
 6.840 	0.076 	0.135
 6.459 	-0.349 	-0.034
 6.107 	-0.234 	0.092
 5.405 	-0.523 	0.229
 5.755 	-0.613 	0.103
 5.821 	-0.463 	-0.232
 6.162 	-0.483 	0.318
 5.091 	-0.075 	1.781
 5.303 	0.635 	1.066
 5.272 	0.752 	0.977
 4.974 	0.582 	1.032
 5.524 	-0.545 	0.744
 6.320 	-1.029 	0.098
 6.017 	-0.464 	0.252
 6.225 	-0.133 	0.590
 6.312 	0.341 	0.295
 6.434 	0.001 	-0.096
 6.004 	-0.171 	0.038
 6.152 	-0.686 	0.429
 5.793 	-0.675 	-0.316
 5.736 	-0.497 	0.435
 6.030 	-0.576 	0.729
 5.107 	0.328 	0.889
 5.389 	0.314 	0.400
 5.064 	0.323 	0.102
 5.276 	0.093 	-0.035
 5.467 	0.401 	-0.137
 5.426 	-0.398 	0.220
 4.848 	-1.373 	0.916
 6.134 	-0.915 	-0.081
 6.025 	-0.161 	0.067
 5.749 	0.261 	0.048
 5.852 	0.265 	-0.221
 5.846 	-0.241 	0.430
 6.183 	-0.643 	0.252
 6.538 	-0.461 	-1.024
 6.356 	-0.248 	-0.036
 6.093 	-0.269 	0.099
 6.494 	0.321 	0.618
 5.592 	0.656 	0.205
 5.988 	-0.320 	-0.419
 5.425 	0.274 	-0.247
 5.454 	0.037 	-0.189
 5.951 	-0.931 	0.044
 6.359 	-0.611 	-0.294
 5.319 	-0.620 	0.734
 5.032 	-0.140 	0.243
 5.240 	0.229 	-0.038
 5.406 	-0.031 	-0.138
 5.678 	-0.562 	-0.159
 6.165 	-0.680 	-0.401
 6.700 	-0.324 	-0.262
 6.088 	-0.063 	0.077
 5.661 	0.169 	-0.059
 5.835 	0.533 	0.216
 6.422 	-0.087 	-0.468
 6.726 	-0.644 	0.010
 6.293 	0.155 	0.012
 6.471 	-0.447 	0.109
 6.052 	-0.234 	0.318
 5.949 	-0.566 	0.809
 6.071 	-0.378 	0.935
 5.771 	-0.253 	0.375
 5.727 	-0.257 	-0.026
 5.916 	-0.185 	-0.234
 6.212 	-0.138 	-0.561
 5.775 	-0.579 	-0.063
 6.251 	-0.306 	-0.228
 6.617 	0.003 	-0.113
 6.429 	0.449 	0.124
 6.283 	-0.406 	0.100
 6.407 	-0.371 	-0.143
 6.252 	-0.434 	-0.075
 6.360 	-0.205 	-0.175
 6.707 	-0.266 	0.033
 6.290 	-0.212 	-0.006
 6.044 	0.319 	0.676
 5.980 	-0.555 	0.953
 6.105 	-0.073 	0.237
 6.042 	-0.859 	0.246
 6.153 	-0.681 	0.147
 6.400 	-0.242 	-0.373
 6.182 	-0.308 	-0.432
 6.305 	-0.750 	-0.563
 5.921 	-0.006 	0.007
 5.854 	0.598 	0.132
 5.935 	-0.759 	0.347
 6.120 	-0.466 	0.260
 5.921 	-0.410 	0.258
 5.698 	-0.503 	0.055
 5.728 	-0.328 	-0.033
 6.432 	-0.103 	-0.301
 6.598 	0.445 	-0.076
 6.181 	0.099 	0.629
 6.602 	-0.335 	0.708
 6.403 	-0.654 	0.193
 5.875 	-0.636 	0.218
 5.939 	-0.431 	-0.504
 5.877 	-0.452 	0.035
 5.064 	-0.331 	0.569
 5.376 	-0.090 	0.694
 5.669 	0.574 	0.415
 6.060 	-0.660 	-0.389
 6.115 	-0.697 	-0.167
 6.107 	0.064 	-0.227
 5.406 	-0.658 	-0.021
 5.291 	-1.365 	0.652
 5.651 	-0.787 	-0.351
 5.908 	0.653 	-0.184
 5.957 	0.418 	0.661
 6.330 	-0.280 	0.187
 5.531 	-0.384 	0.121
 5.218 	-0.375 	0.218
 5.069 	-0.320 	0.461
 5.072 	-0.746 	0.580
 5.581 	-0.275 	0.134
 5.376 	-0.046 	0.450
 5.325 	0.420 	0.110
 5.659 	-0.663 	0.744
 5.030 	-0.400 	0.018
 4.578 	-0.156 	1.162
 5.513 	-0.266 	0.174
 5.677 	-0.473 	-1.054
 5.518 	-0.707 	0.346
 5.604 	0.246 	0.326
 5.439 	0.337 	0.086
 5.346 	-0.019 	0.291
 5.011 	0.145 	0.308
 4.605 	-0.463 	0.747
 5.003 	-0.419 	0.367
 4.959 	-0.798 	0.293
 5.870 	0.555 	-0.096
 5.280 	-0.085 	0.487
 6.033 	0.455 	0.029
 5.885 	-0.608 	0.625
 5.643 	-1.307 	1.145
 5.654 	-0.049 	0.818
 5.322 	-0.266 	0.337
 5.151 	0.251 	-0.047
 5.703 	-0.328 	-0.557
 5.617 	-0.421 	-0.065
 6.126 	0.523 	0.592
 5.551 	-0.510 	0.311
 5.310 	-0.039 	0.161
 5.420 	-0.152 	0.048
 5.393 	-0.419 	0.167
 4.884 	-0.557 	0.092
 6.081 	-1.179 	-0.302
 6.925 	-0.299 	0.404
 7.356 	-1.066 	0.436
 7.120 	-0.567 	0.680
 6.884 	-0.682 	0.230
 6.622 	-0.140 	0.759
 6.532 	-0.517 	-0.250
 6.980 	-0.407 	0.026
 7.280 	0.451 	0.806
 7.151 	-0.309 	0.146
 7.473 	-0.441 	0.028
 7.821 	-0.636 	-0.930
 8.246 	0.927 	0.284
 8.149 	1.009 	0.152
 8.490 	0.697 	0.267
 8.093 	0.396 	0.839
 6.976 	-0.899 	0.533
 6.579 	-0.847 	0.316
 6.345 	-0.896 	0.201
 6.316 	-0.404 	0.083
 6.686 	-0.418 	0.045
 6.503 	-0.223 	-0.016
 6.340 	-0.308 	-0.042
 6.366 	0.021 	-0.489
 6.657 	0.669 	0.205
 6.542 	-0.071 	-0.095
 7.149 	-0.266 	-0.010
 7.646 	-0.866 	-0.100
 7.751 	0.798 	1.099
 6.960 	-0.188 	1.156
 6.762 	0.733 	1.540
 6.777 	0.742 	0.869
 5.978 	-0.756 	-0.165
 6.403 	-1.000 	0.034
 6.348 	-0.603 	0.248
 6.355 	-0.773 	-0.296
 6.601 	-0.778 	-0.067
 6.570 	-0.670 	0.403
 6.679 	-0.036 	-0.407
 6.504 	0.373 	0.045
 6.506 	-0.245 	-0.118
 6.450 	-0.245 	-0.631
 6.222 	-0.138 	0.854
 6.393 	-0.230 	0.930
 6.017 	0.231 	0.868
 5.919 	0.064 	1.462
 5.860 	0.717 	1.169
 5.793 	0.531 	0.754
 6.740 	-0.744 	-0.150
 6.640 	-0.819 	0.146
 6.281 	-0.721 	0.136
 6.509 	-0.943 	-0.388
 6.038 	-0.627 	-0.290
 6.086 	-0.911 	0.610
 6.413 	-0.633 	0.394
 6.801 	-0.078 	0.387
 6.587 	-0.107 	-0.128
 5.965 	0.680 	0.878
 6.013 	0.899 	1.159
 5.737 	0.411 	1.351
 5.231 	-0.291 	1.132
 5.350 	-0.578 	0.795
 5.411 	0.245 	0.593
 5.823 	0.757 	0.390
 6.779 	-0.721 	-0.144
 6.432 	-1.199 	-0.189
 6.406 	-0.049 	0.227
 6.129 	-0.561 	-0.168
 5.888 	-0.454 	-0.014
 5.909 	-0.846 	-0.000
 6.079 	-0.601 	0.052
 6.213 	-0.304 	0.528
 6.703 	-0.069 	0.577
 5.699 	0.651 	1.030
 5.524 	0.919 	1.288
 5.849 	0.193 	1.069
 6.160 	0.101 	0.807
 5.618 	-0.176 	0.766
 6.029 	-0.491 	0.588
 5.915 	0.759 	0.881
 5.756 	-0.774 	0.080