# vtk DataFile Version 3.0
HighT1
ASCII
DATASET STRUCTURED_POINTS
DIMENSIONS 16 16 19
ORIGIN 929.001000000000 929.001000000000 5.001000000000
SPACING 10.000000000000 10.000000000000 10.000000000000
POINT_DATA 4864
FIELD attributes 1
U 3 4864 float
3.286 	-0.735 	0.050
 3.465 	-0.605 	0.145
 3.797 	-0.504 	0.021
 3.950 	-0.258 	-0.036
 3.660 	0.092 	-0.042
 3.636 	0.056 	-0.118
 3.559 	-0.132 	0.147
 3.343 	-0.077 	0.214
 3.285 	-0.126 	0.179
 3.422 	0.095 	-0.112
 4.021 	0.151 	-0.304
 4.778 	0.253 	-0.560
 5.186 	0.074 	-0.371
 4.955 	0.064 	0.012
 4.427 	0.011 	0.016
 4.238 	-0.199 	-0.085
 2.854 	-0.343 	-0.312
 2.726 	-0.323 	-0.114
 2.873 	-0.416 	-0.111
 3.250 	-0.438 	-0.014
 3.615 	-0.310 	0.051
 3.748 	-0.147 	0.088
 3.795 	-0.095 	0.035
 3.903 	-0.228 	-0.020
 3.953 	-0.296 	0.042
 4.132 	-0.095 	0.039
 4.687 	0.310 	-0.074
 5.042 	0.735 	-0.410
 5.251 	0.744 	-0.319
 4.880 	0.495 	-0.069
 4.452 	0.162 	-0.027
 4.857 	-0.297 	-0.280
 3.343 	-0.389 	0.246
 3.249 	-0.494 	0.304
 3.351 	-0.616 	0.111
 3.788 	-0.931 	0.145
 3.995 	-0.858 	0.170
 4.036 	-0.623 	0.117
 3.735 	-0.243 	0.088
 3.215 	0.025 	0.205
 2.775 	-0.339 	0.205
 3.126 	-0.931 	-0.077
 3.849 	-0.557 	0.138
 3.992 	0.448 	0.304
 4.141 	1.227 	0.043
 4.404 	0.951 	-0.211
 4.901 	0.104 	-0.363
 5.142 	0.150 	-0.363
 5.496 	-0.694 	-0.181
 5.308 	-0.664 	-0.056
 4.661 	-0.680 	0.002
 4.741 	-0.631 	-0.365
 4.535 	-1.255 	0.146
 4.376 	-1.069 	0.210
 4.417 	-0.517 	0.109
 4.146 	-0.119 	0.174
 4.468 	-0.355 	-0.003
 4.558 	-0.564 	-0.138
 5.018 	-0.423 	-0.378
 4.431 	0.516 	0.036
 3.870 	1.047 	0.014
 4.007 	0.745 	-0.252
 3.648 	0.714 	0.102
 3.284 	0.776 	0.156
 4.753 	-0.031 	-0.162
 4.532 	-0.082 	-0.064
 4.303 	-0.384 	-0.127
 4.308 	-0.660 	-0.083
 4.075 	-1.119 	0.156
 3.628 	-1.310 	0.360
 3.651 	-1.538 	0.278
 3.950 	-1.560 	0.250
 5.089 	-1.030 	-0.069
 5.821 	-0.718 	-0.390
 5.588 	-0.255 	-0.311
 4.560 	0.678 	0.104
 3.630 	1.273 	0.167
 3.448 	1.106 	0.047
 4.062 	0.774 	0.053
 4.230 	0.592 	0.166
 3.881 	0.214 	-0.074
 4.075 	0.054 	-0.098
 4.123 	-0.158 	-0.017
 4.190 	-0.848 	-0.004
 4.122 	-0.898 	0.057
 3.430 	-1.142 	-0.009
 3.032 	-1.671 	0.244
 3.480 	-1.905 	-0.009
 3.872 	-2.266 	-0.171
 4.888 	-0.034 	-0.036
 4.277 	0.913 	0.085
 3.642 	1.365 	0.268
 3.392 	0.925 	0.206
 4.056 	0.067 	-0.138
 4.750 	0.004 	0.174
 4.277 	0.330 	0.502
 4.196 	-0.153 	0.029
 4.515 	0.130 	-0.096
 4.842 	0.178 	-0.127
 4.834 	-0.390 	-0.430
 3.401 	-0.146 	0.238
 3.338 	-0.598 	0.055
 3.996 	-1.715 	-0.346
 4.473 	-1.851 	-0.327
 4.872 	-0.464 	-0.555
 4.235 	-0.275 	-0.165
 4.285 	1.181 	0.159
 4.260 	0.982 	0.228
 3.755 	0.751 	0.052
 3.224 	0.449 	-0.191
 3.010 	-0.072 	0.230
 2.591 	-0.077 	0.339
 4.661 	-0.753 	-0.095
 5.077 	-0.361 	-0.155
 5.683 	0.391 	-0.275
 5.070 	0.880 	-0.356
 4.522 	0.344 	0.108
 4.844 	-0.856 	-0.436
 5.401 	-1.176 	-0.995
 4.677 	-0.768 	0.085
 3.469 	-0.502 	0.304
 3.989 	0.413 	-0.196
 4.259 	0.845 	-0.049
 3.884 	0.549 	0.060
 3.184 	1.083 	0.253
 2.717 	0.951 	0.270
 2.514 	-0.320 	0.212
 2.350 	-0.602 	0.215
 4.294 	-0.505 	-0.120
 4.498 	-0.193 	0.008
 4.799 	0.503 	0.088
 4.908 	1.347 	-0.041
 5.330 	0.699 	-0.426
 5.280 	0.112 	-0.475
 5.167 	0.127 	-0.459
 4.874 	0.031 	0.037
 4.950 	-0.714 	0.422
 3.230 	-0.162 	0.121
 2.861 	0.634 	0.173
 3.143 	1.288 	0.197
 2.744 	1.211 	0.235
 2.734 	0.462 	0.203
 2.438 	-0.573 	0.115
 1.859 	-1.149 	0.091
 4.351 	-0.450 	0.031
 4.297 	-0.309 	0.086
 4.718 	0.093 	0.037
 5.077 	0.484 	0.072
 4.937 	0.581 	0.097
 4.920 	0.780 	-0.239
 5.261 	0.527 	-0.539
 5.831 	0.672 	-0.289
 4.781 	0.200 	0.158
 3.387 	0.248 	0.252
 2.745 	0.424 	0.156
 2.705 	0.783 	0.106
 2.926 	0.416 	0.109
 3.201 	0.143 	0.037
 3.124 	-0.012 	-0.029
 3.289 	-0.527 	-0.338
 4.771 	0.079 	-0.181
 4.905 	-0.417 	-0.033
 4.376 	-0.233 	0.133
 4.374 	0.351 	-0.066
 4.774 	0.798 	-0.200
 5.329 	0.817 	-0.348
 5.627 	0.952 	-0.386
 5.710 	1.306 	-0.306
 5.526 	1.312 	-0.071
 5.177 	0.869 	0.407
 3.793 	0.673 	0.273
 2.749 	0.315 	0.476
 2.870 	-0.425 	0.069
 3.263 	-0.553 	-0.313
 3.159 	-0.138 	-0.093
 2.941 	0.206 	-0.104
 4.822 	-0.041 	-0.579
 5.246 	0.361 	-0.127
 4.625 	0.421 	-0.010
 4.093 	0.498 	-0.112
 4.308 	0.891 	-0.045
 4.888 	1.201 	0.007
 5.302 	1.652 	0.477
 4.987 	1.925 	0.541
 5.252 	1.570 	0.391
 5.532 	1.194 	0.313
 4.478 	0.642 	0.372
 4.016 	-0.182 	0.084
 4.249 	-0.383 	-0.438
 4.000 	-0.032 	-0.473
 3.670 	0.110 	-0.129
 3.800 	-0.023 	-0.101
 3.876 	0.055 	0.055
 4.450 	0.700 	0.157
 4.246 	0.275 	0.154
 3.737 	0.617 	0.186
 3.362 	0.994 	0.253
 2.937 	1.057 	0.265
 2.888 	0.868 	0.175
 3.518 	0.142 	-0.012
 3.954 	-0.171 	0.191
 4.192 	0.221 	0.252
 4.400 	0.326 	0.016
 4.722 	0.586 	-0.504
 4.406 	0.859 	-0.639
 3.805 	0.675 	-0.341
 3.368 	0.492 	-0.095
 3.192 	0.195 	-0.029
 3.000 	-0.968 	-0.008
 3.414 	-0.029 	0.232
 2.973 	0.442 	0.392
 2.816 	0.138 	0.324
 3.407 	0.447 	0.255
 3.661 	0.824 	0.240
 4.107 	0.682 	-0.170
 4.145 	0.497 	-0.301
 3.772 	-0.084 	-0.030
 3.387 	-0.066 	0.213
 3.160 	0.350 	0.254
 3.073 	0.931 	0.340
 3.085 	1.600 	0.243
 3.239 	1.753 	-0.028
 3.290 	1.162 	-0.091
 3.293 	0.518 	-0.080
 3.148 	-0.930 	-0.047
 3.563 	-0.263 	-0.071
 4.078 	0.546 	-0.134
 3.881 	-0.105 	-0.233
 3.927 	-0.200 	-0.063
 4.179 	0.052 	-0.016
 4.393 	0.624 	0.102
 3.984 	0.906 	0.208
 3.875 	0.496 	0.335
 3.462 	-0.029 	0.228
 3.167 	0.220 	0.215
 3.054 	0.655 	0.247
 2.926 	0.944 	0.264
 3.112 	1.012 	0.169
 3.627 	0.839 	0.026
 4.469 	0.542 	-0.281
 5.157 	-0.335 	-0.348
 4.897 	-0.604 	0.015
 3.170 	0.512 	0.443
 2.932 	0.835 	-0.320
 2.857 	0.235 	0.032
 2.211 	-0.048 	0.247
 2.160 	0.096 	0.124
 3.029 	0.297 	-0.124
 3.693 	0.222 	0.175
 3.282 	-0.120 	0.183
 2.678 	-0.362 	0.283
 2.495 	-0.100 	0.135
 2.944 	0.198 	-0.148
 3.544 	0.232 	-0.367
 4.028 	0.396 	-0.642
 4.144 	0.568 	-0.544
 3.716 	0.781 	-0.109
 3.890 	0.609 	-0.257
 4.262 	0.436 	-0.328
 4.763 	-0.217 	-0.229
 5.270 	-0.570 	0.046
 5.148 	-0.182 	0.191
 4.792 	0.222 	0.418
 4.525 	0.199 	0.429
 4.862 	-0.322 	-0.139
 5.055 	-0.324 	-0.612
 5.263 	-0.333 	-0.643
 5.427 	-0.047 	-0.429
 5.448 	0.339 	-0.019
 5.115 	0.571 	-0.090
 5.420 	0.666 	-0.191
 5.844 	0.209 	-0.030
 3.585 	0.781 	-0.075
 3.901 	0.233 	-0.048
 4.281 	-0.448 	0.054
 4.803 	-0.418 	0.215
 5.031 	-0.233 	0.345
 4.915 	-0.277 	0.286
 5.037 	0.104 	0.005
 5.281 	0.338 	0.041
 4.921 	-0.030 	0.119
 4.846 	-0.277 	0.180
 5.174 	-0.887 	-0.134
 5.298 	-1.249 	-0.328
 5.769 	-0.233 	-0.459
 6.581 	0.468 	-0.281
 6.734 	0.151 	-0.089
 6.352 	-0.104 	-0.217
 4.471 	0.458 	0.652
 5.512 	0.114 	0.348
 6.023 	-0.707 	-0.085
 4.614 	-0.418 	0.596
 4.224 	-0.511 	0.802
 4.647 	-0.362 	0.706
 4.680 	0.031 	0.285
 4.879 	0.134 	0.042
 5.357 	0.096 	0.032
 5.505 	-0.548 	-0.243
 5.730 	-1.026 	-0.109
 6.323 	-1.071 	-0.238
 6.006 	-0.986 	-0.093
 5.747 	0.074 	-0.035
 5.658 	0.353 	-0.042
 5.615 	-0.276 	-0.309
 6.329 	-0.129 	-0.006
 6.747 	-0.472 	-0.004
 6.893 	-0.985 	-0.186
 6.581 	-0.073 	0.011
 5.738 	-0.106 	0.163
 5.165 	-0.602 	0.957
 5.110 	-0.320 	0.770
 5.537 	-0.386 	0.463
 5.912 	-0.682 	-0.038
 6.316 	-0.915 	-0.353
 6.400 	-1.220 	-0.167
 6.574 	-1.111 	0.098
 6.873 	-0.731 	-0.635
 7.017 	-0.005 	-0.305
 6.579 	0.242 	0.016
 6.368 	-0.101 	0.149
 6.510 	-0.625 	-0.252
 6.366 	-0.486 	-0.482
 6.412 	-0.317 	-0.658
 6.660 	-0.571 	-0.360
 6.682 	0.256 	0.219
 6.125 	0.568 	0.553
 5.543 	0.628 	0.248
 5.808 	0.108 	-0.190
 6.510 	-0.299 	-0.634
 7.114 	-1.433 	-0.205
 6.645 	-1.219 	-0.010
 6.228 	-0.453 	0.189
 6.316 	-0.555 	-0.285
 6.474 	-0.559 	-0.344
 6.837 	-0.070 	0.120
 6.966 	0.725 	0.152
 6.746 	-0.794 	-0.212
 6.474 	-0.141 	-0.367
 6.569 	-0.142 	-0.606
 6.801 	-0.231 	-0.320
 6.899 	0.205 	-0.059
 7.145 	0.765 	-0.050
 7.222 	0.371 	-0.132
 6.955 	-0.112 	-0.411
 6.857 	-0.532 	-0.608
 6.443 	-2.189 	0.313
 5.472 	-0.998 	-0.099
 5.335 	0.161 	0.207
 5.788 	0.179 	-0.053
 5.739 	0.002 	-0.075
 5.511 	-0.554 	0.578
 6.539 	-0.128 	0.287
 6.883 	-0.671 	0.120
 6.482 	0.004 	-0.559
 6.363 	-0.015 	-0.774
 6.596 	-0.038 	-0.754
 7.204 	-0.055 	-0.337
 7.547 	0.520 	-0.299
 7.048 	0.255 	-0.306
 7.137 	-0.256 	-0.798
 7.595 	-0.764 	-0.860
 7.538 	-0.040 	-0.529
 4.855 	-0.466 	1.189
 4.564 	-0.288 	0.728
 5.413 	0.221 	0.015
 5.577 	0.910 	-0.297
 4.790 	-0.061 	0.814
 3.443 	-0.210 	0.607
 6.439 	0.111 	-0.095
 6.283 	-0.073 	-0.447
 6.480 	-0.327 	-0.330
 6.424 	0.306 	-0.214
 7.252 	0.683 	-0.574
 6.497 	0.553 	-0.161
 5.533 	0.060 	-0.453
 5.445 	-0.682 	0.300
 5.705 	-0.718 	0.698
 5.371 	0.166 	0.171
 4.741 	0.134 	0.422
 4.018 	0.302 	0.383
 2.940 	0.499 	0.651
 2.736 	0.893 	0.995
 2.989 	0.235 	0.795
 3.395 	0.042 	0.565
 5.920 	-0.343 	-0.141
 6.307 	-0.051 	-0.358
 6.268 	0.025 	0.169
 5.683 	0.498 	0.018
 5.737 	0.284 	-0.363
 5.772 	-0.222 	-0.196
 6.066 	-0.092 	-0.762
 5.302 	0.830 	0.346
 4.474 	-0.717 	1.254
 3.997 	-0.338 	0.795
 3.629 	-0.225 	0.144
 3.348 	0.347 	0.391
 2.908 	0.739 	0.653
 3.239 	0.424 	0.312
 3.666 	-0.095 	-0.004
 3.982 	-0.507 	-0.020
 6.213 	-0.027 	-0.089
 6.321 	-0.285 	0.062
 6.857 	0.536 	-0.291
 7.013 	0.817 	-0.064
 7.217 	0.526 	-0.524
 6.734 	-0.136 	-0.525
 6.010 	0.077 	-0.407
 6.088 	1.074 	-0.383
 5.877 	0.579 	0.135
 5.641 	-0.094 	0.726
 4.973 	0.422 	0.013
 4.213 	0.814 	0.428
 4.316 	0.379 	0.440
 4.860 	-0.491 	0.305
 5.370 	-0.986 	-0.033
 5.584 	-0.847 	-0.356
 6.375 	0.241 	-0.039
 6.175 	0.142 	-0.035
 5.998 	-0.072 	0.001
 6.372 	0.207 	-0.075
 6.651 	0.126 	-0.028
 6.611 	0.086 	-0.112
 6.099 	0.091 	-0.161
 6.066 	0.865 	-0.593
 5.841 	1.277 	-0.129
 5.277 	0.769 	0.948
 5.196 	1.045 	0.551
 5.586 	1.236 	0.215
 5.496 	0.609 	-0.300
 5.954 	-0.676 	-0.771
 6.586 	-1.145 	-0.846
 6.820 	-0.808 	-0.685
 5.150 	-0.190 	-0.410
 5.134 	-0.197 	-0.429
 5.205 	0.141 	-0.049
 4.876 	-0.049 	-0.037
 4.446 	-0.534 	-0.159
 4.498 	-0.322 	-0.112
 4.233 	-0.058 	0.196
 4.049 	0.324 	0.568
 4.720 	1.146 	0.657
 5.092 	1.496 	1.188
 5.652 	1.491 	0.550
 6.644 	1.260 	-0.561
 6.867 	0.274 	-0.981
 6.611 	-0.280 	-0.958
 6.621 	-0.408 	-0.637
 6.801 	-0.082 	-0.516
 4.077 	-0.313 	-0.072
 4.118 	-0.080 	-0.045
 4.062 	-0.155 	0.324
 3.866 	-0.355 	0.334
 3.711 	-0.429 	0.541
 3.936 	-1.064 	0.302
 4.190 	-0.113 	0.361
 4.621 	0.423 	0.287
 4.877 	0.825 	0.455
 5.671 	1.350 	-0.079
 6.323 	1.310 	-0.518
 6.899 	0.752 	-0.824
 7.221 	0.546 	-1.132
 6.767 	0.413 	-1.119
 6.445 	0.670 	-0.749
 6.202 	0.655 	-0.344
 4.713 	-0.299 	-0.234
 4.638 	-0.630 	0.663
 3.814 	0.233 	0.772
 4.204 	0.187 	0.348
 5.527 	-0.575 	-0.022
 5.568 	-1.296 	0.354
 5.102 	-1.164 	-0.052
 4.901 	-0.461 	-0.441
 5.358 	0.143 	-0.197
 6.042 	0.252 	-0.011
 6.513 	0.480 	-0.020
 6.729 	0.483 	-0.184
 6.711 	0.378 	-0.275
 6.345 	0.732 	-0.307
 5.847 	1.292 	-0.419
 5.820 	1.236 	-0.272
 5.852 	0.345 	-0.474
 5.511 	0.152 	-0.015
 5.736 	0.453 	0.271
 5.874 	0.283 	-0.115
 6.260 	-0.274 	-0.247
 5.660 	-0.633 	0.496
 4.427 	-0.742 	0.002
 3.892 	-0.933 	0.406
 4.249 	0.013 	0.669
 4.945 	0.288 	0.561
 5.542 	0.483 	0.422
 5.710 	0.610 	0.362
 5.972 	0.966 	0.135
 5.728 	1.317 	-0.187
 5.445 	1.416 	-0.344
 5.770 	0.944 	-0.625
 5.477 	0.056 	-0.437
 5.525 	0.380 	0.047
 6.044 	0.328 	-0.173
 6.215 	0.156 	-0.094
 6.271 	-0.169 	0.054
 5.321 	0.503 	0.437
 5.305 	0.215 	-0.556
 5.331 	-0.498 	0.328
 4.911 	-0.251 	0.537
 4.741 	0.049 	0.517
 5.053 	0.324 	0.369
 5.574 	0.701 	0.093
 5.987 	0.906 	-0.241
 5.891 	1.336 	-0.116
 5.674 	1.053 	-0.359
 5.300 	0.417 	-0.009
 5.578 	0.626 	-0.159
 5.960 	0.792 	-0.273
 6.025 	0.957 	-0.334
 5.766 	0.766 	-0.199
 5.436 	0.758 	-0.033
 4.942 	0.466 	0.600
 4.984 	0.292 	0.827
 5.733 	-0.021 	0.270
 6.209 	-0.174 	-0.207
 6.054 	0.002 	-0.496
 5.592 	-0.043 	-0.171
 4.909 	-0.246 	0.135
 4.891 	0.332 	0.240
 5.179 	0.994 	-0.134
 5.025 	1.198 	-0.079
 4.996 	0.830 	0.008
 4.743 	0.309 	0.201
 4.454 	0.220 	0.264
 4.476 	-0.037 	0.598
 5.250 	0.068 	0.531
 5.948 	0.570 	0.415
 6.092 	0.535 	0.128
 6.076 	0.232 	-0.070
 5.927 	-0.362 	0.013
 5.546 	-0.315 	0.173
 5.704 	0.108 	-0.067
 5.717 	0.148 	-0.117
 5.566 	-0.192 	0.163
 6.221 	0.385 	0.084
 5.762 	1.028 	0.035
 5.828 	1.078 	-0.045
 6.450 	0.422 	-0.304
 5.424 	0.328 	0.265
 5.416 	0.069 	-0.003
 5.079 	-0.551 	-0.161
 5.304 	-0.369 	0.700
 5.406 	0.134 	0.876
 5.758 	0.227 	0.586
 6.241 	0.173 	0.069
 5.950 	0.255 	0.047
 5.562 	0.292 	0.169
 5.605 	-0.194 	-0.090
 6.372 	-0.757 	-0.208
 6.761 	-0.949 	0.037
 6.224 	-0.568 	0.379
 6.247 	0.200 	0.151
 6.368 	0.677 	0.081
 6.274 	0.253 	-0.043
 6.119 	0.310 	0.103
 5.898 	0.216 	0.027
 5.505 	0.071 	-0.504
 5.320 	-0.006 	0.357
 5.413 	0.191 	0.660
 5.398 	0.393 	0.567
 5.256 	0.478 	0.384
 5.233 	0.235 	0.229
 5.635 	-0.352 	-0.403
 6.198 	-1.059 	-0.398
 6.777 	-1.278 	-0.279
 6.922 	-1.102 	-0.343
 6.695 	-0.676 	-0.460
 6.318 	-0.005 	0.261
 6.345 	0.257 	0.093
 6.307 	0.230 	0.345
 6.590 	0.242 	-0.147
 6.484 	-0.125 	-0.130
 6.499 	-0.356 	-0.280
 6.314 	0.198 	-0.372
 6.190 	0.358 	0.344
 6.146 	0.604 	0.165
 5.910 	0.689 	0.049
 6.254 	-0.072 	-0.611
 6.666 	-0.658 	-0.615
 6.596 	-1.642 	0.275
 6.855 	-1.235 	0.389
 6.791 	-0.478 	-0.017
 6.642 	-0.496 	-0.530
 6.574 	0.035 	-0.673
 6.696 	0.087 	-0.030
 6.935 	0.090 	0.262
 6.929 	0.321 	-0.066
 6.877 	-0.083 	-0.069
 6.828 	-0.537 	-0.331
 6.488 	-0.131 	-0.487
 6.732 	0.244 	-0.012
 7.209 	0.373 	0.179
 7.717 	0.278 	-0.001
 7.655 	-0.069 	-0.398
 7.385 	-0.485 	-0.579
 6.613 	-1.940 	0.439
 6.568 	-1.125 	0.511
 6.360 	-0.537 	-0.027
 6.359 	-0.324 	-0.370
 6.312 	-0.072 	-0.199
 6.550 	0.004 	0.264
 6.957 	0.279 	-0.145
 6.769 	0.028 	0.135
 6.619 	-0.386 	-0.153
 6.778 	-0.729 	-0.530
 7.083 	-0.526 	-0.675
 7.110 	0.039 	-0.584
 7.384 	0.063 	-0.370
 7.578 	0.022 	-0.528
 7.208 	-0.059 	-0.510
 7.744 	-1.136 	-0.603
 6.386 	-0.554 	0.210
 4.873 	-1.007 	1.329
 4.836 	-0.761 	0.264
 4.695 	-0.504 	-0.046
 4.859 	-0.194 	-0.066
 5.224 	-0.046 	0.366
 5.555 	-0.481 	0.145
 6.884 	0.110 	-0.282
 7.120 	-0.400 	-0.846
 6.870 	-0.707 	-0.905
 7.094 	-0.417 	-0.567
 6.749 	0.045 	-0.859
 6.633 	0.215 	-0.091
 6.282 	0.437 	0.113
 5.834 	-0.188 	0.367
 4.518 	-0.713 	0.533
 3.614 	-0.762 	1.192
 3.912 	-0.649 	0.890
 3.922 	-0.370 	0.418
 3.689 	-0.386 	0.193
 3.665 	-0.136 	0.292
 4.075 	0.042 	0.543
 4.462 	-0.088 	0.727
 6.969 	0.118 	-0.399
 7.040 	-0.330 	-0.513
 6.883 	-0.450 	-0.179
 7.354 	0.102 	-0.056
 6.996 	0.536 	-0.089
 6.715 	0.745 	-0.136
 6.663 	0.310 	-0.595
 6.040 	0.484 	0.122
 5.146 	0.801 	0.608
 5.506 	-0.126 	0.341
 5.245 	-0.684 	1.225
 3.334 	0.231 	1.282
 4.077 	-0.124 	0.621
 4.772 	-0.248 	0.233
 4.894 	-0.204 	0.257
 5.061 	-0.655 	0.499
 6.452 	0.031 	-0.185
 6.395 	-0.379 	-0.081
 6.584 	-0.098 	-0.038
 6.842 	0.317 	-0.198
 6.776 	0.711 	-0.232
 6.875 	0.729 	-0.208
 6.610 	0.276 	-0.070
 6.432 	0.979 	0.009
 6.534 	0.868 	-0.439
 6.489 	0.281 	-0.262
 5.816 	0.383 	1.001
 5.349 	0.170 	0.692
 5.244 	0.148 	0.425
 5.675 	0.240 	-0.194
 6.480 	-0.121 	-0.736
 6.883 	-0.759 	-0.721
 6.008 	0.171 	0.182
 5.841 	-0.048 	-0.027
 5.945 	-0.353 	-0.059
 6.088 	-0.414 	0.054
 6.323 	-0.343 	0.344
 6.534 	-0.330 	0.472
 7.165 	0.256 	0.124
 6.680 	0.545 	-0.055
 6.249 	0.661 	-0.030
 6.274 	0.765 	0.019
 6.651 	0.765 	-0.177
 7.015 	0.495 	-0.059
 6.804 	0.469 	-0.027
 6.724 	-0.100 	-0.654
 7.025 	-0.451 	-0.912
 7.102 	-0.452 	-0.812
 5.550 	0.039 	0.317
 5.340 	-0.468 	0.300
 4.485 	-0.603 	0.284
 4.466 	-0.324 	0.638
 4.750 	-0.510 	0.522
 5.283 	-0.567 	0.311
 5.898 	-0.327 	0.005
 6.168 	0.198 	0.099
 6.258 	0.291 	0.203
 6.161 	0.404 	0.289
 6.627 	0.765 	0.033
 6.966 	0.804 	-0.408
 7.301 	0.116 	-0.738
 7.294 	-0.493 	-0.964
 7.249 	-0.366 	-1.001
 7.316 	-0.385 	-0.986
 5.372 	-0.459 	0.079
 5.048 	-0.339 	0.144
 5.167 	-0.127 	0.043
 5.263 	-0.524 	-0.084
 4.905 	-0.518 	0.164
 4.430 	-0.865 	0.488
 4.415 	-0.566 	1.079
 5.022 	-0.164 	1.027
 5.645 	-0.285 	0.715
 6.211 	-0.857 	0.248
 6.733 	-0.136 	-0.061
 7.061 	0.385 	-0.340
 6.627 	-0.240 	-0.594
 6.532 	-0.568 	-0.995
 6.806 	-0.461 	-1.280
 7.173 	-0.413 	-1.183
 5.460 	0.201 	-0.047
 5.166 	0.295 	0.437
 5.861 	-0.216 	0.211
 5.951 	-0.558 	-0.121
 5.276 	-0.541 	-0.254
 5.146 	-0.580 	0.132
 5.395 	-0.681 	0.124
 5.491 	-0.925 	0.201
 5.787 	-0.961 	0.286
 6.303 	-1.001 	-0.026
 6.668 	-0.775 	-0.212
 6.814 	-0.270 	-0.208
 6.563 	-0.069 	-0.264
 6.482 	-0.272 	-0.512
 6.632 	-0.261 	-0.817
 6.846 	-0.087 	-0.847
 6.875 	0.430 	-0.095
 6.529 	0.472 	-0.023
 6.330 	0.101 	0.014
 5.939 	-0.060 	-0.310
 5.450 	-0.073 	-0.282
 5.428 	-0.403 	0.134
 5.296 	-0.603 	0.249
 5.340 	-1.132 	0.004
 5.817 	-1.270 	0.014
 6.133 	-0.953 	-0.189
 6.181 	-0.478 	-0.475
 6.374 	-0.167 	-0.199
 6.644 	-0.097 	-0.018
 6.978 	-0.086 	-0.407
 6.562 	0.523 	-0.518
 5.855 	0.414 	-0.470
 5.805 	-0.238 	-0.033
 5.868 	0.150 	-0.003
 5.881 	0.234 	-0.119
 5.724 	0.236 	-0.246
 5.669 	0.159 	-0.212
 5.934 	0.045 	-0.063
 6.491 	-0.307 	-0.505
 6.383 	-0.508 	-0.676
 6.101 	-0.464 	0.051
 6.206 	-0.459 	0.513
 6.095 	-0.181 	0.105
 5.729 	0.126 	-0.103
 5.569 	0.161 	-0.239
 5.846 	0.099 	-0.116
 5.334 	0.734 	0.247
 5.067 	0.703 	0.707
 5.449 	0.979 	0.206
 5.379 	0.824 	0.059
 5.560 	0.298 	-0.064
 5.704 	0.073 	-0.155
 6.028 	-0.063 	-0.065
 6.376 	0.232 	0.349
 6.465 	0.570 	0.434
 6.604 	0.574 	0.254
 6.557 	0.626 	-0.034
 6.450 	0.233 	-0.375
 6.763 	0.123 	-0.230
 6.882 	-0.005 	0.460
 6.417 	0.241 	-0.048
 5.866 	0.461 	-0.242
 6.010 	0.298 	-0.029
 6.418 	0.013 	0.112
 5.126 	0.815 	0.639
 4.943 	0.224 	0.678
 4.759 	-0.206 	0.882
 5.191 	-0.344 	1.074
 5.846 	-0.338 	0.803
 6.213 	-0.224 	0.240
 6.321 	0.147 	0.251
 6.351 	0.219 	0.259
 6.555 	-0.098 	0.232
 6.614 	0.137 	0.061
 6.470 	0.363 	-0.280
 6.373 	0.401 	0.309
 6.305 	0.504 	0.547
 6.516 	0.163 	0.279
 6.625 	-0.240 	0.017
 6.790 	-0.481 	-0.159
 5.756 	0.604 	0.239
 5.820 	0.411 	0.142
 6.097 	-0.214 	0.065
 6.408 	-0.627 	0.445
 6.598 	-0.621 	0.695
 6.638 	-0.270 	0.403
 6.450 	0.214 	0.083
 6.040 	0.063 	0.126
 5.872 	-0.188 	0.167
 5.964 	0.074 	0.216
 5.847 	0.708 	0.027
 5.697 	0.604 	0.040
 5.978 	0.031 	0.669
 6.515 	-0.159 	0.500
 6.758 	-0.596 	0.205
 6.643 	-0.849 	0.059
 6.366 	0.566 	-0.203
 6.699 	-0.118 	-0.118
 6.921 	-0.528 	0.032
 6.891 	-0.305 	0.010
 6.796 	-0.233 	0.470
 6.294 	0.045 	0.570
 5.593 	0.615 	0.436
 5.534 	0.135 	0.118
 5.902 	-0.432 	-0.108
 6.003 	-0.435 	-0.066
 6.279 	-0.171 	-0.039
 6.335 	0.068 	-0.208
 6.372 	0.092 	-0.126
 6.903 	-0.068 	0.212
 7.324 	-0.399 	0.342
 7.202 	-0.588 	0.053
 7.205 	0.351 	0.009
 7.346 	-0.163 	0.063
 6.737 	-0.652 	0.060
 6.348 	-0.582 	0.076
 6.673 	0.001 	0.357
 6.694 	0.464 	0.442
 6.915 	0.663 	0.117
 6.699 	0.038 	-0.334
 6.382 	-0.625 	-0.192
 6.243 	-1.315 	0.568
 6.895 	-1.025 	0.524
 7.174 	-0.698 	0.102
 7.198 	-0.862 	-0.115
 7.203 	-0.591 	-0.094
 7.350 	-0.239 	0.184
 7.311 	-0.105 	0.122
 7.536 	0.251 	-0.221
 7.697 	0.092 	-0.014
 7.600 	-0.615 	-0.007
 7.125 	-0.431 	0.014
 6.690 	-0.060 	-0.060
 6.895 	0.293 	-0.061
 7.215 	0.409 	-0.162
 7.333 	0.094 	-0.208
 7.119 	-0.692 	-0.215
 7.088 	-1.546 	0.155
 7.290 	-1.461 	0.722
 7.314 	-0.854 	0.133
 6.882 	-1.105 	-0.173
 6.250 	-0.889 	-0.276
 6.361 	-0.780 	-0.193
 6.791 	-0.468 	-0.097
 7.398 	0.139 	0.178
 7.536 	-0.044 	-0.068
 7.325 	-0.573 	-0.283
 7.201 	-0.418 	-0.388
 7.154 	-0.281 	-0.512
 7.313 	0.175 	-0.457
 7.341 	0.340 	-0.340
 7.152 	0.060 	-0.276
 7.519 	-1.030 	-0.460
 6.893 	-1.054 	0.819
 7.089 	-0.516 	1.184
 7.052 	-0.557 	0.141
 6.557 	-0.727 	-0.173
 5.396 	-0.772 	-0.074
 5.505 	-0.642 	0.302
 5.973 	-0.410 	0.388
 7.018 	-0.064 	-0.356
 7.120 	-0.408 	-0.551
 7.124 	-0.917 	-0.621
 7.354 	-0.751 	-0.801
 7.093 	-0.302 	-0.778
 6.710 	0.298 	-0.264
 6.744 	0.406 	0.013
 6.560 	-0.147 	0.369
 4.788 	-0.621 	1.214
 4.363 	-0.493 	1.381
 5.293 	-0.434 	0.611
 5.591 	-0.175 	0.146
 4.771 	-0.065 	0.183
 4.647 	-0.212 	0.473
 5.066 	-0.711 	0.841
 5.646 	-0.855 	0.748
 6.803 	-0.381 	-0.402
 6.774 	-0.576 	-0.503
 6.686 	-0.952 	-0.414
 6.328 	-0.847 	-0.363
 6.495 	-0.140 	-0.293
 6.852 	0.408 	0.018
 6.718 	-0.138 	0.185
 6.398 	-0.177 	0.277
 5.906 	0.167 	0.661
 5.464 	-0.109 	0.623
 5.331 	-0.600 	1.072
 6.234 	-0.233 	0.521
 6.196 	-0.059 	-0.147
 6.293 	-0.196 	-0.540
 6.676 	-0.771 	-0.673
 6.516 	-0.701 	0.264
 6.963 	-0.370 	-0.321
 6.556 	-0.326 	-0.374
 6.300 	-0.720 	-0.221
 6.340 	-0.828 	-0.029
 6.434 	-0.690 	-0.068
 6.641 	-0.638 	-0.090
 6.769 	-0.678 	0.189
 6.892 	-0.614 	0.363
 6.643 	-0.373 	0.115
 6.405 	-0.271 	-0.201
 6.493 	-0.165 	0.438
 6.953 	-0.249 	0.714
 7.499 	-0.393 	0.065
 7.311 	-0.406 	-0.290
 7.194 	-0.400 	-0.519
 7.457 	-0.497 	-0.563
 6.169 	-0.030 	0.137
 6.154 	-0.172 	-0.019
 6.383 	-0.423 	-0.044
 6.691 	-0.509 	0.141
 6.832 	-0.551 	0.351
 6.949 	-0.596 	0.370
 6.945 	-0.744 	0.226
 6.730 	-0.799 	0.228
 6.627 	-0.759 	-0.032
 6.543 	-0.547 	0.046
 6.680 	-0.286 	-0.186
 7.116 	-0.312 	-0.167
 7.623 	-0.378 	-0.193
 7.775 	-0.363 	-0.581
 7.871 	-0.581 	-0.904
 7.897 	-0.756 	-0.874
 5.783 	0.038 	0.644
 6.265 	-0.100 	0.192
 6.757 	-0.365 	0.011
 6.685 	-0.670 	0.298
 6.287 	-0.459 	0.205
 6.122 	-0.718 	0.259
 6.226 	-0.880 	0.375
 6.364 	-0.729 	0.625
 6.557 	-0.878 	0.612
 6.788 	-0.985 	0.239
 6.839 	-0.785 	0.076
 7.242 	-0.616 	-0.245
 7.728 	-0.421 	-0.939
 7.978 	-0.414 	-1.223
 7.877 	-0.479 	-1.002
 7.706 	-0.921 	-0.770
 6.639 	-0.061 	0.010
 6.970 	-0.103 	0.017
 7.098 	0.043 	0.011
 6.649 	0.125 	0.352
 6.560 	-0.071 	0.204
 6.209 	-0.713 	0.391
 5.598 	-0.747 	0.818
 5.602 	-0.559 	1.055
 6.057 	-0.864 	0.834
 6.698 	-1.157 	0.475
 7.095 	-1.234 	0.320
 7.019 	-1.068 	0.045
 7.062 	-0.747 	-0.382
 7.580 	-0.298 	-0.872
 8.005 	-0.410 	-1.111
 7.639 	-0.818 	-1.342
 6.909 	-0.282 	-0.206
 7.163 	-0.413 	-0.010
 7.481 	-0.096 	-0.009
 7.673 	0.344 	-0.008
 7.521 	0.336 	-0.019
 7.414 	-0.358 	-0.095
 7.457 	-0.485 	-0.037
 7.578 	-0.475 	-0.124
 7.644 	-0.823 	-0.159
 7.439 	-1.078 	-0.198
 7.156 	-1.083 	-0.154
 6.908 	-1.004 	0.069
 6.619 	-1.079 	-0.062
 6.906 	-0.932 	-0.458
 7.465 	-0.865 	-0.874
 7.447 	-0.494 	-1.088
 6.174 	-0.450 	0.197
 6.185 	-0.528 	0.087
 6.374 	-0.444 	-0.298
 6.830 	-0.027 	-0.358
 7.301 	0.052 	-0.329
 7.474 	-0.090 	-0.180
 7.595 	-0.136 	-0.375
 7.631 	-0.446 	-0.537
 7.591 	-0.945 	-0.459
 7.729 	-1.096 	-0.523
 7.816 	-0.777 	-0.671
 7.457 	-0.517 	-0.381
 6.951 	-0.689 	-0.299
 6.916 	-1.268 	-0.492
 6.930 	-1.199 	-0.663
 6.639 	-0.351 	-0.743
 6.044 	-0.394 	0.512
 5.981 	-0.286 	0.155
 6.238 	-0.347 	-0.377
 6.555 	-0.123 	-0.531
 6.943 	0.040 	-0.569
 7.290 	0.152 	-0.492
 7.442 	0.127 	-0.494
 7.369 	-0.184 	-0.560
 7.297 	-0.565 	-0.447
 7.430 	-0.559 	0.038
 7.501 	-0.252 	-0.090
 7.528 	-0.028 	-0.343
 7.611 	-0.411 	-0.549
 7.525 	-0.869 	-0.564
 6.275 	-0.199 	0.114
 5.276 	0.533 	0.757
 5.805 	1.121 	0.365
 5.577 	0.954 	0.342
 5.509 	0.658 	0.530
 5.888 	0.470 	0.607
 6.248 	0.198 	0.402
 6.526 	0.022 	0.349
 6.765 	0.282 	0.513
 6.958 	0.329 	0.392
 6.997 	-0.118 	-0.115
 7.029 	-0.295 	-0.377
 6.812 	-0.266 	-0.428
 6.730 	0.072 	-0.075
 6.935 	0.243 	0.156
 6.673 	0.262 	0.023
 6.514 	0.170 	0.000
 6.670 	0.105 	-0.036
 5.506 	1.262 	0.625
 5.475 	0.913 	0.572
 5.544 	0.462 	0.334
 5.862 	0.061 	0.485
 6.272 	-0.254 	0.492
 6.622 	-0.197 	0.196
 6.592 	0.024 	0.379
 6.631 	0.194 	0.630
 6.801 	-0.179 	0.684
 6.873 	-0.623 	0.361
 6.634 	-0.072 	-0.167
 6.164 	0.339 	0.206
 6.326 	0.180 	0.399
 6.594 	-0.134 	0.290
 6.868 	-0.223 	0.174
 7.104 	-0.237 	0.112
 5.680 	1.291 	0.202
 5.641 	0.871 	-0.016
 5.814 	0.547 	0.153
 6.117 	-0.032 	0.288
 6.585 	-0.627 	0.603
 6.755 	-0.445 	0.665
 6.884 	0.058 	0.244
 6.893 	0.283 	0.331
 6.809 	-0.190 	0.205
 6.806 	-0.647 	0.382
 6.709 	-0.504 	0.195
 6.731 	0.265 	0.187
 6.693 	0.325 	0.231
 6.830 	-0.001 	-0.011
 6.893 	-0.273 	-0.007
 6.879 	-0.410 	0.232
 5.992 	1.020 	-0.144
 6.313 	0.558 	0.058
 6.757 	-0.051 	0.129
 7.172 	-0.655 	0.038
 6.945 	-0.732 	0.069
 6.682 	-0.334 	0.802
 6.709 	-0.120 	0.466
 6.823 	0.116 	-0.008
 6.681 	-0.079 	0.083
 6.480 	-0.496 	0.357
 6.407 	-0.534 	0.597
 6.483 	-0.303 	0.411
 6.775 	-0.065 	0.219
 7.050 	-0.067 	0.117
 7.254 	-0.349 	0.032
 7.386 	-0.533 	-0.094
 6.654 	0.712 	0.102
 6.731 	0.092 	-0.009
 6.752 	-0.327 	0.159
 6.741 	-0.624 	0.260
 6.712 	-0.699 	0.310
 6.810 	-0.383 	0.508
 7.087 	-0.295 	0.415
 6.950 	-0.100 	0.015
 6.668 	-0.136 	0.206
 6.537 	-0.535 	0.681
 6.847 	-0.526 	0.668
 6.906 	-0.357 	0.469
 6.929 	-0.371 	0.454
 7.096 	-0.428 	0.433
 7.297 	-0.647 	0.444
 7.498 	-0.865 	0.368
 7.007 	0.544 	-0.307
 6.979 	0.193 	-0.083
 6.978 	-0.262 	0.058
 7.012 	-0.659 	-0.082
 7.029 	-0.867 	-0.172
 7.299 	-0.631 	-0.055
 7.402 	-0.203 	-0.102
 7.092 	-0.060 	-0.168
 7.127 	-0.116 	-0.135
 7.259 	-0.547 	-0.083
 7.540 	-0.676 	0.023
 7.776 	-0.529 	-0.088
 7.836 	-0.583 	0.077
 7.604 	-0.693 	0.054
 7.359 	-0.931 	0.019
 7.401 	-0.869 	-0.007
 7.426 	0.537 	0.115
 7.229 	0.270 	-0.091
 7.301 	-0.102 	-0.497
 7.375 	-0.387 	-0.704
 7.477 	-0.633 	-0.489
 7.286 	-0.646 	-0.284
 7.184 	-0.478 	-0.069
 7.303 	-0.173 	0.042
 7.479 	-0.465 	0.135
 7.608 	-0.879 	0.379
 7.782 	-0.708 	0.339
 7.909 	-0.460 	-0.068
 8.074 	-0.406 	-0.281
 8.073 	-0.575 	-0.308
 7.372 	-0.677 	0.119
 6.636 	-0.625 	0.343
 7.309 	0.075 	0.070
 7.455 	0.120 	0.001
 7.432 	-0.166 	-0.135
 7.313 	-0.518 	-0.293
 7.064 	-0.564 	-0.184
 6.569 	-0.687 	-0.134
 6.332 	-0.794 	-0.059
 6.475 	-0.659 	0.311
 6.647 	-0.545 	1.064
 6.804 	-0.813 	1.200
 6.634 	-0.859 	0.885
 6.746 	-0.566 	0.519
 7.365 	-0.286 	0.094
 7.344 	-0.267 	0.088
 6.432 	-0.081 	0.452
 6.254 	-0.199 	0.512
 7.543 	-0.576 	-0.186
 7.438 	-0.536 	-0.077
 7.300 	-0.511 	-0.191
 7.155 	-0.594 	-0.272
 7.061 	-0.728 	0.029
 6.730 	-0.937 	0.331
 6.577 	-0.951 	0.643
 6.541 	-0.910 	0.611
 6.739 	-0.613 	0.422
 7.060 	-0.494 	0.454
 7.074 	-0.649 	0.656
 7.186 	-0.584 	0.680
 7.416 	-0.605 	0.214
 7.554 	-0.252 	-0.169
 7.423 	0.033 	-0.198
 7.192 	-0.380 	-0.122
 7.527 	-0.529 	-0.447
 7.497 	-0.409 	-0.343
 7.636 	-0.164 	-0.457
 7.745 	-0.322 	-0.334
 7.838 	-0.734 	0.135
 7.507 	-0.759 	0.360
 7.073 	-0.777 	0.491
 6.956 	-0.724 	0.794
 7.095 	-0.825 	0.488
 7.270 	-0.919 	0.184
 7.439 	-0.778 	0.411
 7.616 	-0.626 	0.457
 7.681 	-0.720 	0.026
 7.668 	-0.497 	-0.240
 7.698 	-0.213 	-0.230
 7.717 	-0.281 	-0.097
 6.905 	-0.552 	0.010
 7.100 	-0.443 	-0.157
 7.266 	-0.306 	-0.099
 7.576 	-0.208 	-0.044
 7.921 	-0.303 	0.012
 8.049 	-0.467 	0.155
 7.811 	-0.609 	0.346
 7.374 	-0.916 	0.331
 7.163 	-1.075 	0.278
 7.129 	-1.329 	0.231
 7.369 	-1.369 	-0.196
 7.807 	-1.119 	-0.279
 7.961 	-0.764 	-0.121
 7.888 	-0.447 	-0.408
 7.752 	-0.384 	-0.686
 7.771 	-0.442 	-0.669
 6.987 	-0.536 	0.234
 7.252 	-0.457 	-0.027
 7.361 	-0.355 	-0.191
 7.372 	-0.390 	0.070
 7.365 	-0.289 	0.480
 7.130 	-0.303 	0.499
 6.996 	-0.591 	0.495
 7.066 	-0.856 	0.453
 7.200 	-1.220 	0.258
 6.980 	-1.474 	0.161
 6.999 	-1.603 	0.118
 7.658 	-1.202 	-0.592
 8.327 	-0.789 	-1.438
 8.282 	-0.496 	-1.517
 8.125 	-0.427 	-1.303
 8.029 	-0.554 	-0.954
 7.011 	-0.986 	0.148
 7.055 	-0.968 	0.022
 7.190 	-0.614 	-0.015
 7.302 	-0.256 	0.069
 7.450 	-0.057 	0.251
 7.354 	-0.174 	0.421
 7.232 	-0.502 	0.499
 7.255 	-0.810 	0.435
 7.281 	-0.892 	0.356
 7.312 	-0.968 	0.320
 7.273 	-1.204 	0.173
 7.310 	-1.074 	-0.055
 7.575 	-0.859 	-0.653
 7.993 	-0.519 	-1.034
 8.267 	-0.250 	-0.984
 8.050 	-0.362 	-0.913
 6.489 	-1.038 	-0.044
 6.544 	-0.984 	0.033
 6.666 	-0.763 	0.123
 6.959 	-0.472 	0.099
 7.393 	-0.180 	0.137
 7.818 	-0.186 	-0.060
 7.918 	-0.432 	-0.400
 7.872 	-0.630 	-0.444
 7.914 	-0.653 	-0.271
 7.908 	-0.707 	-0.107
 7.651 	-0.870 	0.028
 7.408 	-1.102 	0.072
 7.370 	-0.990 	-0.127
 7.454 	-0.684 	-0.409
 7.669 	-0.598 	-0.658
 8.037 	-0.398 	-0.804
 6.203 	-1.229 	0.112
 6.349 	-1.292 	0.015
 6.586 	-0.929 	-0.390
 7.037 	-0.645 	-0.518
 7.393 	-0.294 	-0.445
 7.714 	-0.014 	-0.530
 7.930 	0.154 	-0.656
 8.072 	-0.002 	-0.753
 8.186 	-0.277 	-0.796
 8.137 	-0.499 	-0.830
 7.885 	-0.666 	-0.849
 7.738 	-0.730 	-0.747
 7.761 	-0.730 	-0.743
 7.636 	-0.622 	-0.692
 7.342 	-0.652 	-0.485
 7.107 	-0.559 	-0.238
 6.334 	-1.234 	0.410
 6.461 	-1.487 	0.016
 6.637 	-1.367 	-0.351
 6.991 	-1.021 	-0.698
 7.495 	-0.594 	-1.140
 7.859 	0.100 	-1.016
 8.015 	0.415 	-1.116
 8.121 	0.391 	-1.202
 8.320 	0.070 	-0.784
 8.037 	-0.314 	-0.611
 7.941 	-0.627 	-0.571
 8.046 	-0.548 	-0.484
 7.992 	-0.510 	-0.601
 7.695 	-0.428 	-0.730
 7.880 	-0.565 	-0.108
 7.755 	-0.129 	0.097
 6.356 	1.141 	0.314
 6.203 	1.119 	0.334
 6.022 	0.929 	0.309
 6.029 	0.815 	0.340
 6.200 	0.632 	0.323
 6.456 	0.404 	0.376
 6.672 	0.255 	0.481
 6.814 	0.084 	0.337
 6.909 	-0.106 	0.081
 7.020 	-0.250 	-0.138
 7.079 	-0.328 	-0.286
 7.120 	-0.274 	-0.151
 7.294 	0.038 	0.068
 7.351 	0.139 	0.156
 7.067 	0.057 	0.095
 6.869 	0.234 	0.124
 5.787 	1.370 	0.625
 5.703 	1.358 	0.430
 5.805 	1.196 	0.287
 6.051 	0.911 	0.230
 6.276 	0.461 	0.141
 6.580 	0.183 	0.263
 6.831 	0.125 	0.418
 7.018 	-0.076 	0.424
 7.089 	-0.256 	0.431
 7.137 	-0.412 	0.437
 7.199 	-0.495 	0.340
 7.117 	-0.300 	0.190
 6.981 	0.030 	0.240
 6.767 	0.257 	0.202
 6.860 	0.316 	0.117
 7.180 	0.138 	0.140
 5.884 	1.401 	0.379
 5.915 	1.177 	0.231
 5.955 	1.031 	0.192
 6.094 	0.785 	0.536
 6.527 	0.014 	0.890
 6.949 	-0.343 	0.896
 7.214 	-0.203 	0.554
 7.250 	-0.101 	0.330
 7.294 	-0.019 	0.297
 7.246 	-0.246 	0.352
 7.168 	-0.478 	0.422
 7.259 	-0.390 	0.398
 7.209 	-0.314 	0.196
 7.316 	0.046 	0.084
 7.278 	0.184 	0.108
 7.212 	-0.017 	0.318
 6.367 	1.090 	0.152
 6.372 	0.850 	0.181
 6.491 	0.795 	0.246
 6.596 	0.477 	0.124
 6.904 	-0.047 	0.126
 7.264 	-0.421 	0.363
 7.427 	-0.397 	0.361
 7.295 	-0.371 	0.268
 7.026 	-0.355 	0.333
 6.936 	-0.343 	0.362
 6.655 	-0.353 	0.337
 6.422 	-0.383 	0.454
 6.465 	-0.411 	0.434
 6.690 	-0.297 	0.335
 7.040 	-0.137 	0.252
 7.336 	-0.140 	0.286
 6.769 	0.995 	0.183
 6.768 	0.757 	0.041
 6.956 	0.368 	0.006