# vtk DataFile Version 3.0
HighT1
ASCII
DATASET STRUCTURED_POINTS
DIMENSIONS 16 16 19
ORIGIN 929.001000000000 929.001000000000 5.001000000000
SPACING 10.000000000000 10.000000000000 10.000000000000
POINT_DATA 4864
FIELD attributes 1
U 3 4864 float
2.820 	0.535 	0.162
 3.019 	-0.676 	-0.010
 2.922 	-0.964 	0.241
 2.913 	-0.484 	0.086
 3.148 	-0.403 	0.320
 3.134 	-0.474 	0.324
 3.117 	-0.248 	0.192
 3.195 	-0.486 	0.152
 3.221 	-0.648 	-0.042
 3.435 	-0.566 	-0.144
 3.514 	-0.324 	0.038
 3.535 	-0.253 	0.093
 3.866 	-0.093 	0.171
 3.852 	-0.326 	0.065
 3.509 	-0.129 	0.010
 3.693 	-0.010 	-0.189
 3.849 	-0.139 	-0.582
 4.279 	-0.064 	-0.459
 4.909 	0.619 	-0.636
 4.752 	0.184 	-0.229
 4.148 	-0.680 	0.174
 3.489 	-0.315 	0.015
 3.009 	0.001 	-0.077
 2.765 	-0.190 	-0.037
 2.927 	-0.274 	0.002
 3.329 	-0.448 	0.061
 3.883 	-0.623 	0.109
 4.384 	-1.313 	0.116
 4.519 	-0.431 	0.099
 4.250 	-0.342 	0.063
 3.420 	-0.329 	0.070
 3.222 	-0.547 	0.039
 3.888 	0.387 	-0.359
 4.082 	0.303 	-0.204
 4.287 	0.312 	0.122
 4.797 	0.861 	-0.061
 5.104 	0.624 	-0.028
 3.688 	0.283 	0.336
 3.395 	0.166 	0.378
 4.278 	-1.058 	0.478
 4.652 	-1.030 	0.017
 4.411 	-0.953 	0.015
 3.659 	-1.711 	0.062
 3.769 	-0.618 	0.238
 3.495 	-0.333 	0.150
 3.257 	-0.236 	0.292
 4.097 	-0.900 	0.105
 4.499 	-0.911 	-0.071
 3.517 	0.232 	0.025
 4.151 	0.508 	-0.364
 4.480 	0.541 	-0.414
 4.718 	0.636 	-0.028
 4.809 	1.040 	-0.015
 5.005 	0.647 	0.071
 5.444 	-0.261 	-0.010
 4.950 	-0.684 	0.060
 4.630 	-0.893 	-0.022
 4.676 	-1.268 	0.135
 4.440 	-1.114 	-0.251
 3.740 	-0.889 	-0.233
 3.757 	-0.324 	0.288
 3.408 	-0.949 	0.164
 3.668 	-1.590 	0.364
 4.227 	-2.008 	0.511
 3.341 	-0.059 	0.083
 3.400 	0.336 	0.080
 3.893 	0.762 	-0.136
 4.636 	0.884 	-0.166
 4.902 	0.671 	-0.022
 5.346 	0.127 	0.067
 5.203 	-0.326 	-0.072
 4.846 	-0.220 	-0.082
 3.965 	-0.144 	0.003
 3.772 	-0.675 	-0.003
 3.405 	-1.061 	0.043
 3.009 	-1.004 	0.393
 2.932 	-0.737 	0.606
 4.159 	-1.514 	0.287
 5.453 	-1.735 	-0.439
 5.716 	-2.089 	0.158
 3.556 	0.071 	-0.109
 3.798 	0.074 	-0.050
 4.105 	0.251 	-0.065
 4.359 	0.482 	-0.023
 4.554 	0.579 	-0.026
 4.556 	0.228 	-0.024
 4.359 	0.067 	-0.057
 4.270 	0.157 	0.119
 4.236 	0.416 	0.025
 4.009 	0.089 	-0.244
 4.356 	-0.155 	-0.178
 4.894 	-0.687 	-0.076
 5.610 	-0.935 	-0.234
 6.386 	-0.576 	-1.085
 6.561 	-1.092 	-0.420
 7.199 	-0.829 	-0.572
 3.328 	-0.367 	0.334
 3.712 	-0.404 	0.283
 3.614 	-0.553 	0.514
 3.715 	-0.157 	0.304
 4.196 	0.303 	0.114
 4.462 	-0.027 	0.066
 4.529 	-0.241 	0.131
 4.586 	-0.754 	0.204
 4.757 	-0.473 	-0.001
 4.888 	-0.281 	0.214
 5.580 	0.063 	-0.353
 5.658 	0.099 	-0.363
 5.222 	-0.712 	-0.143
 5.552 	-0.478 	-0.631
 6.428 	-0.628 	-0.419
 6.199 	-0.231 	-0.138
 4.665 	-0.199 	-0.272
 4.986 	-0.096 	-0.288
 5.215 	-0.087 	-0.283
 5.641 	-0.160 	-0.170
 5.625 	-0.305 	0.089
 4.984 	-0.351 	0.190
 5.003 	-0.721 	-0.012
 5.497 	-0.530 	-0.412
 5.715 	-0.579 	-0.292
 5.757 	-0.403 	-0.164
 5.349 	-0.031 	-0.237
 6.167 	0.407 	-0.479
 5.483 	-0.827 	0.146
 5.232 	0.285 	-0.340
 4.709 	-0.390 	0.395
 4.707 	-0.026 	0.231
 4.409 	-0.033 	-0.171
 4.657 	-0.052 	-0.116
 4.948 	-0.064 	-0.153
 5.312 	-0.027 	-0.015
 4.925 	-0.001 	0.085
 4.597 	-0.294 	0.031
 4.618 	-0.341 	-0.324
 4.779 	-0.266 	-0.364
 4.955 	-0.053 	-0.155
 5.098 	-0.049 	-0.092
 5.630 	-0.235 	-0.435
 5.819 	0.697 	-0.121
 5.212 	0.620 	-0.049
 4.149 	0.577 	0.250
 4.517 	-0.145 	0.173
 4.081 	0.009 	-0.075
 4.667 	0.349 	-0.191
 4.488 	0.253 	-0.081
 4.802 	0.151 	-0.109
 5.508 	-0.358 	0.058
 5.221 	0.068 	0.138
 4.779 	-0.256 	0.163
 4.213 	-0.067 	0.015
 4.090 	0.014 	-0.166
 4.123 	-0.413 	-0.056
 4.868 	-0.092 	-0.106
 4.833 	0.284 	-0.003
 5.279 	1.015 	0.149
 5.716 	1.223 	0.146
 5.144 	0.861 	-0.393
 5.301 	0.618 	0.242
 5.614 	0.245 	-0.226
 4.428 	0.352 	0.014
 4.826 	0.556 	-0.282
 4.824 	0.109 	0.196
 4.866 	0.071 	0.454
 4.161 	-0.694 	0.077
 4.302 	0.141 	0.239
 3.960 	-0.173 	0.314
 4.273 	-0.459 	0.172
 5.197 	-0.281 	-0.234
 5.887 	-0.414 	-0.145
 5.002 	0.315 	0.085
 5.209 	-0.072 	-0.044
 5.255 	0.723 	0.095
 5.178 	0.823 	-0.094
 6.171 	1.017 	-0.311
 5.914 	0.798 	0.250
 3.617 	0.142 	0.035
 3.483 	0.367 	0.142
 3.592 	-0.194 	0.253
 2.902 	-1.115 	0.331
 3.148 	-1.417 	-0.055
 3.660 	-1.514 	-0.379
 4.919 	-0.595 	-0.937
 5.154 	-0.407 	-0.763
 5.493 	-0.151 	-0.631
 5.913 	0.402 	-0.312
 5.103 	0.521 	0.127
 5.174 	0.490 	-0.065
 5.235 	0.732 	0.307
 5.422 	0.516 	-0.272
 5.448 	1.285 	0.202
 4.961 	1.298 	0.221
 3.794 	0.758 	0.018
 4.059 	0.368 	-0.022
 4.900 	-0.036 	-0.094
 5.278 	-1.480 	0.354
 3.290 	-0.667 	-0.023
 3.019 	-1.033 	-0.013
 3.449 	-0.373 	0.056
 4.015 	0.548 	-0.181
 4.547 	0.483 	0.190
 4.103 	0.644 	0.441
 4.200 	1.171 	-0.063
 3.536 	1.390 	0.127
 3.482 	0.766 	-0.215
 4.125 	0.554 	-0.134
 4.344 	0.275 	0.317
 5.420 	2.052 	0.362
 5.187 	0.461 	-0.115
 5.978 	0.173 	-0.550
 5.625 	-0.025 	0.075
 5.211 	-0.175 	0.031
 3.983 	-0.202 	-0.035
 4.021 	-0.085 	-0.403
 2.921 	-0.522 	0.188
 3.071 	-0.008 	0.242
 3.005 	0.273 	0.198
 3.105 	0.768 	0.234
 3.312 	0.402 	-0.033
 3.687 	1.294 	0.054
 3.746 	0.221 	-0.130
 4.055 	0.581 	-0.087
 4.050 	0.146 	0.105
 4.482 	0.349 	-0.188
 5.063 	0.152 	-0.222
 5.743 	0.433 	-0.283
 6.398 	0.784 	-0.233
 5.099 	0.465 	-0.047
 3.113 	-0.372 	0.228
 3.638 	-0.152 	-0.052
 3.911 	-0.179 	-0.156
 3.921 	-0.453 	0.181
 4.277 	0.126 	0.144
 4.199 	-0.437 	0.261
 4.131 	0.590 	0.385
 3.721 	0.487 	-0.086
 3.788 	-0.004 	0.036
 3.124 	0.104 	0.441
 3.192 	-0.018 	0.360
 3.083 	-0.178 	0.144
 3.660 	1.070 	0.880
 4.594 	1.129 	0.223
 5.054 	1.831 	-0.359
 5.233 	1.434 	0.063
 4.125 	-0.147 	0.342
 4.845 	0.152 	-0.131
 4.854 	-0.332 	-0.026
 5.135 	-0.074 	-0.468
 5.449 	0.240 	0.034
 4.432 	0.046 	0.594
 3.213 	-0.234 	0.135
 2.623 	0.841 	0.289
 3.346 	0.665 	-0.300
 3.885 	-0.030 	-0.165
 3.447 	-0.486 	0.115
 3.804 	-0.168 	0.016
 3.801 	1.444 	0.636
 4.526 	0.261 	-0.581
 5.179 	0.554 	-0.479
 5.162 	1.189 	-0.245
 4.526 	0.918 	0.643
 3.885 	0.627 	0.485
 3.800 	0.563 	0.463
 3.806 	0.786 	0.162
 4.034 	0.586 	-0.107
 4.443 	0.185 	-0.226
 4.932 	-0.360 	-0.248
 5.045 	-0.739 	-0.175
 5.001 	-0.683 	0.072
 4.289 	-0.161 	0.134
 4.276 	0.135 	0.289
 4.427 	0.162 	-0.052
 5.078 	0.625 	-0.565
 4.807 	0.257 	-0.491
 4.316 	-0.299 	-0.722
 5.183 	1.087 	-0.079
 4.694 	0.893 	0.049
 4.974 	0.464 	0.061
 4.469 	0.587 	0.250
 4.515 	0.340 	-0.290
 4.776 	0.205 	-0.553
 4.562 	0.268 	-0.119
 4.465 	0.356 	0.141
 4.796 	-0.795 	0.746
 5.657 	-1.042 	0.714
 5.040 	-0.387 	0.460
 5.407 	0.500 	0.246
 5.115 	0.093 	-0.010
 5.090 	0.099 	-0.335
 4.519 	0.391 	0.074
 4.678 	-0.286 	-0.257
 4.761 	0.290 	-0.362
 5.463 	1.051 	-0.391
 4.956 	0.850 	0.064
 4.201 	0.784 	0.088
 4.078 	1.002 	-0.112
 4.396 	0.393 	0.163
 4.962 	-0.115 	-0.021
 5.487 	-0.229 	-0.001
 6.290 	-1.005 	-0.033
 5.775 	-0.937 	1.037
 4.350 	-0.368 	0.654
 4.390 	0.261 	0.323
 4.699 	0.657 	-0.138
 6.455 	0.696 	-0.686
 6.407 	0.552 	-1.051
 5.334 	0.104 	0.116
 4.922 	0.289 	-0.466
 4.749 	1.049 	-0.210
 4.441 	1.124 	0.350
 4.499 	1.016 	0.178
 5.109 	0.625 	-0.272
 5.725 	-0.512 	-0.032
 6.248 	-0.719 	-0.090
 6.147 	-0.940 	0.194
 5.766 	-0.650 	-0.030
 6.323 	-0.377 	0.342
 5.901 	-0.519 	0.443
 5.803 	0.148 	0.505
 5.161 	0.205 	0.857
 5.595 	1.081 	-0.154
 5.908 	0.675 	-0.157
 6.141 	0.759 	-0.270
 5.083 	0.521 	-0.055
 5.004 	0.967 	-0.308
 5.681 	0.829 	-0.228
 6.328 	0.468 	-0.256
 6.310 	-0.045 	-0.357
 6.623 	-0.118 	-0.382
 6.683 	-0.487 	-0.163
 6.393 	-0.819 	0.214
 6.172 	-0.279 	0.174
 6.534 	-0.009 	-0.215
 6.661 	-0.320 	-0.677
 6.784 	-0.058 	-0.526
 5.366 	0.281 	0.180
 5.960 	0.907 	-0.247
 5.816 	0.772 	-0.061
 5.909 	0.646 	-0.137
 5.933 	0.574 	-0.100
 5.932 	0.664 	0.123
 6.218 	0.842 	0.220
 6.451 	0.614 	0.001
 6.568 	0.312 	-0.050
 6.657 	0.337 	-0.224
 6.828 	0.082 	-0.711
 6.783 	-0.316 	-0.061
 6.526 	-0.592 	-0.079
 6.691 	-0.418 	-0.368
 6.639 	-0.591 	-1.016
 6.629 	-0.266 	-0.292
 6.663 	-0.211 	-0.585
 4.129 	0.835 	0.100
 4.207 	0.600 	-0.000
 4.133 	0.425 	0.082
 4.213 	0.495 	0.380
 4.271 	0.585 	0.561
 4.641 	0.490 	0.649
 5.242 	0.527 	0.581
 6.131 	0.678 	-0.022
 6.552 	1.079 	-0.648
 6.779 	0.225 	-0.611
 6.872 	-0.057 	-0.309
 6.544 	-0.690 	-0.338
 7.135 	-0.629 	-0.490
 6.963 	-0.759 	-0.679
 6.579 	-0.385 	-0.702
 6.987 	0.044 	-0.648
 5.622 	0.370 	-0.263
 5.856 	0.314 	-0.450
 6.321 	-0.158 	-0.479
 6.544 	0.146 	-0.461
 6.283 	0.798 	-0.349
 6.083 	0.480 	-0.140
 6.205 	0.423 	-0.280
 6.409 	0.664 	-0.472
 6.208 	0.809 	-0.486
 6.514 	0.019 	-0.289
 6.378 	-0.363 	-0.138
 6.919 	-0.347 	-0.908
 7.169 	-0.348 	-0.170
 6.716 	-0.534 	-0.212
 6.433 	0.052 	-0.204
 5.925 	0.017 	-0.375
 5.524 	0.272 	-0.030
 5.690 	-0.036 	0.179
 5.923 	-0.285 	0.221
 6.098 	0.049 	0.184
 6.457 	0.404 	0.029
 6.525 	0.468 	-0.369
 6.587 	0.201 	-0.531
 6.742 	0.978 	-0.897
 6.974 	0.730 	-0.575
 6.640 	-0.389 	-0.179
 6.671 	-0.321 	-0.300
 7.016 	-0.435 	-0.585
 6.273 	0.062 	0.050
 5.403 	0.063 	-0.025
 5.429 	0.506 	0.284
 4.930 	-0.687 	0.253
 5.691 	-0.401 	0.027
 5.931 	-0.079 	-0.091
 5.647 	-0.113 	-0.236
 6.131 	0.354 	0.174
 6.355 	0.547 	0.215
 6.778 	0.487 	-0.028
 6.616 	0.510 	0.085
 6.870 	0.275 	-0.161
 7.389 	0.375 	-0.165
 6.520 	0.197 	0.182
 6.193 	-0.599 	-0.329
 6.016 	-0.248 	-0.296
 5.969 	0.487 	0.436
 6.089 	0.496 	-0.337
 5.742 	0.389 	-0.365
 5.352 	0.093 	-0.100
 6.128 	-0.637 	-0.331
 5.694 	-0.500 	-0.264
 4.773 	0.050 	0.674
 4.247 	-0.992 	1.136
 5.544 	0.308 	0.613
 6.192 	0.715 	0.032
 6.524 	0.951 	0.126
 6.730 	0.478 	-0.500
 6.643 	0.804 	-0.710
 6.478 	0.447 	0.031
 6.280 	0.083 	-0.211
 5.961 	0.203 	-0.092
 6.445 	-0.030 	0.016
 6.823 	0.434 	-0.092
 6.011 	1.107 	-0.268
 5.475 	0.978 	-0.076
 6.312 	-0.761 	0.143
 5.849 	-0.132 	-0.493
 5.753 	-0.313 	0.099
 7.027 	0.383 	0.067
 5.146 	-0.221 	0.600
 5.773 	1.056 	-0.521
 6.171 	0.340 	-0.938
 6.272 	0.212 	-0.660
 5.697 	0.031 	-0.268
 5.279 	0.097 	-0.373
 5.018 	0.447 	0.186
 3.871 	-0.258 	-0.077
 4.180 	-0.475 	0.159
 4.820 	0.185 	0.120
 5.090 	0.270 	-0.248
 5.462 	0.941 	-0.108
 6.591 	-0.535 	0.307
 6.806 	0.111 	-0.633
 6.414 	0.242 	0.025
 5.284 	-0.302 	0.656
 6.349 	-0.079 	0.030
 5.810 	-0.333 	0.178
 6.009 	-0.383 	-0.197
 5.028 	-0.123 	-0.021
 4.664 	-0.080 	0.060
 4.685 	0.140 	0.140
 3.906 	0.791 	0.690
 4.335 	0.167 	-0.466
 5.024 	-0.281 	-0.474
 4.922 	-0.697 	0.076
 4.880 	-0.591 	0.236
 5.103 	0.797 	0.392
 6.320 	-0.342 	-0.374
 6.569 	0.204 	-0.586
 7.176 	0.374 	-0.470
 5.902 	0.155 	0.252
 6.766 	0.349 	0.595
 6.209 	-0.011 	-0.187
 5.790 	0.558 	-0.230
 5.391 	-0.187 	0.461
 5.143 	-1.350 	0.027
 5.128 	0.017 	0.364
 3.967 	1.215 	1.190
 4.147 	0.179 	0.226
 5.003 	-0.458 	-0.600
 5.440 	-0.867 	-0.378
 4.914 	0.018 	0.346
 4.730 	0.132 	0.502
 6.147 	-0.399 	-0.324
 6.126 	-0.206 	-0.253
 5.678 	0.582 	-0.241
 5.780 	0.663 	0.732
 6.358 	0.384 	0.014
 6.173 	0.577 	-0.327
 5.520 	0.635 	0.343
 5.134 	-0.230 	-0.098
 5.630 	-0.478 	-0.555
 4.277 	0.361 	0.381
 4.054 	0.923 	0.950
 4.630 	-0.002 	0.104
 4.319 	0.024 	-0.431
 3.477 	-0.154 	0.349
 3.291 	-0.745 	0.647
 3.201 	-0.675 	0.439
 5.382 	-0.069 	-0.445
 5.003 	-0.646 	-0.007
 4.689 	0.579 	-0.272
 5.192 	1.529 	0.258
 6.011 	0.653 	-0.591
 5.776 	1.085 	-0.573
 6.067 	0.743 	-0.278
 5.682 	0.022 	-0.529
 4.973 	0.066 	0.345
 5.558 	0.888 	0.425
 5.548 	-0.036 	0.386
 5.851 	0.225 	-0.498
 4.885 	0.811 	-0.743
 4.889 	0.631 	0.829
 5.094 	-0.685 	0.070
 3.967 	-0.435 	0.380
 5.890 	0.159 	0.367
 5.556 	0.131 	0.233
 5.775 	0.129 	0.181
 5.485 	0.804 	0.698
 5.423 	1.564 	0.905
 5.671 	1.697 	0.669
 4.991 	0.800 	0.740
 4.875 	0.726 	0.213
 4.824 	1.509 	0.215
 5.177 	1.195 	-0.353
 5.400 	0.535 	-0.440
 5.714 	0.205 	-0.378
 5.360 	0.193 	0.196
 5.451 	-0.198 	0.638
 4.549 	0.724 	0.606
 4.899 	0.156 	0.181
 6.012 	0.367 	-0.232
 5.228 	0.286 	-0.225
 4.707 	-0.242 	-0.300
 5.078 	0.488 	-0.109
 5.332 	1.134 	0.664
 5.094 	1.157 	0.587
 5.179 	0.897 	0.282
 4.986 	0.466 	-0.173
 5.093 	0.883 	-0.104
 5.421 	0.708 	-0.173
 5.407 	0.502 	0.174
 5.228 	0.652 	0.274
 5.227 	0.058 	0.904
 6.347 	-0.106 	0.295
 6.384 	0.422 	0.499
 5.752 	0.119 	-0.153
 5.922 	1.019 	-0.367
 5.720 	0.431 	-0.079
 5.267 	0.018 	0.016
 4.837 	-0.106 	0.062
 5.341 	0.676 	-0.320
 5.591 	1.203 	-0.044
 6.134 	1.074 	-0.295
 5.567 	0.742 	-0.172
 4.717 	1.169 	-0.031
 4.651 	0.340 	0.134
 5.070 	0.057 	0.286
 4.991 	0.436 	0.180
 4.776 	0.246 	0.644
 5.060 	-0.376 	1.110
 5.511 	-0.265 	0.537
 6.075 	0.388 	0.067
 6.390 	0.881 	-0.348
 5.958 	0.513 	-0.464
 5.976 	-0.059 	-0.379
 6.101 	-0.283 	-0.487
 5.267 	0.363 	0.244
 4.948 	1.016 	0.057
 4.790 	1.236 	0.023
 5.000 	0.778 	0.157
 5.515 	0.783 	-0.106
 6.110 	0.057 	0.140
 5.406 	-0.028 	0.143
 5.323 	-0.038 	0.030
 5.283 	0.149 	-0.324
 5.425 	-0.372 	0.271
 5.650 	-0.302 	1.063
 5.612 	-0.039 	0.483
 6.581 	0.372 	-0.177
 6.589 	0.477 	0.029
 5.953 	0.242 	-0.056
 6.081 	0.152 	-0.272
 6.060 	0.470 	-0.124
 5.581 	1.094 	0.066
 5.951 	1.210 	-0.484
 6.645 	0.687 	-0.854
 7.477 	0.166 	-0.754
 7.257 	0.358 	-0.490
 6.762 	0.014 	-0.076
 6.470 	-0.358 	0.266
 6.190 	-0.593 	-0.101
 6.120 	-0.171 	-0.447
 6.282 	0.049 	-0.110
 6.808 	0.358 	0.227
 6.426 	0.218 	0.082
 6.089 	0.129 	0.145
 5.983 	0.161 	0.102
 6.225 	0.158 	-0.174
 6.542 	0.275 	-0.084
 6.854 	0.662 	0.037
 6.682 	0.600 	-0.003
 6.686 	0.122 	-0.376
 7.007 	-0.150 	-0.572
 7.047 	0.346 	-0.579
 7.182 	0.187 	-0.330
 6.913 	-0.128 	0.188
 6.943 	-0.797 	-0.181
 6.889 	-0.978 	-0.541
 6.544 	-0.391 	-0.307
 6.924 	0.357 	-0.356
 6.040 	0.574 	0.253
 6.010 	0.321 	-0.080
 6.140 	0.207 	-0.154
 6.245 	0.151 	0.142
 6.686 	0.442 	0.183
 6.845 	0.640 	0.239
 6.606 	0.945 	-0.121
 6.517 	0.085 	-0.694
 6.318 	-0.279 	-0.969
 6.547 	0.074 	-0.735
 6.719 	0.179 	-0.019
 6.897 	-0.309 	-0.281
 6.747 	-1.129 	-0.424
 7.006 	-0.786 	-0.653
 6.999 	-0.697 	-0.651
 7.204 	-0.156 	-0.457
 6.202 	0.371 	-0.070
 6.198 	0.084 	-0.197
 6.440 	-0.078 	-0.192
 6.401 	0.311 	-0.013
 6.666 	0.541 	-0.042
 7.051 	0.798 	-0.062
 7.196 	1.068 	-0.275
 6.957 	0.324 	-0.193
 6.463 	0.146 	0.043
 6.279 	-0.102 	-0.157
 6.514 	-0.260 	-0.387
 6.713 	-0.669 	-0.585
 6.567 	-1.187 	-0.605
 6.287 	-0.701 	-0.690
 6.594 	-0.351 	-0.427
 6.278 	0.208 	0.271
 6.022 	-0.297 	-0.022
 6.453 	-0.259 	-0.017
 6.692 	-0.550 	0.018
 6.627 	0.010 	-0.028
 6.408 	0.289 	-0.047
 6.379 	0.760 	-0.115
 6.733 	0.844 	0.031
 6.788 	0.087 	-0.302
 6.807 	-0.154 	-0.009
 6.660 	0.253 	0.192
 6.725 	-0.593 	-0.235
 6.727 	-0.620 	-0.200
 6.364 	-0.646 	-0.600
 6.453 	-0.164 	-0.227
 6.330 	0.509 	-0.136
 5.507 	-0.062 	0.282
 5.293 	-0.506 	0.329
 5.452 	-0.329 	0.091
 5.913 	-0.212 	0.149
 6.055 	-0.047 	0.087
 6.104 	0.245 	0.137
 6.081 	0.411 	0.115
 6.243 	-0.241 	-0.236
 7.012 	-0.378 	-0.451
 7.109 	0.165 	-0.485
 6.749 	0.072 	-0.305
 6.293 	-0.173 	-0.162
 5.906 	-0.462 	0.096
 6.360 	-0.500 	0.146
 6.465 	-0.186 	-0.363
 6.433 	0.921 	0.171
 6.298 	0.670 	0.146
 5.873 	-0.824 	0.070
 5.637 	-0.561 	0.251
 5.755 	-0.574 	0.079
 5.783 	-0.641 	0.884
 6.312 	-0.724 	0.775
 6.374 	0.027 	0.232
 6.551 	-0.556 	-0.374
 6.767 	-0.522 	-0.743
 5.940 	0.350 	-0.232
 5.990 	0.124 	0.286
 5.822 	-0.088 	0.174
 4.995 	-0.503 	0.306
 5.115 	-0.590 	-0.230
 5.584 	-0.462 	-0.130
 6.290 	0.638 	0.177
 6.508 	1.112 	0.118
 6.597 	-0.610 	0.133
 6.342 	-0.826 	0.141
 6.530 	0.048 	-0.226
 5.521 	-0.414 	0.044
 6.280 	-0.518 	0.649
 6.158 	-0.189 	0.162
 6.596 	-0.323 	-0.496
 6.088 	0.191 	-0.312
 5.799 	0.300 	0.660
 4.668 	0.035 	0.481
 4.710 	-0.097 	0.270
 5.410 	-0.278 	-0.436
 4.898 	-0.893 	0.153
 4.438 	-1.250 	0.902
 4.971 	-0.487 	0.895
 6.010 	0.781 	0.326
 6.955 	-0.323 	-0.331
 6.566 	-0.155 	-0.165
 5.926 	0.298 	0.228
 5.905 	0.101 	0.191
 5.977 	0.215 	-0.079
 6.097 	-0.283 	-0.022
 5.971 	-0.312 	0.232
 5.904 	0.477 	0.598
 4.776 	0.122 	0.631
 5.161 	0.070 	0.544
 5.293 	0.342 	0.149
 5.072 	0.011 	-0.484
 5.046 	-0.210 	-0.358
 4.910 	-1.124 	0.159
 5.216 	-1.185 	-0.093
 4.945 	-0.462 	0.831
 6.181 	-0.916 	-0.232
 6.506 	-0.109 	-0.315
 6.585 	0.273 	0.119
 6.509 	0.228 	0.083
 5.976 	0.241 	0.095
 5.995 	-0.395 	0.034
 6.022 	0.012 	0.520
 5.625 	0.828 	0.202
 4.762 	0.340 	-0.371
 4.749 	-0.115 	1.056
 5.430 	0.073 	0.382
 5.741 	-0.314 	-0.185
 6.297 	-0.001 	-0.640
 6.467 	-0.558 	-0.341
 5.137 	-1.092 	0.084
 4.633 	-1.096 	0.284
 5.085 	-1.085 	-0.457
 5.721 	-0.524 	-0.093
 6.100 	-0.088 	-0.387
 6.341 	0.097 	-0.284
 6.794 	0.246 	-0.213
 6.745 	0.337 	-0.026
 6.382 	0.453 	-0.014
 6.807 	0.944 	-0.028
 6.367 	0.276 	-0.311
 6.307 	0.611 	0.844
 6.738 	0.353 	0.627
 6.662 	-0.014 	-0.101
 6.309 	-0.065 	-0.116
 5.379 	0.243 	0.304
 4.994 	0.160 	0.469
 5.242 	-0.373 	0.398
 5.150 	-0.777 	-0.300
 5.154 	-0.489 	0.038
 5.000 	-0.536 	-0.244
 5.281 	-0.326 	-0.466
 5.767 	-0.031 	-0.697
 6.022 	0.505 	-0.657
 6.479 	0.786 	-0.291
 6.593 	0.659 	-0.200
 6.747 	0.480 	0.039
 6.622 	-0.077 	0.425
 6.567 	-0.040 	0.272
 6.347 	0.127 	0.013
 6.133 	0.341 	-0.196
 5.874 	0.813 	-0.073
 6.028 	0.533 	-0.016
 6.691 	0.018 	-0.413
 5.876 	-0.129 	0.212
 5.840 	0.152 	0.147
 5.369 	0.099 	-0.200
 5.705 	0.198 	0.311
 5.794 	0.542 	0.930
 5.964 	1.585 	0.627
 6.138 	0.849 	0.997
 5.876 	0.768 	0.698
 5.810 	1.659 	0.089
 5.952 	1.375 	0.033
 5.814 	0.708 	-0.206
 5.675 	0.695 	-0.428
 5.729 	0.698 	-0.336
 5.765 	0.381 	0.226
 5.756 	0.204 	0.409
 5.862 	0.476 	0.125
 6.173 	0.385 	-0.176
 5.548 	0.412 	-0.023
 5.310 	0.418 	-0.124
 4.756 	-0.053 	-0.011
 5.290 	0.441 	0.731
 5.760 	0.819 	1.147
 6.089 	0.979 	0.658
 5.344 	0.723 	0.253
 5.437 	1.362 	0.274
 5.451 	0.890 	0.134
 5.124 	0.284 	0.476
 5.583 	0.312 	0.597
 5.813 	0.540 	0.781
 5.404 	1.132 	0.565
 5.591 	1.066 	0.280
 5.946 	0.433 	-0.147
 5.967 	1.042 	-0.082
 5.281 	0.475 	0.158
 5.151 	0.354 	0.277
 5.556 	0.210 	0.226
 5.618 	-0.018 	0.235
 5.451 	0.375 	-0.022
 5.525 	0.712 	-0.159
 5.442 	0.719 	0.159
 5.158 	0.799 	0.032
 5.016 	0.948 	0.583
 5.404 	-0.148 	0.465
 5.348 	-0.398 	0.639
 5.251 	-0.028 	0.707
 5.649 	0.515 	0.746
 5.982 	0.514 	0.890
 6.303 	0.180 	0.159
 5.936 	0.780 	0.044
 5.801 	0.249 	-0.183
 6.130 	0.475 	-0.507
 6.356 	0.500 	-0.612
 6.403 	-0.173 	0.388
 6.461 	0.223 	-0.326
 5.790 	0.637 	0.272
 5.890 	0.791 	0.077
 5.858 	0.691 	0.076
 6.015 	0.622 	0.171
 6.190 	0.274 	-0.076
 6.483 	-0.262 	0.342
 6.087 	-0.359 	0.282
 6.263 	-0.088 	0.470
 6.085 	-0.133 	0.512
 5.788 	0.556 	0.330
 6.564 	0.470 	0.326
 6.557 	0.096 	0.349
 6.629 	-0.043 	0.090
 6.635 	0.037 	-0.209
 6.756 	0.210 	-0.143
 7.114 	0.191 	0.109
 7.078 	0.519 	-0.255
 6.988 	0.962 	-0.357
 7.243 	0.455 	-0.427
 6.568 	0.810 	-0.522
 6.626 	0.298 	-0.048
 7.071 	-0.023 	0.324
 7.286 	-0.167 	0.069
 6.871 	-0.827 	0.296
 6.067 	0.276 	0.190
 5.775 	0.744 	0.396
 6.853 	0.436 	0.313
 6.885 	0.024 	0.393
 7.150 	-0.245 	-0.085
 7.542 	0.024 	-0.263
 7.210 	0.122 	-0.291
 6.742 	0.160 	0.037
 6.536 	0.242 	0.037
 6.724 	0.239 	-0.479
 7.040 	0.308 	-0.550
 7.095 	0.729 	-0.298
 7.241 	0.240 	-0.127
 7.327 	0.001 	-0.131
 7.635 	-0.152 	0.019
 7.142 	-0.332 	0.046
 6.563 	-0.129 	-0.062
 6.893 	-0.157 	-0.198
 6.999 	0.494 	0.052
 6.982 	0.047 	-0.152
 7.227 	0.039 	-0.294
 7.137 	0.116 	-0.098
 6.743 	0.491 	-0.178
 6.408 	0.560 	0.012
 6.523 	0.339 	-0.077
 6.479 	-0.412 	-0.070
 6.558 	-0.555 	-0.106
 6.778 	-0.219 	-0.158
 7.078 	-0.178 	-0.035
 7.424 	0.012 	-0.016
 7.379 	-0.397 	-0.028
 7.226 	-0.092 	-0.534
 7.142 	-0.059 	-0.487
 6.826 	-0.598 	-0.378
 6.887 	0.390 	-0.173
 6.985 	0.096 	-0.330
 6.578 	0.131 	0.062
 6.270 	0.487 	0.262
 6.261 	0.509 	0.023
 6.635 	0.403 	-0.114
 7.011 	-0.201 	-0.175
 6.793 	-0.612 	-0.241
 6.852 	-0.817 	-0.076
 6.906 	-0.589 	-0.256
 7.002 	-0.493 	-0.416
 7.151 	-0.491 	-0.433
 7.313 	-0.701 	-0.388
 7.162 	-0.770 	-0.465
 7.342 	-0.621 	-0.579
 6.697 	-0.322 	-0.049
 6.589 	0.393 	0.013
 6.585 	0.483 	0.041
 6.791 	0.321 	0.127
 6.931 	0.079 	0.032
 6.965 	0.127 	0.257
 6.760 	0.028 	0.116
 6.815 	-0.147 	-0.051
 6.937 	-0.268 	-0.517
 6.947 	-0.406 	-0.184
 7.105 	-0.387 	0.029
 7.407 	-0.379 	-0.320
 7.777 	-0.602 	-0.289
 7.400 	-0.563 	-0.253
 6.526 	-0.844 	-0.344
 6.065 	-0.552 	-0.038
 6.234 	0.434 	0.516
 6.139 	0.053 	0.399
 5.897 	-0.289 	0.439
 5.996 	-0.330 	0.444
 6.092 	-0.092 	0.251
 6.270 	-0.104 	0.129
 6.451 	-0.034 	0.054
 6.659 	-0.239 	-0.129
 6.987 	-0.509 	-0.401
 7.327 	-0.462 	-0.664
 7.601 	-0.151 	-0.437
 7.470 	-0.070 	-0.194
 6.813 	-0.187 	0.039
 6.543 	-0.329 	-0.061
 6.498 	-0.536 	-0.134
 6.710 	-0.358 	-0.015
 6.801 	-0.418 	0.142
 5.830 	-0.292 	0.055
 6.427 	-0.625 	-0.109
 6.149 	-0.669 	0.158
 5.669 	-0.260 	0.640
 6.155 	-0.086 	0.621
 6.541 	-0.209 	0.094
 6.743 	-0.636 	-0.382
 6.747 	-0.826 	-0.646
 5.996 	-0.237 	0.093
 6.057 	0.103 	0.656
 5.720 	0.084 	0.504
 5.779 	-0.340 	0.200
 6.049 	-0.512 	0.000
 6.256 	-0.816 	-0.142
 6.702 	-0.448 	-0.113
 6.839 	-0.240 	-0.300
 6.765 	-0.970 	-0.052
 7.099 	-0.702 	-0.221
 7.189 	-0.530 	-0.263
 7.239 	-0.003 	0.239
 7.043 	-0.028 	0.148
 7.578 	-0.243 	-0.018
 6.698 	-0.655 	-0.363
 5.733 	0.142 	-0.243
 5.467 	-0.098 	0.907
 5.433 	-0.150 	0.844
 5.639 	0.070 	0.183
 6.027 	-0.040 	-0.149
 4.993 	-0.205 	0.039
 4.566 	-0.629 	0.811
 5.270 	-0.763 	0.414
 5.810 	-0.757 	0.213
 6.793 	-1.008 	-0.458
 6.731 	-0.608 	-0.204
 6.884 	-0.131 	0.186
 7.212 	0.010 	0.001
 6.812 	-0.105 	0.365
 6.217 	-0.186 	-0.029
 5.639 	0.006 	-0.393
 5.534 	0.598 	0.750
 5.676 	0.299 	0.386
 6.356 	-0.218 	-0.027
 6.914 	-0.164 	-0.232
 6.805 	-0.241 	-0.228
 6.215 	0.159 	-0.103
 6.282 	0.166 	-0.277
 6.144 	-0.180 	0.144
 6.119 	-1.027 	1.121
 6.493 	-1.041 	-0.135
 6.284 	-0.683 	-0.108
 6.338 	-0.224 	0.183
 7.191 	-0.100 	0.297
 6.292 	0.243 	0.571
 5.941 	0.080 	0.173
 5.733 	-0.273 	-0.181
 5.897 	0.923 	0.550
 6.517 	0.232 	-0.173
 6.410 	0.034 	0.569
 6.887 	0.084 	0.105
 6.480 	-0.376 	-0.162
 6.065 	-0.476 	-0.502
 6.728 	-0.316 	-0.353
 7.454 	0.074 	-0.128
 7.689 	-0.033 	0.040
 6.195 	-1.122 	0.126
 5.895 	-0.499 	-0.231
 5.704 	-0.230 	-0.488
 5.619 	-0.311 	-0.461
 6.130 	0.192 	-0.245
 6.705 	-0.059 	-0.525
 6.717 	0.261 	-0.247
 6.751 	0.549 	0.040
 7.028 	0.376 	-0.015
 6.945 	0.014 	0.355
 6.820 	0.018 	0.380
 6.362 	-0.333 	0.331
 6.273 	-0.770 	-0.167
 6.338 	-0.646 	-0.308
 6.904 	-0.405 	-0.443
 7.526 	-0.087 	-0.500
 6.601 	-0.734 	-0.169
 5.752 	-1.108 	0.279
 5.720 	-0.112 	-0.144
 5.906 	-0.214 	-0.655
 6.001 	-0.330 	-0.633
 6.005 	-0.595 	-0.600
 6.166 	-0.406 	-0.391
 6.831 	0.360 	-0.218
 6.591 	0.415 	0.427
 6.207 	-0.168 	0.540
 6.105 	-0.336 	0.396
 6.336 	-0.454 	0.154
 6.462 	-0.465 	0.143
 6.290 	-0.653 	-0.551
 6.775 	-0.728 	-0.486
 7.033 	-0.563 	-0.664
 6.679 	0.603 	0.162
 7.056 	0.484 	-0.236
 5.801 	0.177 	0.070
 5.610 	-0.107 	-0.188
 5.798 	-0.181 	0.358
 6.051 	0.917 	0.593
 5.981 	0.954 	1.208
 6.352 	1.002 	0.888
 6.443 	1.447 	0.292
 6.441 	1.646 	0.407
 6.289 	1.157 	0.076
 5.993 	0.657 	-0.014
 5.955 	0.280 	0.075
 6.112 	0.037 	0.034
 6.210 	-0.056 	0.146
 6.596 	-0.286 	-0.089
 6.945 	0.378 	-0.141
 6.497 	0.675 	0.316
 5.744 	0.593 	-0.001
 5.831 	0.084 	0.050
 5.062 	0.134 	0.528
 5.539 	0.719 	0.990
 5.949 	0.472 	0.980
 5.467 	0.975 	0.689
 5.419 	1.427 	0.641
 5.542 	1.265 	0.225
 5.213 	0.509 	0.567
 5.339 	0.108 	0.949
 5.750 	-0.335 	1.192
 6.297 	-0.666 	0.333
 6.563 	-0.695 	0.173
 6.698 	-0.225 	-0.013
 6.534 	0.334 	-0.174
 6.730 	1.146 	0.167
 6.048 	0.719 	-0.056
 5.362 	0.905 	-0.128
 5.640 	0.312 	0.299
 5.735 	0.098 	0.221
 5.673 	0.187 	0.263
 5.749 	0.844 	0.246
 5.487 	1.193 	0.407
 5.141 	1.162 	0.680
 5.386 	0.833 	0.267
 5.361 	0.036 	0.384
 5.883 	-0.515 	0.892
 6.259 	-0.522 	0.966
 6.956 	-0.838 	0.370
 6.794 	-0.244 	0.530
 6.073 	0.409 	0.131
 6.192 	0.614 	0.205
 6.398 	0.633 	-0.147
 6.450 	0.733 	-0.208
 6.691 	0.469 	0.145
 6.770 	0.359 	-0.030
 6.403 	0.378 	0.158
 6.068 	0.741 	0.199
 6.243 	0.984 	0.417
 6.148 	0.886 	0.243
 5.770 	0.958 	-0.197
 5.776 	0.052 	-0.031
 6.333 	-0.419 	0.244
 6.207 	-0.628 	0.520
 6.796 	-0.892 	0.375
 6.259 	0.177 	0.670
 6.743 	0.532 	0.399
 6.644 	0.316 	0.468
 6.709 	0.301 	0.355
 6.850 	0.254 	0.057
 6.878 	0.179 	-0.056
 6.876 	0.122 	0.146
 7.282 	0.735 	-0.043
 6.945 	0.868 	-0.045
 6.528 	0.876 	-0.201
 6.255 	1.087 	-0.403
 6.215 	0.823 	-0.391
 6.554 	-0.018 	-0.100
 6.585 	-0.397 	0.057
 6.576 	-0.560 	0.700
 6.529 	-0.914 	0.532
 6.778 	-0.464 	0.506
 7.280 	0.512 	0.231
 7.435 	0.307 	0.137
 7.343 	0.180 	-0.371
 7.499 	0.231 	-0.250
 7.253 	0.228 	-0.029
 6.979 	0.139 	0.042
 6.842 	0.496 	0.241
 7.037 	0.877 	-0.072
 6.914 	1.045 	-0.086
 6.738 	1.125 	-0.224
 6.979 	0.578 	-0.094
 6.962 	0.101 	-0.249
 7.009 	-0.295 	-0.103
 7.182 	-0.477 	0.033
 7.099 	-0.571 	-0.143
 7.286 	-0.710 	-0.149
 7.299 	0.293 	-0.233
 7.378 	0.340 	-0.488
 7.372 	0.067 	-0.321
 7.316 	0.154 	-0.183
 7.171 	0.406 	-0.049
 6.888 	0.429 	0.103
 6.714 	0.541 	0.041
 6.712 	0.927 	-0.149
 6.671 	1.050 	-0.168
 6.890 	0.943 	-0.204
 7.161 	0.588 	-0.480
 7.252 	0.262 	-0.150
 7.296 	-0.073 	-0.094
 7.392 	-0.065 	-0.294
 7.188 	-0.178 	-0.484
 6.972 	-0.789 	-0.308
 6.784 	0.175 	-0.351
 6.911 	0.266 	-0.307
 6.552 	0.072 	0.109
 6.326 	0.184 	0.415
 6.505 	0.043 	0.279
 6.713 	0.414 	0.072
 6.730 	0.546 	0.094
 6.523 	0.918 	-0.032
 6.592 	0.827 	-0.073
 6.866 	0.489 	-0.129
 7.244 	-0.045 	-0.161
 7.432 	-0.040 	0.006
 7.395 	-0.207 	0.096
 7.311 	-0.096 	-0.100
 7.137 	-0.006 	-0.205
 6.868 	-0.949 	0.012
 6.218 	0.381 	-0.073
 6.093 	0.215 	0.063
 6.466 	0.112 	0.288
 6.849 	-0.384 	0.575
 7.015 	-0.225 	0.496
 6.865 	0.140 	0.343
 6.825 	0.137 	0.059
 6.873 	0.213 	-0.033
 6.946 	0.270 	-0.043
 7.326 	-0.076 	-0.135
 7.523 	-0.433 	-0.240
 7.448 	-0.613 	-0.302
 7.514 	-0.639 	-0.159
 7.376 	-0.105 	-0.113
 7.411 	-0.271 	0.212
 6.978 	-0.540 	0.565
 6.121 	0.197 	0.846
 6.354 	0.036 	0.918
 6.276 	-0.524 	0.911
 6.633 	-0.778 	0.529
 6.861 	-0.541 	0.209
 6.907 	-0.237 	0.120
 6.976 	-0.276 	-0.003
 7.335 	-0.560 	-0.128
 7.557 	-0.599 	-0.131
 7.587 	-0.528 	-0.144
 7.141 	-0.518 	-0.212
 7.060 	-0.597 	-0.283
 7.105 	-0.664 	-0.144
 7.309 	-0.373 	-0.250
 7.645 	-0.163 	-0.198
 7.644 	-0.293 	0.268
 6.572 	-0.240 	0.171
 6.938 	-0.396 	-0.027
 6.925 	-0.448 	0.104
 7.074 	-0.584 	0.304
 7.228 	-0.715 	0.248
 7.419 	-0.565 	0.031
 7.510 	-0.465 	-0.242
 7.007 	-0.986 	0.112
 6.788 	-0.518 	0.176
 6.437 	-0.405 	0.396
 6.558 	-0.497 	0.112
 6.860 	-0.461 	-0.044
 7.151 	-0.320 	-0.166
 7.093 	-0.344 	-0.020
 7.312 	-0.340 	0.217
 7.186 	-0.498 	0.251
 7.043 	-0.723 	-0.166
 6.919 	-0.253 	-0.347
 6.828 	-0.179 	-0.401
 7.004 	-0.342 	-0.159
 7.195 	-0.464 	-0.083
 7.240 	-0.531 	-0.080
 7.186 	-0.543 	0.061
 6.950 	-0.345 	0.033
 5.976 	-0.054 	0.586
 6.171 	-0.106 	0.555
 6.888 	-0.713 	0.249
 6.758 	-0.939 	-0.040
 6.842 	-0.653 	0.087
 7.185 	-0.365 	-0.022
 7.106 	-0.069 	0.305
 6.598 	-0.671 	0.485
 6.878 	-0.899 	-0.317
 6.800 	-0.660 	-0.260
 6.831 	-0.527 	-0.165
 6.926 	-0.291 	-0.206
 7.039 	-0.151 	0.333
 6.907 	-0.113 	0.353
 6.580 	-0.353 	0.351
 6.309 	-0.145 	0.411
 6.792 	-0.123 	0.219
 6.882 	-0.612 	0.037
 6.538 	-0.872 	-0.025
 6.300 	-0.814 	-0.095
 6.457 	-0.737 	0.049
 6.720 	-0.505 	0.223
 7.143 	-0.032 	0.139
 7.119 	0.294 	0.432
 6.564 	-0.903 	0.165
 6.511 	-0.790 	0.020
 6.436 	-0.640 	0.055
 6.472 	-0.273 	0.053
 6.692 	-0.048 	0.518
 6.842 	0.074 	0.153
 6.533 	-0.061 	0.226
 6.798 	-0.177 	0.377
 6.839 	-0.500 	-0.043
 6.647 	-0.586 	-0.063
 6.383 	-0.765 	0.181
 6.317 	-0.954 	0.134
 6.572 	-1.254 	-0.213
 6.817 	-1.009 	-0.190
 7.005 	-0.590 	-0.043
 7.449 	-0.284 	0.117
 6.134 	-0.903 	0.440
 6.631 	-0.975 	0.030
 6.431 	-0.561 	-0.241
 6.051 	-0.632 	-0.471
 6.073 	-0.291 	-0.230
 6.158 	-0.072 	-0.175
 6.424 	-0.341 	-0.009
 6.662 	-0.698 	-0.122
 6.374 	-0.451 	0.193
 6.485 	-0.202 	0.785
 6.491 	-0.516 	0.809
 6.624 	-1.349 	0.290
 6.981 	-1.225 	-0.244
 7.077 	-1.168 	-0.649
 7.042 	-1.026 	-0.587
 7.496 	-0.613 	-0.655
 7.130 	-0.415 	-0.381
 7.045 	-1.160 	0.345
 7.597 	-0.573 	-0.416
 7.381 	-0.532 	-0.488
 7.351 	-0.426 	-0.456
 6.843 	-0.108 	-0.529
 6.321 	-0.821 	0.036
 5.747 	-0.993 	0.044
 5.877 	-0.711 	0.582
 6.068 	-0.522 	0.620
 6.577 	-0.791 	0.570
 7.321 	-1.162 	0.024
 7.381 	-1.449 	-0.018
 7.645 	-1.231 	-0.397
 7.891 	-0.915 	-0.601
 7.341 	-1.103 	-0.648
 7.062 	0.588 	0.158
 7.132 	0.782 	0.565
 7.206 	0.726 	0.184
 6.642 	0.209 	-0.068
 6.450 	-0.066 	0.075
 6.179 	0.163 	0.556
 6.277 	1.031 	1.139
 6.528 	1.157 	0.836
 6.549 	1.153 	0.378
 6.467 	1.249 	0.293
 6.220 	1.057 	0.434
 6.336 	0.778 	0.475
 6.437 	0.457 	0.294
 6.342 	0.332 	0.109
 6.409 	0.259 	0.084
 6.567 	0.295 	0.073
 7.250 	0.300 	0.240
 6.615 	0.320 	0.625
 6.972 	0.850 	0.361
 5.601 	0.550 	0.020
 5.303 	0.195 	0.394
 5.410 	0.202 	0.793
 5.865 	0.632 	1.019
 5.506 	1.104 	0.936
 5.406 	1.281 	0.917
 5.786 	1.309 	0.663
 5.860 	1.106 	0.592
 5.583 	0.994 	0.633
 5.780 	0.632 	0.704
 5.897 	0.431 	0.427
 6.234 	0.114 	0.179
 6.591 	-0.132 	-0.054
 6.689 	-0.071 	0.047
 6.844 	0.580 	0.370
 6.735 	0.414 	-0.014
 6.307 	1.054 	0.321
 5.334 	0.796 	0.179
 5.320 	0.252 	0.310
 5.409 	0.337 	0.541
 5.844 	0.723 	0.514
 5.872 	1.027 	0.611
 5.725 	1.401 	0.773
 5.516 	1.244 	0.621
 5.491 	1.244 	0.445
 5.418 	0.829 	0.222
 6.118 	0.236 	0.433
 6.609 	-0.405 	0.641
 6.767 	-0.443 	0.553
 7.065 	0.322 	0.321
 6.435 	0.233 	0.324
 6.232 	0.261 	0.430
 6.496 	0.728 	0.281
 6.811 	0.641 	0.110
 6.962 	0.531 	-0.106
 6.613 	0.425 	0.335
 6.102 	0.762 	0.320
 6.015 	1.172 	0.262
 5.864 	1.525 	0.367
 5.889 	1.039 	0.060
 5.648 	1.246 	-0.238
 6.027 	0.647 	0.131
 6.557 	-0.012 	0.210
 6.533 	-0.458 	0.437
 6.712 	-0.456 	0.622
 6.630 	0.712 	0.509
 6.659 	0.555 	0.382
 6.880 	0.104 	0.176
 6.937 	0.189 	0.285
 6.825 	0.193 	0.231
 6.832 	0.279 	0.093
 7.196 	0.717 	-0.010
 7.054 	0.853 	0.189
 6.570 	1.086 	0.104
 6.506 	1.159 	-0.143