# vtk DataFile Version 3.0
HighT1
ASCII
DATASET STRUCTURED_POINTS
DIMENSIONS 16 16 19
ORIGIN 929.001000000000 929.001000000000 5.001000000000
SPACING 10.000000000000 10.000000000000 10.000000000000
POINT_DATA 4864
 FIELD attributes 1
U 3 4864 float
2.813 	0.191 	0.150
 3.012 	-0.840 	0.025
 2.785 	-0.835 	0.209
 2.986 	-0.464 	0.146
 3.160 	-0.460 	0.351
 3.095 	-0.486 	0.290
 3.142 	-0.297 	0.150
 3.168 	-0.602 	0.090
 3.259 	-0.674 	-0.091
 3.513 	-0.426 	-0.103
 3.459 	-0.353 	0.107
 3.632 	-0.179 	0.060
 3.888 	-0.079 	0.181
 3.765 	-0.299 	0.045
 3.454 	-0.069 	-0.028
 3.789 	0.035 	-0.256
 3.990 	-0.024 	-0.560
 4.452 	0.024 	-0.414
 4.975 	0.679 	-0.648
 4.561 	-0.013 	-0.120
 3.813 	-0.710 	0.118
 3.359 	-0.212 	-0.026
 2.878 	0.027 	-0.056
 2.759 	-0.241 	-0.052
 3.007 	-0.341 	0.019
 3.368 	-0.421 	0.137
 3.987 	-0.812 	0.000
 4.423 	-1.002 	0.233
 4.419 	-0.347 	0.077
 4.020 	-0.318 	0.108
 3.317 	-0.352 	0.031
 3.345 	-0.542 	0.032
 3.885 	0.332 	-0.292
 4.248 	0.337 	-0.189
 4.299 	0.432 	0.106
 5.106 	1.056 	-0.152
 4.658 	0.292 	0.215
 3.529 	0.362 	0.286
 3.593 	-0.155 	0.416
 4.432 	-1.141 	0.372
 4.598 	-0.892 	0.114
 4.240 	-1.150 	-0.075
 3.747 	-1.671 	0.077
 3.880 	-0.414 	0.128
 3.478 	-0.344 	0.190
 3.373 	-0.269 	0.185
 4.220 	-0.982 	0.105
 4.524 	-0.773 	-0.026
 3.639 	0.280 	-0.020
 4.259 	0.594 	-0.434
 4.520 	0.639 	-0.349
 4.702 	0.738 	0.024
 4.845 	0.924 	0.038
 5.167 	0.372 	0.053
 5.318 	-0.530 	0.059
 4.626 	-0.694 	0.137
 4.587 	-1.041 	0.012
 4.681 	-1.081 	0.048
 4.238 	-1.178 	-0.324
 3.790 	-0.703 	0.024
 3.683 	-0.378 	0.236
 3.457 	-1.171 	0.193
 3.679 	-1.574 	0.355
 4.504 	-1.610 	0.470
 3.366 	0.032 	0.083
 3.492 	0.470 	0.030
 4.097 	0.799 	-0.151
 4.723 	0.856 	-0.143
 5.075 	0.511 	-0.014
 5.321 	-0.105 	0.057
 5.158 	-0.417 	-0.174
 4.473 	-0.216 	-0.005
 3.886 	-0.174 	0.079
 3.676 	-0.847 	0.031
 3.427 	-1.014 	0.130
 3.002 	-1.006 	0.476
 3.267 	-0.966 	0.531
 4.513 	-1.727 	0.173
 5.346 	-2.081 	-0.395
 4.988 	-2.069 	0.670
 3.580 	0.079 	-0.116
 3.872 	0.104 	-0.033
 4.215 	0.323 	-0.043
 4.426 	0.529 	-0.005
 4.575 	0.492 	-0.018
 4.425 	0.144 	-0.053
 4.272 	0.126 	-0.004
 4.222 	0.208 	0.173
 4.172 	0.360 	-0.089
 4.004 	-0.059 	-0.206
 4.409 	-0.265 	-0.145
 5.076 	-0.641 	-0.068
 5.665 	-0.747 	-0.365
 6.618 	-0.925 	-0.963
 6.769 	-0.515 	-0.793
 7.194 	-1.081 	-0.477
 3.443 	-0.414 	0.327
 3.786 	-0.469 	0.315
 3.512 	-0.454 	0.518
 3.872 	-0.056 	0.214
 4.247 	0.252 	0.117
 4.514 	-0.152 	0.083
 4.521 	-0.403 	0.125
 4.612 	-0.707 	0.195
 4.803 	-0.467 	0.080
 5.017 	-0.036 	-0.031
 5.742 	0.208 	-0.392
 5.303 	-0.603 	-0.086
 5.258 	-0.461 	-0.381
 5.950 	-0.633 	-0.987
 6.042 	-0.520 	-0.200
 5.893 	-0.530 	-0.211
 4.767 	-0.108 	-0.323
 5.034 	-0.125 	-0.248
 5.363 	-0.116 	-0.270
 5.690 	-0.234 	-0.048
 5.414 	-0.353 	0.130
 4.861 	-0.463 	0.104
 5.072 	-0.703 	-0.101
 5.529 	-0.673 	-0.272
 5.681 	-0.499 	-0.401
 5.586 	-0.238 	-0.094
 5.426 	0.043 	-0.230
 6.216 	-0.053 	-0.266
 5.269 	-0.385 	-0.353
 5.072 	0.205 	-0.081
 4.728 	-0.415 	0.373
 4.665 	0.013 	0.244
 4.465 	-0.085 	-0.160
 4.776 	0.059 	-0.157
 5.063 	-0.105 	-0.158
 5.222 	-0.007 	0.056
 4.748 	-0.051 	0.103
 4.512 	-0.396 	-0.115
 4.674 	-0.265 	-0.362
 4.794 	-0.269 	-0.246
 4.878 	-0.211 	-0.046
 5.252 	-0.012 	-0.093
 5.758 	0.103 	-0.501
 5.618 	0.837 	-0.036
 4.894 	0.473 	0.000
 4.367 	0.423 	0.051
 4.504 	-0.190 	0.218
 3.903 	0.389 	-0.044
 4.588 	0.403 	-0.272
 4.431 	0.365 	0.016
 5.095 	-0.070 	-0.188
 5.465 	-0.317 	0.193
 5.109 	0.049 	0.095
 4.555 	-0.217 	0.119
 4.098 	0.012 	0.013
 4.075 	-0.158 	-0.152
 4.255 	-0.319 	-0.001
 5.051 	0.176 	-0.072
 4.959 	0.769 	-0.063
 5.399 	0.711 	0.047
 5.451 	1.192 	0.290
 5.224 	0.714 	-0.418
 5.572 	0.750 	0.070
 5.304 	-0.115 	0.195
 4.600 	0.450 	0.033
 4.939 	0.635 	-0.290
 4.812 	-0.134 	0.444
 4.909 	0.098 	0.189
 4.142 	-0.446 	0.193
 4.250 	0.116 	0.248
 3.973 	-0.297 	0.302
 4.584 	-0.402 	0.047
 5.542 	-0.310 	-0.322
 5.639 	-0.381 	-0.082
 4.960 	0.408 	-0.032
 5.287 	-0.010 	-0.031
 5.026 	0.762 	0.236
 5.447 	0.825 	-0.359
 6.494 	0.767 	-0.133
 5.886 	0.841 	-0.118
 3.614 	0.187 	0.086
 3.464 	0.106 	0.199
 3.445 	-0.284 	0.301
 2.837 	-1.246 	0.251
 3.217 	-1.555 	-0.099
 3.902 	-1.316 	-0.573
 5.083 	-0.441 	-0.956
 5.192 	-0.367 	-0.683
 5.691 	0.193 	-0.647
 5.515 	0.400 	-0.022
 5.071 	0.452 	-0.026
 5.232 	0.657 	0.069
 5.203 	0.602 	0.162
 5.428 	0.597 	-0.137
 5.265 	1.443 	0.261
 4.234 	1.466 	0.332
 3.725 	0.723 	0.231
 4.310 	0.063 	-0.257
 5.286 	-0.270 	0.184
 4.716 	-1.093 	0.238
 2.976 	-0.881 	-0.132
 3.133 	-0.911 	0.084
 3.508 	-0.073 	-0.046
 4.253 	0.530 	-0.020
 4.592 	0.647 	0.205
 3.971 	0.682 	0.508
 4.161 	1.336 	-0.085
 3.443 	1.284 	0.027
 3.643 	0.648 	-0.275
 4.238 	0.467 	0.040
 4.640 	0.859 	0.344
 5.409 	1.925 	0.395
 5.428 	0.285 	0.100
 6.026 	0.151 	-0.438
 5.650 	0.004 	-0.011
 4.495 	-0.325 	0.152
 3.899 	-0.052 	-0.262
 3.892 	-0.216 	-0.338
 2.792 	-0.448 	0.169
 3.092 	0.076 	0.362
 2.975 	0.514 	0.111
 3.105 	0.580 	0.182
 3.307 	0.725 	0.033
 3.582 	1.062 	0.059
 3.755 	0.120 	-0.206
 4.067 	0.611 	-0.002
 4.081 	0.079 	0.036
 4.580 	0.498 	-0.252
 5.317 	0.109 	-0.282
 5.962 	0.545 	-0.303
 6.249 	0.805 	-0.360
 4.229 	0.322 	0.235
 3.038 	-0.544 	0.167
 3.874 	0.025 	-0.159
 3.820 	-0.363 	-0.015
 3.994 	-0.198 	0.072
 4.415 	-0.253 	0.331
 3.995 	-0.287 	0.261
 4.077 	0.753 	0.326
 3.704 	0.201 	-0.206
 3.779 	0.154 	0.214
 3.073 	0.067 	0.464
 3.258 	0.043 	0.291
 3.092 	-0.188 	0.137
 3.939 	1.196 	0.775
 4.642 	1.265 	0.196
 5.214 	2.287 	-0.523
 4.842 	0.560 	0.336
 4.169 	-0.114 	0.096
 4.855 	0.093 	-0.055
 4.910 	-0.507 	-0.113
 5.232 	0.063 	-0.818
 5.448 	0.165 	0.413
 4.264 	0.030 	0.125
 2.824 	0.016 	0.461
 2.689 	0.929 	0.053
 3.550 	0.528 	-0.250
 3.795 	-0.182 	-0.128
 3.441 	-0.463 	0.072
 3.856 	-0.187 	0.036
 4.184 	1.323 	0.109
 4.713 	0.401 	-0.636
 5.272 	0.120 	-0.284
 5.273 	1.553 	-0.049
 4.146 	0.757 	0.713
 3.954 	0.556 	0.368
 3.740 	0.669 	0.336
 3.911 	0.747 	0.058
 4.215 	0.461 	-0.188
 4.581 	0.036 	-0.267
 5.119 	-0.277 	-0.193
 5.047 	-1.030 	-0.096
 4.811 	-0.317 	0.227
 4.164 	-0.111 	0.156
 4.327 	0.264 	0.236
 4.560 	-0.135 	-0.068
 5.061 	0.580 	-0.735
 4.633 	0.067 	-0.310
 4.614 	-0.374 	-0.728
 5.049 	1.503 	-0.056
 4.792 	0.608 	0.021
 4.929 	0.536 	0.175
 4.359 	0.522 	0.136
 4.552 	0.224 	-0.368
 4.657 	0.175 	-0.347
 4.466 	0.416 	-0.076
 4.319 	0.254 	0.281
 5.347 	-1.070 	0.783
 5.369 	-0.813 	0.588
 5.083 	-0.045 	0.459
 5.437 	0.320 	0.033
 4.883 	0.218 	0.156
 4.742 	0.245 	-0.283
 4.546 	0.166 	0.128
 4.662 	-0.413 	-0.368
 5.107 	0.881 	-0.456
 5.388 	0.900 	-0.311
 4.566 	0.912 	0.194
 4.019 	0.878 	-0.012
 4.171 	0.917 	0.005
 4.523 	0.175 	0.194
 5.300 	-0.227 	-0.185
 5.785 	-0.423 	0.246
 6.212 	-0.997 	0.177
 5.179 	-0.877 	1.102
 4.323 	-0.149 	0.533
 4.457 	0.502 	0.151
 4.912 	0.434 	-0.351
 6.532 	0.610 	-0.587
 6.273 	0.397 	-0.878
 5.081 	0.070 	0.078
 4.776 	0.608 	-0.457
 4.616 	1.164 	-0.041
 4.378 	1.200 	0.389
 4.770 	0.786 	-0.010
 5.493 	0.297 	-0.295
 5.906 	-0.650 	0.095
 6.300 	-1.053 	-0.034
 6.161 	-0.502 	-0.074
 5.923 	-0.669 	0.291
 6.052 	-0.869 	0.455
 6.133 	-0.206 	0.421
 5.543 	0.370 	0.505
 4.911 	0.140 	1.058
 5.669 	0.907 	-0.111
 6.060 	0.820 	-0.378
 5.771 	0.495 	0.010
 4.967 	0.727 	-0.163
 5.283 	0.963 	-0.246
 5.998 	0.716 	-0.160
 6.348 	0.247 	-0.393
 6.502 	-0.007 	-0.431
 6.704 	-0.309 	-0.278
 6.593 	-0.732 	0.049
 6.215 	-0.662 	0.062
 6.227 	-0.211 	0.238
 6.493 	-0.082 	-0.595
 6.985 	-0.255 	-0.216
 6.354 	0.140 	-0.320
 5.124 	0.385 	-0.249
 5.945 	0.774 	-0.129
 5.799 	0.688 	-0.077
 5.916 	0.612 	-0.184
 5.935 	0.547 	-0.009
 6.012 	0.812 	0.186
 6.295 	0.672 	0.132
 6.516 	0.440 	0.097
 6.644 	0.230 	-0.109
 6.736 	0.273 	-0.514
 6.942 	-0.249 	-0.423
 6.702 	-0.483 	0.070
 6.505 	-0.307 	-0.168
 6.642 	-0.373 	-0.585
 6.513 	-0.436 	-1.005
 6.547 	0.063 	-0.569
 6.763 	-0.136 	-0.261
 4.135 	0.744 	0.081
 4.281 	0.588 	-0.034
 4.097 	0.345 	0.173
 4.248 	0.578 	0.445
 4.336 	0.597 	0.659
 4.853 	0.415 	0.693
 5.629 	0.658 	0.322
 6.302 	0.799 	-0.472
 6.564 	0.929 	-0.614
 7.060 	-0.233 	-0.425
 6.470 	-0.193 	-0.260
 6.573 	-0.844 	-0.371
 6.902 	-0.970 	-0.814
 6.851 	-0.706 	-1.060
 6.646 	-0.582 	-0.544
 6.546 	-0.655 	-0.501
 5.694 	0.406 	-0.485
 5.994 	0.198 	-0.516
 6.448 	-0.159 	-0.500
 6.472 	0.781 	-0.598
 6.187 	0.723 	-0.217
 6.101 	0.370 	-0.195
 6.502 	0.541 	-0.262
 6.191 	0.859 	-0.536
 6.384 	0.432 	-0.607
 6.678 	-0.095 	-0.079
 6.561 	-0.209 	-0.421
 6.938 	-0.566 	-0.638
 7.124 	-0.337 	0.028
 6.703 	-0.352 	-0.799
 6.004 	-0.050 	-0.012
 5.647 	0.004 	-0.066
 5.571 	0.290 	0.032
 5.806 	-0.257 	0.152
 5.946 	-0.138 	0.232
 6.300 	0.180 	0.089
 6.479 	0.635 	-0.029
 6.498 	0.194 	-0.543
 6.765 	0.549 	-0.653
 6.795 	1.058 	-0.830
 6.824 	0.185 	-0.459
 6.382 	-0.563 	0.210
 6.993 	-0.197 	-0.467
 6.774 	-0.229 	-0.141
 5.938 	0.319 	-0.142
 5.184 	0.250 	0.078
 5.395 	0.258 	0.015
 5.372 	-0.735 	0.672
 5.923 	-0.360 	0.029
 5.755 	0.003 	-0.149
 5.756 	0.061 	-0.049
 6.284 	0.379 	0.122
 6.501 	0.720 	0.136
 6.838 	0.413 	-0.015
 6.783 	0.613 	0.137
 7.186 	0.228 	-0.172
 6.887 	0.254 	-0.254
 6.408 	0.035 	0.280
 6.168 	-0.446 	-0.284
 5.669 	0.051 	0.122
 6.062 	0.339 	0.103
 6.218 	0.405 	-0.303
 5.510 	0.100 	-0.311
 4.854 	0.045 	0.576
 6.199 	-0.448 	-0.294
 5.138 	-0.479 	0.302
 4.625 	-0.185 	0.669
 4.814 	-0.709 	1.042
 5.960 	0.668 	0.256
 6.270 	0.719 	0.180
 6.677 	0.868 	-0.014
 6.782 	0.503 	-0.676
 6.641 	0.674 	-0.378
 6.637 	0.310 	-0.013
 5.989 	-0.212 	-0.071
 5.879 	0.081 	-0.160
 6.755 	0.268 	0.154
 6.475 	0.463 	-0.107
 5.923 	1.370 	-0.457
 5.554 	0.726 	0.252
 6.363 	-0.647 	0.093
 5.562 	0.219 	-0.004
 6.189 	-0.417 	-0.088
 6.303 	-0.188 	0.559
 5.263 	0.458 	0.249
 6.060 	0.877 	-0.726
 6.325 	0.433 	-0.944
 6.228 	0.185 	-0.446
 5.313 	-0.263 	-0.410
 5.355 	0.372 	-0.022
 4.734 	0.389 	0.053
 3.771 	-0.618 	-0.032
 4.450 	-0.186 	0.130
 4.908 	0.036 	0.211
 5.263 	1.047 	-0.089
 5.353 	0.873 	0.003
 6.724 	-0.595 	-0.059
 6.571 	-0.080 	-0.630
 6.025 	0.400 	0.094
 5.685 	-0.432 	1.126
 6.129 	-0.409 	-0.267
 5.634 	-0.325 	0.171
 5.948 	-0.281 	-0.315
 4.618 	0.049 	0.134
 4.782 	-0.187 	0.066
 4.513 	0.439 	0.239
 3.784 	0.661 	0.539
 4.597 	-0.047 	-0.666
 4.999 	-0.365 	-0.193
 4.856 	-0.588 	-0.001
 4.891 	-0.426 	0.603
 5.128 	1.143 	0.076
 6.782 	-0.244 	-0.338
 6.708 	0.117 	-0.773
 6.720 	0.423 	-0.359
 5.998 	-0.011 	1.081
 6.883 	0.266 	-0.233
 6.234 	0.572 	-0.288
 5.308 	0.406 	-0.084
 5.229 	-0.510 	0.498
 5.534 	-1.099 	-0.313
 4.533 	0.446 	0.785
 3.750 	1.013 	1.088
 4.485 	-0.135 	-0.208
 5.322 	-0.673 	-0.517
 5.432 	-0.614 	-0.158
 4.767 	0.150 	0.443
 4.823 	0.168 	0.549
 6.124 	-0.551 	-0.280
 6.179 	0.027 	-0.188
 5.571 	0.858 	-0.421
 6.032 	0.374 	0.830
 6.456 	0.299 	-0.195
 5.681 	0.811 	-0.194
 5.305 	0.224 	0.448
 5.332 	-0.512 	-0.042
 5.063 	0.077 	-0.485
 4.086 	0.225 	0.477
 4.092 	0.732 	1.040
 4.770 	-0.049 	-0.358
 3.951 	-0.079 	-0.331
 3.271 	-0.264 	0.508
 3.166 	-0.872 	0.621
 3.280 	-0.480 	0.413
 5.118 	-0.354 	-0.376
 4.815 	-0.431 	0.104
 4.540 	1.011 	-0.223
 5.634 	1.426 	0.276
 5.889 	0.574 	-0.805
 5.917 	1.286 	-0.418
 6.152 	0.406 	-0.263
 5.386 	-0.089 	-0.379
 5.087 	0.575 	0.431
 5.664 	0.364 	0.231
 5.540 	-0.193 	0.238
 5.757 	0.357 	-0.827
 4.884 	1.128 	-0.635
 4.956 	0.177 	0.553
 4.993 	-0.512 	0.215
 3.847 	-0.569 	0.382
 5.720 	0.235 	0.429
 5.492 	-0.095 	0.051
 5.783 	0.539 	0.488
 5.508 	0.888 	0.487
 5.585 	1.849 	1.147
 5.723 	1.314 	0.690
 4.988 	0.676 	0.498
 4.924 	0.911 	0.098
 4.930 	1.547 	0.163
 5.341 	0.977 	-0.545
 5.486 	0.376 	-0.402
 5.592 	0.219 	-0.442
 5.484 	0.202 	0.535
 4.996 	0.020 	0.768
 4.557 	0.611 	0.520
 5.191 	-0.031 	0.056
 5.667 	0.330 	-0.160
 5.005 	0.150 	-0.306
 4.610 	-0.146 	-0.488
 5.253 	0.837 	0.300
 5.202 	1.044 	0.564
 4.983 	1.142 	0.808
 5.130 	0.615 	-0.102
 5.036 	0.467 	-0.151
 5.125 	0.780 	-0.040
 5.372 	0.715 	-0.088
 5.450 	0.475 	0.212
 5.145 	0.465 	0.547
 5.655 	0.095 	0.757
 6.604 	-0.002 	0.130
 6.072 	0.374 	0.316
 5.517 	-0.013 	-0.046
 5.803 	0.770 	-0.313
 5.581 	0.269 	-0.023
 5.123 	-0.113 	0.029
 4.946 	0.117 	0.000
 5.423 	0.934 	-0.385
 5.817 	1.271 	-0.088
 6.114 	0.904 	-0.230
 5.168 	0.861 	-0.164
 4.694 	0.932 	0.132
 4.731 	0.053 	0.014
 5.107 	0.057 	0.380
 4.835 	0.446 	0.168
 4.810 	0.075 	0.965
 5.115 	-0.486 	0.915
 5.806 	0.040 	0.313
 6.319 	0.417 	-0.147
 6.208 	0.782 	-0.367
 6.000 	0.313 	-0.510
 6.118 	-0.238 	-0.301
 5.781 	-0.198 	-0.214
 5.055 	0.778 	0.232
 4.819 	1.166 	0.057
 4.810 	1.038 	0.113
 5.181 	0.837 	0.134
 5.952 	0.304 	-0.096
 5.890 	0.120 	0.233
 5.312 	-0.172 	-0.011
 5.260 	0.184 	-0.063
 5.290 	-0.099 	-0.379
 5.506 	-0.200 	0.790
 5.749 	-0.228 	0.886
 5.462 	0.245 	0.356
 6.635 	0.444 	-0.114
 6.303 	0.395 	0.031
 5.970 	0.236 	-0.036
 6.220 	0.302 	-0.411
 5.927 	0.690 	0.147
 5.702 	1.204 	-0.180
 6.325 	0.933 	-0.693
 6.975 	0.366 	-0.869
 7.517 	0.325 	-0.746
 6.945 	0.209 	-0.339
 6.642 	-0.194 	0.239
 6.197 	-0.405 	0.117
 6.281 	-0.396 	-0.324
 6.007 	0.043 	-0.258
 6.659 	-0.028 	0.076
 6.486 	0.533 	-0.150
 6.176 	0.063 	0.076
 6.023 	0.158 	0.189
 6.152 	0.108 	0.026
 6.286 	0.171 	-0.225
 6.697 	0.406 	-0.033
 6.761 	0.725 	0.104
 6.633 	0.540 	-0.203
 6.850 	-0.161 	-0.484
 7.007 	0.210 	-0.594
 7.090 	0.271 	-0.504
 7.134 	0.028 	-0.256
 6.753 	-0.421 	0.204
 7.022 	-0.989 	-0.116
 6.825 	-0.523 	-0.510
 6.672 	-0.243 	-0.332
 6.926 	0.184 	-0.085
 5.968 	0.526 	0.043
 6.124 	0.349 	-0.088
 6.202 	0.112 	-0.026
 6.344 	0.268 	0.057
 6.863 	0.584 	0.286
 6.736 	0.941 	0.161
 6.671 	0.621 	-0.463
 6.426 	-0.178 	-0.843
 6.467 	0.007 	-0.884
 6.703 	0.095 	-0.413
 6.794 	-0.022 	0.012
 6.812 	-0.820 	-0.398
 6.879 	-1.035 	-0.565
 7.114 	-0.738 	-0.746
 6.987 	-0.383 	-0.745
 7.069 	-0.387 	-0.092
 6.267 	0.145 	-0.191
 6.253 	0.260 	-0.149
 6.479 	-0.057 	-0.171
 6.475 	0.312 	-0.026
 6.845 	0.699 	0.010
 7.061 	1.228 	-0.129
 7.130 	0.786 	-0.341
 6.600 	0.136 	-0.103
 6.301 	0.163 	-0.077
 6.458 	0.070 	-0.183
 6.691 	-0.312 	-0.500
 6.653 	-0.989 	-0.824
 6.403 	-0.895 	-0.260
 6.299 	-0.606 	-0.533
 6.405 	-0.178 	-0.282
 6.271 	0.576 	0.308
 6.245 	-0.260 	0.018
 6.607 	-0.272 	-0.007
 6.612 	-0.482 	-0.072
 6.621 	0.043 	0.020
 6.431 	0.526 	-0.024
 6.440 	0.896 	-0.041
 6.694 	0.417 	-0.080
 6.897 	-0.019 	-0.122
 6.774 	0.088 	0.324
 6.791 	0.218 	0.274
 6.562 	-0.751 	-0.518
 6.580 	-0.581 	-0.098
 6.391 	-0.581 	-0.609
 6.498 	-0.380 	0.408
 6.084 	0.718 	0.234
 5.488 	-0.143 	0.327
 5.352 	-0.422 	0.196
 5.635 	-0.273 	0.118
 5.969 	-0.095 	0.140
 5.947 	0.038 	0.078
 6.089 	0.310 	0.124
 6.134 	0.248 	0.014
 6.633 	-0.514 	-0.372
 7.199 	-0.053 	-0.399
 6.956 	0.032 	-0.545
 6.475 	0.007 	-0.180
 6.021 	-0.435 	-0.246
 6.038 	-0.523 	0.164
 6.456 	-0.316 	0.124
 6.348 	0.307 	0.057
 6.505 	0.696 	-0.078
 6.092 	0.770 	0.795
 5.640 	-0.651 	0.229
 5.663 	-0.637 	0.062
 5.763 	-0.548 	0.337
 5.937 	-0.749 	1.032
 6.357 	-0.360 	0.578
 6.333 	-0.049 	0.090
 6.772 	-0.798 	-0.676
 6.424 	0.023 	-0.585
 5.862 	0.194 	0.058
 6.044 	-0.013 	0.207
 5.540 	-0.118 	0.376
 5.071 	-0.587 	0.140
 5.359 	-0.288 	-0.196
 5.593 	-0.300 	-0.115
 6.667 	0.562 	0.050
 6.658 	1.252 	0.509
 6.306 	-0.876 	0.147
 6.719 	-0.290 	-0.091
 6.043 	-0.178 	-0.293
 5.614 	-0.547 	0.426
 6.260 	-0.370 	0.371
 6.081 	-0.343 	0.054
 6.460 	0.048 	-0.616
 6.220 	0.453 	0.101
 5.142 	-0.103 	0.798
 4.608 	0.126 	0.326
 4.908 	-0.242 	0.144
 5.423 	-0.292 	-0.466
 4.482 	-1.051 	0.462
 4.369 	-0.991 	1.272
 5.413 	-0.100 	0.357
 6.336 	1.099 	0.535
 6.966 	-0.327 	-0.519
 6.227 	0.270 	0.015
 5.790 	0.249 	0.141
 5.976 	-0.044 	0.179
 5.981 	-0.306 	0.474
 5.983 	-0.026 	-0.459
 6.231 	0.101 	0.600
 5.285 	0.405 	0.503
 4.807 	-0.070 	0.707
 5.260 	0.096 	0.359
 5.330 	0.160 	-0.161
 5.052 	-0.100 	-0.492
 4.882 	-0.598 	-0.135
 5.050 	-1.225 	0.184
 5.121 	-0.911 	-0.096
 5.012 	0.113 	1.306
 6.359 	-0.645 	-0.132
 6.639 	0.222 	-0.267
 6.572 	0.305 	0.053
 6.282 	0.136 	0.092
 5.794 	0.372 	0.361
 6.071 	-0.918 	-0.211
 6.057 	0.648 	0.684
 5.286 	0.851 	-0.059
 4.675 	-0.328 	0.217
 4.865 	0.133 	0.999
 5.753 	-0.150 	0.096
 5.872 	-0.260 	-0.410
 6.567 	-0.156 	-0.563
 5.849 	-0.802 	-0.153
 4.823 	-1.118 	0.178
 4.675 	-1.033 	0.295
 5.249 	-0.865 	-0.271
 6.007 	-0.301 	-0.122
 6.283 	-0.033 	-0.378
 6.487 	0.117 	-0.213
 6.808 	0.209 	-0.234
 6.589 	0.330 	-0.151
 6.732 	0.649 	0.121
 6.635 	0.858 	-0.113
 6.298 	-0.007 	0.002
 6.711 	0.586 	0.580
 6.997 	0.216 	0.317
 6.438 	-0.097 	-0.091
 5.976 	0.125 	-0.253
 5.229 	0.277 	0.397
 5.030 	-0.059 	0.542
 5.484 	-0.448 	0.151
 5.250 	-0.612 	-0.259
 5.096 	-0.543 	0.061
 5.094 	-0.509 	-0.312
 5.540 	-0.270 	-0.579
 5.835 	0.094 	-0.783
 6.266 	0.702 	-0.473
 6.465 	0.704 	-0.218
 6.630 	0.703 	-0.207
 6.680 	0.135 	0.226
 6.502 	-0.145 	0.369
 6.486 	0.174 	0.182
 6.254 	0.181 	-0.041
 5.887 	0.474 	-0.328
 5.843 	0.902 	-0.006
 6.279 	0.219 	-0.095
 6.755 	-0.076 	-0.517
 5.820 	-0.045 	0.161
 5.787 	0.189 	0.045
 5.312 	0.060 	-0.085
 5.839 	0.338 	0.632
 5.825 	0.894 	0.665
 6.133 	1.544 	0.973
 6.026 	0.482 	0.898
 5.749 	1.140 	0.423
 5.858 	1.751 	0.112
 5.888 	1.015 	-0.061
 5.703 	0.683 	-0.343
 5.679 	0.706 	-0.361
 5.731 	0.599 	-0.117
 5.874 	0.342 	0.330
 5.752 	0.238 	0.345
 6.091 	0.567 	0.094
 5.878 	0.419 	-0.120
 5.415 	0.254 	-0.084
 5.123 	0.387 	-0.064
 4.757 	0.072 	0.231
 5.538 	0.495 	0.738
 5.980 	1.070 	1.141
 5.871 	0.784 	0.420
 5.274 	0.934 	0.219
 5.537 	1.352 	0.141
 5.251 	0.769 	0.271
 5.252 	0.134 	0.613
 5.777 	0.425 	0.750
 5.667 	0.701 	0.731
 5.334 	1.229 	0.477
 5.896 	0.784 	-0.063
 5.932 	0.410 	-0.069
 5.674 	0.898 	0.059
 5.093 	0.241 	0.274
 5.407 	0.415 	0.282
 5.645 	-0.009 	0.187
 5.489 	0.124 	0.080
 5.519 	0.467 	-0.051
 5.341 	0.851 	-0.024
 5.459 	0.570 	0.149
 5.058 	0.985 	0.226
 5.154 	0.619 	0.625
 5.396 	-0.407 	0.456
 5.289 	-0.392 	0.708
 5.418 	0.253 	0.715
 5.861 	0.599 	0.895
 6.125 	0.270 	0.676
 6.458 	0.292 	-0.020
 5.865 	0.529 	-0.067
 5.838 	0.218 	-0.272
 6.331 	0.677 	-0.632
 6.298 	0.150 	-0.298
 6.547 	-0.052 	0.099
 6.177 	0.359 	-0.013
 5.854 	0.722 	0.273
 5.888 	0.795 	0.116
 5.892 	0.670 	0.122
 6.073 	0.590 	0.021
 6.434 	-0.006 	0.118
 6.184 	-0.562 	0.310
 6.195 	-0.283 	0.370
 6.280 	-0.020 	0.390
 5.905 	0.055 	0.502
 5.628 	0.687 	0.195
 6.564 	0.405 	0.434
 6.641 	-0.068 	0.252
 6.645 	-0.006 	-0.095
 6.642 	0.059 	-0.243
 6.916 	0.110 	-0.015
 7.027 	0.344 	0.073
 7.101 	0.672 	-0.346
 7.157 	0.801 	-0.311
 6.874 	0.475 	-0.552
 6.524 	0.786 	-0.385
 6.916 	0.032 	0.123
 7.341 	-0.045 	0.319
 7.098 	-0.442 	0.074
 6.592 	-0.485 	0.375
 5.737 	0.471 	0.317
 6.092 	0.796 	0.244
 6.885 	0.204 	0.365
 6.956 	-0.276 	0.170
 7.267 	-0.253 	-0.299
 7.528 	0.098 	-0.326
 6.849 	0.121 	-0.191
 6.685 	0.407 	0.205
 6.542 	0.274 	-0.240
 6.898 	0.221 	-0.511
 7.076 	0.620 	-0.442
 7.167 	0.576 	-0.184
 7.216 	-0.064 	-0.172
 7.571 	0.140 	-0.021
 7.439 	-0.463 	0.050
 6.796 	-0.262 	-0.013
 6.682 	-0.040 	-0.072
 7.269 	-0.065 	-0.131
 7.025 	0.230 	-0.028
 7.125 	-0.173 	-0.296
 7.225 	-0.031 	-0.193
 6.938 	0.285 	-0.191
 6.451 	0.642 	-0.038
 6.505 	0.684 	-0.003
 6.489 	-0.109 	-0.076
 6.503 	-0.544 	-0.094
 6.593 	-0.392 	-0.171
 6.901 	-0.244 	-0.110
 7.236 	-0.133 	-0.026
 7.515 	-0.096 	0.088
 7.251 	-0.367 	-0.177
 7.193 	0.030 	-0.547
 7.041 	-0.401 	-0.561
 7.038 	-0.433 	-0.242
 6.929 	0.283 	-0.247
 6.834 	0.173 	-0.309
 6.417 	0.160 	0.184
 6.254 	0.371 	0.325
 6.480 	0.577 	-0.056
 6.785 	0.308 	-0.143
 6.943 	-0.560 	-0.254
 6.859 	-0.742 	-0.021
 6.855 	-0.845 	-0.167
 6.989 	-0.518 	-0.278
 7.104 	-0.439 	-0.455
 7.281 	-0.414 	-0.386
 7.188 	-0.669 	-0.356
 7.255 	-0.668 	-0.456
 7.091 	-0.543 	-0.618
 6.522 	-0.284 	0.126
 6.585 	0.462 	0.004
 6.648 	0.396 	-0.002
 6.905 	0.218 	0.116
 6.950 	-0.005 	0.263
 6.897 	0.082 	0.075
 6.683 	-0.032 	0.108
 6.924 	-0.126 	-0.320
 6.948 	-0.312 	-0.465
 7.016 	-0.380 	0.006
 7.293 	-0.417 	-0.100
 7.527 	-0.574 	-0.409
 7.806 	-0.575 	-0.221
 6.952 	-0.582 	-0.323
 6.344 	-0.882 	-0.104
 6.029 	-0.004 	0.338
 6.380 	0.343 	0.130
 6.058 	-0.082 	0.387
 5.880 	-0.372 	0.431
 6.049 	-0.216 	0.331
 6.148 	-0.087 	0.186
 6.336 	-0.080 	0.113
 6.587 	-0.137 	-0.024
 6.806 	-0.333 	-0.217
 7.134 	-0.543 	-0.474
 7.437 	-0.291 	-0.541
 7.637 	-0.094 	-0.399
 7.216 	-0.134 	-0.034
 6.625 	-0.319 	0.020
 6.527 	-0.257 	-0.141
 6.580 	-0.663 	-0.049
 6.794 	-0.446 	0.022
 6.869 	-0.032 	0.243
 6.056 	-0.400 	0.059
 6.332 	-0.634 	-0.050
 5.865 	-0.579 	0.466
 5.767 	-0.152 	0.718
 6.388 	-0.143 	0.342
 6.614 	-0.406 	-0.104
 6.798 	-0.776 	-0.513
 6.304 	-0.635 	-0.505
 6.024 	0.021 	0.387
 6.028 	0.173 	0.664
 5.699 	-0.068 	0.375
 5.947 	-0.415 	0.085
 6.194 	-0.541 	-0.087
 6.454 	-0.793 	-0.183
 6.966 	-0.362 	-0.087
 6.841 	0.084 	-0.111
 6.959 	-0.911 	-0.044
 7.215 	-0.511 	-0.326
 7.134 	-0.406 	-0.001
 7.219 	0.211 	0.129
 7.233 	-0.192 	0.189
 7.326 	-0.508 	-0.298
 6.338 	-0.207 	-0.400
 5.472 	0.095 	0.185
 5.356 	-0.105 	1.066
 5.503 	-0.099 	0.569
 5.889 	0.041 	-0.109
 5.811 	-0.150 	-0.005
 4.764 	-0.200 	0.205
 4.830 	-0.973 	0.785
 5.649 	-0.576 	0.228
 6.108 	-0.438 	0.223
 6.719 	-0.848 	-0.371
 6.900 	-0.303 	-0.224
 6.954 	-0.117 	0.288
 7.296 	-0.035 	-0.023
 6.457 	-0.090 	0.550
 5.943 	-0.341 	-0.395
 5.536 	0.311 	0.049
 5.546 	0.607 	0.773
 5.902 	0.016 	0.114
 6.669 	-0.222 	0.013
 6.965 	-0.299 	-0.412
 6.544 	-0.048 	-0.016
 6.167 	0.231 	-0.157
 6.220 	0.006 	-0.237
 6.089 	-0.439 	0.543
 5.864 	-1.142 	1.200
 6.326 	-0.922 	-0.097
 6.476 	-0.398 	-0.050
 6.837 	-0.088 	0.342
 6.669 	-0.180 	0.263
 6.079 	0.439 	0.547
 5.956 	-0.315 	-0.057
 5.659 	0.354 	0.101
 6.168 	0.692 	0.320
 6.573 	0.146 	-0.096
 6.652 	0.042 	0.496
 6.713 	-0.200 	-0.099
 6.268 	-0.501 	-0.319
 6.391 	-0.301 	-0.456
 7.132 	-0.230 	-0.178
 7.619 	0.238 	-0.159
 7.692 	-0.140 	0.219
 5.987 	-0.981 	0.065
 5.728 	-0.358 	-0.468
 5.620 	-0.444 	-0.577
 5.854 	-0.007 	-0.272
 6.443 	0.139 	-0.271
 6.845 	0.034 	-0.538
 6.642 	0.465 	-0.006
 6.974 	0.496 	-0.066
 6.911 	0.134 	0.156
 6.890 	0.079 	0.409
 6.547 	-0.164 	0.393
 6.364 	-0.514 	0.088
 6.244 	-0.789 	-0.357
 6.568 	-0.539 	-0.431
 7.198 	-0.268 	-0.441
 7.728 	-0.041 	-0.390
 6.100 	-1.187 	0.004
 5.540 	-0.571 	0.301
 5.832 	-0.060 	-0.430
 5.843 	-0.317 	-0.657
 5.976 	-0.423 	-0.595
 5.947 	-0.516 	-0.568
 6.486 	-0.048 	-0.221
 6.759 	0.640 	0.048
 6.384 	0.078 	0.609
 6.136 	-0.280 	0.446
 6.133 	-0.375 	0.374
 6.467 	-0.320 	0.222
 6.278 	-0.647 	-0.348
 6.525 	-0.744 	-0.454
 6.922 	-0.622 	-0.531
 7.305 	-0.293 	-0.753
 6.891 	0.730 	-0.084
 6.525 	0.154 	0.012
 5.569 	0.089 	-0.075
 5.611 	-0.309 	-0.044
 5.854 	0.274 	0.584
 6.027 	1.022 	0.780
 5.990 	0.951 	1.435
 6.479 	1.127 	0.408
 6.363 	1.622 	0.431
 6.291 	1.403 	0.278
 6.072 	0.920 	0.029
 5.904 	0.466 	0.008
 6.002 	0.233 	0.125
 6.138 	-0.016 	0.079
 6.343 	-0.195 	0.101
 6.804 	-0.161 	-0.036
 6.991 	0.653 	0.011
 5.922 	0.561 	0.324
 6.027 	0.444 	-0.048
 5.431 	0.164 	0.199
 5.109 	0.165 	0.738
 5.778 	0.634 	0.950
 5.767 	0.758 	0.890
 5.375 	1.096 	0.664
 5.449 	1.450 	0.518
 5.393 	0.908 	0.283
 5.143 	0.270 	0.821
 5.389 	-0.061 	1.115
 5.973 	-0.507 	0.897
 6.401 	-0.890 	0.164
 6.762 	-0.442 	0.148
 6.520 	-0.118 	-0.022
 6.831 	0.765 	0.279
 6.486 	1.119 	-0.146
 5.722 	0.763 	-0.111
 5.458 	0.800 	0.077
 5.684 	0.038 	0.240
 5.823 	0.123 	0.245
 5.594 	0.394 	0.290
 5.664 	1.033 	0.225
 5.336 	1.276 	0.518
 5.352 	1.032 	0.644
 5.322 	0.573 	0.049
 5.572 	-0.233 	0.572
 6.058 	-0.521 	0.938
 6.662 	-0.638 	0.696
 6.787 	-0.842 	0.503
 6.780 	0.166 	0.279
 6.090 	0.515 	0.127
 6.235 	0.563 	0.097
 6.374 	0.703 	-0.159
 6.563 	0.595 	-0.054
 6.824 	0.375 	0.079
 6.686 	0.351 	-0.020
 6.288 	0.495 	0.204
 6.180 	0.939 	0.309
 6.179 	0.884 	0.436
 6.018 	0.955 	0.072
 5.674 	0.687 	-0.225
 6.114 	-0.196 	0.096
 6.262 	-0.547 	0.452
 6.488 	-0.808 	0.465
 6.644 	-0.510 	0.500
 6.061 	0.561 	0.459
 6.692 	0.400 	0.493
 6.664 	0.252 	0.474
 6.838 	0.315 	0.227
 6.911 	0.244 	-0.066
 6.891 	0.177 	0.004
 7.074 	0.340 	0.130
 7.199 	0.862 	-0.063
 6.683 	0.754 	-0.101
 6.440 	1.091 	-0.237
 6.154 	1.098 	-0.543
 6.438 	0.393 	-0.229
 6.577 	-0.139 	-0.062
 6.565 	-0.530 	0.289
 6.616 	-0.800 	0.691
 6.453 	-0.803 	0.411
 7.262 	-0.517 	0.431
 7.374 	0.435 	0.289
 7.442 	0.237 	-0.167
 7.414 	0.120 	-0.390
 7.461 	0.252 	-0.139
 7.065 	0.134 	0.052
 6.874 	0.212 	0.176
 6.934 	0.730 	0.087
 6.984 	1.013 	-0.055
 6.850 	1.064 	-0.176
 6.829 	0.944 	-0.043
 7.033 	0.300 	-0.146
 7.013 	-0.037 	-0.275
 7.107 	-0.452 	0.107
 7.150 	-0.538 	-0.063
 7.164 	-0.598 	-0.178
 7.358 	-0.804 	-0.178
 7.365 	0.414 	-0.385
 7.369 	0.225 	-0.430
 7.340 	-0.001 	-0.230
 7.220 	0.213 	-0.177
 7.054 	0.429 	0.004
 6.774 	0.500 	0.103
 6.699 	0.795 	-0.027
 6.684 	0.963 	-0.247
 6.755 	1.078 	-0.200
 7.002 	0.765 	-0.303
 7.270 	0.429 	-0.373
 7.241 	0.192 	-0.055
 7.356 	-0.240 	-0.143
 7.304 	-0.038 	-0.428
 6.986 	-0.348 	-0.281
 6.956 	-0.802 	-0.314
 6.862 	0.312 	-0.288
 6.732 	0.292 	-0.241
 6.443 	0.091 	0.275
 6.299 	0.043 	0.459
 6.664 	0.340 	0.111
 6.779 	0.542 	0.085
 6.611 	0.699 	0.016
 6.494 	0.954 	-0.018
 6.704 	0.689 	-0.083
 7.048 	0.207 	-0.169
 7.346 	-0.028 	-0.065
 7.515 	-0.019 	0.018
 7.285 	-0.348 	0.112
 7.264 	-0.158 	-0.184
 7.052 	-0.438 	0.011
 6.370 	-0.455 	0.074
 6.153 	0.452 	-0.092
 6.236 	0.226 	0.084
 6.679 	-0.118 	0.467
 7.094 	-0.230 	0.546
 6.849 	-0.102 	0.442
 6.775 	0.038 	0.204
 6.848 	0.258 	-0.010
 6.911 	0.307 	-0.072
 7.100 	0.140 	-0.071
 7.485 	-0.292 	-0.253
 7.460 	-0.557 	-0.254
 7.432 	-0.532 	-0.369
 7.637 	-0.556 	-0.018
 7.296 	0.001 	-0.214
 7.311 	-0.582 	0.469
 6.856 	-0.581 	0.460
 6.307 	0.178 	0.851
 6.274 	-0.260 	0.934
 6.487 	-0.692 	0.780
 6.735 	-0.739 	0.320
 6.918 	-0.439 	0.160
 6.961 	-0.113 	0.052
 7.111 	-0.326 	0.017
 7.482 	-0.467 	-0.172
 7.645 	-0.613 	-0.078
 7.417 	-0.528 	-0.152
 7.074 	-0.592 	-0.259
 7.089 	-0.618 	-0.237
 7.165 	-0.591 	-0.157
 7.503 	-0.165 	-0.326
 7.711 	-0.260 	0.050
 7.618 	-0.418 	0.350
 6.769 	-0.263 	0.057
 6.926 	-0.434 	0.007
 6.955 	-0.513 	0.269
 7.186 	-0.667 	0.297
 7.335 	-0.611 	0.191
 7.480 	-0.609 	-0.074
 7.382 	-0.575 	-0.046
 6.876 	-0.946 	0.102
 6.622 	-0.444 	0.305
 6.456 	-0.462 	0.260
 6.721 	-0.548 	0.010
 7.003 	-0.383 	-0.137
 7.144 	-0.332 	-0.129
 7.156 	-0.373 	0.104
 7.364 	-0.321 	0.265
 7.164 	-0.547 	0.227
 6.995 	-0.487 	-0.256
 6.859 	-0.129 	-0.384
 6.886 	-0.216 	-0.339
 7.109 	-0.373 	-0.132
 7.239 	-0.521 	-0.159
 7.209 	-0.573 	-0.050
 7.116 	-0.547 	0.013
 6.612 	-0.257 	0.208
 5.897 	-0.031 	0.700
 6.568 	-0.356 	0.459
 6.903 	-0.874 	0.079
 6.823 	-0.850 	0.008
 6.973 	-0.447 	-0.037
 7.226 	-0.214 	0.133
 6.948 	-0.337 	0.363
 6.297 	-0.771 	0.433
 6.847 	-0.807 	-0.334
 6.796 	-0.665 	-0.231
 6.898 	-0.390 	-0.206
 6.999 	-0.182 	-0.022
 7.015 	-0.128 	0.436
 6.737 	-0.250 	0.243
 6.401 	-0.372 	0.375
 6.437 	-0.136 	0.315
 6.930 	-0.403 	0.091
 6.712 	-0.792 	0.007
 6.404 	-0.858 	-0.136
 6.357 	-0.787 	0.049
 6.605 	-0.686 	0.222
 6.898 	-0.330 	0.234
 7.285 	0.209 	0.133
 7.039 	0.170 	0.447
 6.593 	-0.845 	0.112
 6.519 	-0.726 	0.006
 6.456 	-0.562 	-0.021
 6.608 	-0.125 	0.388
 6.807 	0.029 	0.383
 6.666 	0.017 	0.033
 6.572 	-0.168 	0.347
 6.898 	-0.404 	0.176
 6.734 	-0.556 	-0.147
 6.517 	-0.699 	0.040
 6.289 	-1.007 	0.151
 6.445 	-1.059 	-0.015
 6.660 	-1.167 	-0.232
 6.939 	-0.759 	-0.157
 7.173 	-0.430 	0.129
 7.688 	-0.260 	0.084
 6.327 	-1.050 	0.228
 6.566 	-0.795 	-0.164
 6.215 	-0.603 	-0.319
 5.929 	-0.415 	-0.329
 6.129 	-0.138 	-0.218
 6.221 	-0.148 	-0.088
 6.576 	-0.450 	-0.015
 6.554 	-0.702 	-0.066
 6.389 	-0.367 	0.469
 6.399 	-0.201 	0.858
 6.500 	-1.048 	0.584
 6.779 	-1.318 	-0.058
 7.074 	-1.116 	-0.509
 6.983 	-1.174 	-0.623
 7.228 	-0.817 	-0.473
 7.780 	-0.407 	-0.710
 6.969 	-0.634 	-0.431
 7.327 	-1.086 	0.204
 7.594 	-0.491 	-0.574
 7.200 	-0.481 	-0.431
 7.131 	-0.131 	-0.592
 6.581 	-0.435 	-0.165
 6.020 	-0.909 	0.064
 5.664 	-0.834 	0.284
 5.966 	-0.630 	0.661
 6.236 	-0.590 	0.676
 6.950 	-0.965 	0.300
 7.270 	-1.400 	0.065
 7.412 	-1.401 	-0.242
 7.891 	-0.979 	-0.581
 7.464 	-1.160 	-0.692
 7.372 	-0.888 	-0.724
 7.055 	0.738 	0.298
 7.188 	0.836 	0.490
 6.998 	0.451 	-0.063
 6.405 	0.123 	0.016
 6.353 	-0.129 	0.276
 6.071 	0.548 	0.863
 6.401 	1.162 	1.136
 6.500 	1.116 	0.590
 6.410 	1.215 	0.362
 6.268 	1.210 	0.400
 6.213 	0.967 	0.459
 6.433 	0.641 	0.368
 6.384 	0.338 	0.223
 6.368 	0.276 	0.091
 6.483 	0.347 	0.106
 6.638 	0.354 	0.156
 7.109 	0.513 	0.639
 7.142 	0.419 	0.286
 6.363 	0.891 	0.041
 5.438 	0.529 	0.278
 5.198 	0.008 	0.453
 5.593 	0.338 	0.955
 5.689 	0.791 	0.988
 5.351 	1.242 	1.049
 5.586 	1.281 	0.792
 5.927 	1.226 	0.579
 5.749 	1.126 	0.615
 5.601 	0.829 	0.653
 5.846 	0.565 	0.615
 5.996 	0.339 	0.314
 6.422 	0.020 	0.017
 6.709 	-0.037 	0.046
 6.543 	0.366 	0.147
 6.679 	0.251 	0.249
 6.946 	0.780 	0.037
 5.802 	1.085 	0.277
 5.376 	0.592 	0.210
 5.398 	0.223 	0.408
 5.549 	0.432 	0.520
 5.924 	0.962 	0.457
 5.825 	1.052 	0.703
 5.547 	1.423 	0.706
 5.526 	1.229 	0.560
 5.478 	0.965 	0.354
 5.618 	0.740 	0.242
 6.385 	-0.143 	0.473
 6.715 	-0.402 	0.753
 6.756 	-0.578 	0.426
 6.775 	0.256 	0.336
 6.262 	0.272 	0.410
 6.272 	0.370 	0.382
 6.676 	0.812 	0.211
 6.882 	0.577 	-0.042
 6.911 	0.503 	0.081
 6.361 	0.598 	0.356
 6.131 	0.853 	0.297
 5.974 	1.172 	0.352
 5.909 	1.564 	0.241
 5.740 	1.004 	-0.107
 5.730 	1.110 	-0.137
 6.335 	0.430 	0.294
 6.621 	-0.290 	0.203
 6.629 	-0.471 	0.613
 6.779 	-0.562 	0.605
 6.617 	0.702 	0.518
 6.794 	0.228 	0.244
 6.948 	0.080 	0.200
 6.881 	0.235 	0.262
 6.792 	0.295 	0.189
 6.958 	0.428 	0.068
 7.206 	0.874 	0.096
 6.847 	0.819 	0.122
 6.649 	1.220 	0.004
 6.510 	1.188 	-0.246
 6.342 	0.914 	-0.238