# vtk DataFile Version 3.0
HighT1
ASCII
DATASET STRUCTURED_POINTS
DIMENSIONS 16 16 19
ORIGIN 929.001000000000 929.001000000000 5.001000000000
SPACING 10.000000000000 10.000000000000 10.000000000000
POINT_DATA 4864
 FIELD attributes 1
U 3 4864 float
4.285 	0.715 	0.060
 4.439 	0.935 	-0.283
 5.147 	1.553 	-0.127
 4.752 	0.774 	-0.571
 3.666 	0.925 	0.077
 2.746 	0.227 	0.831
 2.981 	-0.144 	0.287
 2.914 	-0.355 	0.411
 3.813 	-0.768 	0.164
 4.758 	-1.633 	0.054
 4.636 	-1.079 	-0.009
 4.967 	-1.498 	-0.531
 4.970 	-0.280 	0.178
 4.248 	-0.103 	0.486
 3.318 	-0.574 	0.311
 3.411 	-0.231 	-0.173
 3.992 	1.493 	-0.343
 4.640 	0.860 	0.047
 4.664 	2.033 	0.124
 4.628 	1.472 	0.115
 3.974 	0.743 	-0.378
 4.882 	1.056 	-0.388
 4.732 	-0.576 	0.188
 4.746 	-0.776 	-0.101
 4.714 	-0.896 	0.066
 4.869 	-1.193 	0.186
 5.090 	-1.291 	-0.030
 5.351 	-1.170 	-0.767
 4.868 	-0.628 	0.216
 5.108 	0.099 	0.057
 4.442 	-0.121 	-0.015
 3.350 	0.506 	0.054
 3.055 	0.956 	0.123
 2.978 	0.095 	-0.007
 3.088 	0.638 	0.075
 3.796 	1.063 	0.395
 3.831 	-0.261 	0.006
 4.516 	-0.944 	-0.102
 5.112 	-1.234 	-0.431
 4.733 	-0.687 	-0.079
 4.694 	-0.651 	-0.268
 5.179 	-1.245 	-0.268
 5.508 	-1.179 	-0.567
 5.906 	-0.096 	-0.107
 4.714 	0.126 	0.037
 3.771 	-0.145 	0.234
 2.112 	-0.071 	0.505
 2.646 	0.561 	-0.009
 3.084 	-0.596 	0.458
 3.379 	-0.409 	0.379
 3.635 	-0.994 	0.672
 3.573 	-1.666 	0.540
 3.043 	-1.597 	0.100
 3.304 	-0.732 	-0.085
 3.810 	-0.379 	-0.006
 4.031 	-0.699 	-0.004
 4.416 	-0.751 	-0.774
 4.572 	-0.255 	-0.193
 4.651 	0.095 	-0.171
 5.063 	0.024 	-0.066
 4.332 	0.390 	-0.058
 4.559 	0.888 	-0.266
 3.242 	0.074 	0.218
 3.291 	0.408 	-0.287
 3.956 	-0.640 	0.054
 4.735 	-0.390 	-0.674
 5.122 	-0.379 	-0.752
 4.441 	0.170 	-0.227
 3.554 	-0.731 	0.099
 3.586 	-0.848 	0.048
 3.822 	-0.560 	0.141
 4.558 	-0.519 	-0.448
 4.126 	0.171 	-0.072
 4.013 	0.361 	-0.349
 4.053 	0.220 	0.257
 4.860 	0.760 	-0.004
 5.220 	1.384 	-0.125
 4.987 	0.894 	-0.002
 4.418 	0.232 	-0.117
 4.516 	0.245 	-0.412
 3.300 	0.464 	0.148
 2.601 	-0.239 	0.164
 2.987 	-0.350 	0.289
 3.664 	-0.510 	0.322
 4.603 	-1.126 	-0.077
 3.904 	-1.025 	0.099
 3.621 	-0.751 	0.288
 3.221 	-0.291 	0.046
 3.285 	0.706 	0.173
 3.434 	0.701 	-0.073
 3.531 	0.483 	-0.039
 3.186 	0.008 	0.219
 3.042 	0.424 	0.346
 3.357 	0.485 	0.601
 3.538 	0.173 	0.363
 4.027 	0.357 	-0.078
 4.089 	0.015 	0.311
 4.211 	-0.733 	0.100
 4.123 	-1.107 	-0.219
 4.938 	-0.533 	-0.741
 4.538 	-0.579 	-0.055
 3.802 	0.148 	-0.561
 2.403 	0.648 	0.026
 2.283 	-0.115 	0.221
 2.349 	-0.292 	0.356
 2.608 	-0.199 	0.509
 3.271 	-0.151 	0.285
 3.581 	-0.607 	0.100
 3.850 	-0.599 	-0.057
 4.156 	-0.744 	0.056
 4.254 	-0.639 	0.048
 3.971 	-0.189 	0.294
 3.348 	-0.247 	0.157
 3.216 	-1.088 	0.091
 3.595 	-0.815 	-0.392
 3.914 	-0.304 	-0.104
 4.131 	0.770 	0.147
 3.926 	0.762 	-0.041
 4.457 	0.684 	-0.555
 4.288 	0.529 	-0.294
 4.198 	0.314 	-0.101
 4.286 	0.188 	-0.344
 4.214 	-0.147 	-0.183
 4.342 	0.187 	-0.393
 4.294 	-0.140 	-0.360
 4.216 	-0.262 	0.019
 4.525 	-0.555 	-0.123
 4.459 	-0.829 	0.185
 4.891 	-0.708 	0.034
 5.089 	-0.438 	-0.298
 4.599 	-0.174 	-0.186
 3.492 	0.141 	0.368
 3.203 	0.397 	0.067
 3.538 	0.396 	0.047
 3.811 	0.403 	0.216
 3.905 	0.320 	0.094
 3.869 	0.166 	-0.157
 4.289 	-0.091 	-0.322
 4.561 	0.187 	0.289
 4.420 	0.485 	0.193
 4.445 	0.602 	-0.006
 4.472 	0.047 	-0.031
 4.516 	-0.744 	-0.010
 5.025 	-0.128 	-0.259
 4.432 	0.143 	-0.454
 4.420 	-0.208 	0.015
 4.529 	0.137 	0.280
 4.167 	0.727 	-0.030
 3.165 	0.418 	0.063
 2.873 	0.322 	0.045
 3.548 	0.105 	-0.066
 3.909 	0.357 	-0.236
 4.461 	0.046 	-0.240
 4.107 	-0.015 	-0.148
 4.092 	0.420 	-0.066
 3.920 	0.401 	0.346
 3.816 	0.106 	-0.245
 3.953 	0.003 	0.131
 4.166 	-0.438 	-0.025
 4.374 	-0.358 	0.039
 3.989 	0.302 	0.346
 4.037 	-1.027 	0.276
 3.701 	-0.105 	-0.281
 4.030 	0.732 	-0.175
 4.094 	0.787 	-0.049
 4.273 	0.573 	-0.318
 4.566 	0.708 	-0.125
 3.581 	0.408 	-0.054
 3.748 	0.379 	-0.244
 4.315 	0.314 	-0.501
 4.733 	0.013 	-0.413
 5.040 	0.013 	0.195
 5.344 	-0.242 	-0.089
 4.637 	-0.293 	-0.091
 5.144 	0.352 	-0.408
 3.996 	-0.242 	0.279
 4.245 	-0.895 	-0.051
 3.683 	-0.584 	0.262
 3.622 	-0.834 	0.397
 3.996 	0.428 	-0.135
 3.952 	0.941 	0.309
 4.243 	0.819 	0.022
 4.329 	0.743 	-0.177
 4.640 	1.023 	-0.033
 4.578 	0.596 	-0.452
 4.572 	0.593 	-0.141
 5.534 	0.792 	-0.381
 4.613 	-0.111 	0.433
 4.748 	0.406 	-0.421
 4.724 	1.041 	0.147
 4.330 	0.520 	0.195
 4.362 	-0.041 	0.546
 4.645 	-0.895 	0.135
 4.467 	-0.963 	0.189
 4.040 	-0.440 	-0.191
 3.407 	0.400 	0.154
 3.668 	-0.179 	0.176
 4.185 	-0.326 	-0.022
 4.165 	0.309 	0.013
 4.622 	1.027 	0.096
 4.308 	0.762 	-0.092
 4.525 	0.901 	0.078
 4.269 	1.096 	-0.185
 4.116 	-0.051 	-0.132
 3.756 	-0.410 	0.186
 4.175 	-0.458 	0.439
 4.490 	0.729 	0.464
 4.260 	0.375 	-0.061
 4.731 	-0.294 	-0.243
 4.457 	-0.534 	-0.069
 4.207 	-0.231 	0.015
 4.742 	0.222 	-0.169
 4.603 	0.182 	-0.242
 4.466 	-0.275 	-0.072
 4.205 	-0.106 	0.086
 4.267 	0.602 	-0.068
 4.058 	0.877 	-0.159
 4.137 	0.369 	-0.120
 4.293 	0.208 	-0.143
 5.008 	-0.193 	0.005
 5.285 	0.267 	-0.613
 5.256 	-0.328 	0.392
 3.994 	0.414 	0.092
 3.334 	0.405 	0.207
 3.853 	-0.529 	-0.359
 4.255 	0.088 	-0.028
 4.360 	0.321 	-0.318
 4.230 	0.104 	-0.156
 4.483 	0.229 	0.068
 4.105 	-0.035 	0.323
 3.860 	0.271 	0.022
 3.375 	0.580 	-0.112
 3.361 	0.210 	0.292
 3.776 	-0.091 	0.278
 3.873 	-0.350 	0.048
 4.584 	-0.295 	-0.309
 4.708 	-0.423 	-0.483
 5.313 	0.460 	0.087
 4.950 	0.966 	-0.055
 4.706 	0.605 	-0.276
 2.909 	0.236 	0.120
 2.267 	-0.388 	0.353
 2.415 	0.391 	0.199
 3.175 	0.464 	0.345
 2.955 	0.277 	0.112
 2.604 	0.077 	0.266
 1.785 	0.212 	0.119
 1.892 	0.102 	0.377
 2.358 	-0.786 	0.305
 3.015 	-1.094 	-0.143
 3.967 	-1.097 	0.082
 4.096 	-0.332 	0.018
 4.309 	0.180 	0.170
 4.535 	0.697 	0.197
 4.267 	0.626 	-0.082
 4.409 	0.498 	0.140
 4.724 	-0.428 	-0.388
 4.502 	0.077 	-0.686
 5.375 	-0.026 	-1.050
 5.341 	0.822 	-0.101
 5.881 	1.692 	-0.608
 4.449 	1.350 	0.263
 4.146 	0.328 	0.633
 4.529 	-0.161 	0.321
 4.421 	0.017 	-0.080
 4.625 	-0.747 	0.853
 5.044 	-0.789 	-0.680
 5.286 	-1.403 	0.334
 4.407 	-0.073 	0.499
 4.320 	0.037 	0.570
 4.636 	0.721 	-0.351
 5.805 	-0.036 	-1.046
 3.821 	0.476 	-0.434
 3.679 	0.447 	-0.214
 3.786 	-0.604 	0.289
 4.191 	-0.097 	0.364
 4.395 	0.756 	0.328
 5.388 	1.189 	0.959
 5.505 	0.490 	0.601
 5.471 	-0.369 	0.495
 4.579 	-0.028 	0.479
 5.351 	-1.000 	-0.044
 5.400 	-0.746 	-0.190
 5.449 	-1.332 	-0.253
 5.624 	-1.248 	0.253
 4.967 	-0.107 	0.595
 4.791 	0.680 	0.334
 4.430 	-0.002 	-0.111
 3.621 	-0.140 	1.357
 4.416 	-0.648 	1.176
 4.742 	-0.674 	1.068
 5.084 	-0.886 	1.001
 4.562 	0.117 	1.245
 5.582 	-0.408 	0.633
 6.256 	-0.669 	0.687
 5.121 	0.569 	0.064
 4.724 	-0.593 	-0.248
 5.501 	-1.455 	-0.364
 6.151 	-0.604 	-0.548
 5.499 	-1.085 	-0.471
 4.760 	0.117 	0.720
 4.073 	-0.269 	1.168
 4.198 	0.723 	0.775
 4.407 	0.140 	-0.538
 5.702 	0.145 	-0.284
 5.432 	-0.387 	-0.830
 5.660 	-0.547 	0.533
 5.895 	-0.291 	0.246
 6.431 	-0.280 	-0.192
 5.925 	-1.221 	-0.220
 4.919 	-0.849 	-0.087
 5.066 	0.532 	-0.768
 5.924 	-0.562 	-0.855
 5.787 	-1.068 	-0.321
 6.059 	-0.525 	-1.040
 6.365 	-0.750 	-0.553
 6.678 	0.251 	-0.858
 7.180 	0.821 	0.129
 5.822 	0.372 	0.678
 5.212 	0.534 	-0.624
 5.663 	0.145 	0.135
 5.642 	0.163 	-0.618
 5.499 	-0.039 	-1.628
 5.964 	-0.167 	-0.875
 5.710 	-0.175 	-0.024
 5.086 	-0.564 	0.155
 5.505 	-0.747 	-0.357
 6.084 	-0.177 	-0.771
 5.984 	-0.557 	-0.118
 5.461 	-1.529 	-0.748
 5.024 	-1.250 	-0.451
 5.425 	-1.165 	-1.549
 5.572 	0.320 	0.191
 4.876 	0.440 	1.029
 5.459 	0.609 	0.492
 5.537 	-0.061 	-0.102
 4.814 	-0.173 	0.207
 4.885 	-0.388 	0.257
 5.042 	0.476 	0.473
 5.334 	0.738 	-0.014
 5.808 	0.263 	-0.015
 6.195 	0.366 	-0.553
 5.550 	-0.888 	0.702
 5.663 	-0.916 	-0.100
 5.952 	-0.282 	-0.195
 6.013 	-0.396 	-0.525
 5.879 	-0.079 	-1.131
 4.776 	0.023 	0.729
 4.447 	0.546 	0.902
 4.604 	-0.301 	0.574
 5.533 	-0.324 	-0.389
 5.863 	-0.445 	-0.742
 5.085 	0.352 	0.073
 5.258 	0.125 	0.693
 5.433 	0.328 	-0.008
 5.222 	-0.278 	-0.663
 5.549 	-0.477 	-0.479
 5.691 	-0.144 	-0.589
 6.012 	0.554 	0.126
 5.031 	-0.190 	0.438
 5.915 	-0.134 	-0.586
 5.243 	-0.144 	-0.157
 5.306 	0.323 	-1.200
 5.761 	1.134 	-0.531
 5.503 	0.414 	-0.349
 5.511 	0.157 	-0.297
 5.430 	-0.002 	0.103
 5.345 	-0.021 	-0.070
 5.123 	0.125 	-0.484
 5.732 	0.484 	-0.234
 5.382 	-0.205 	-0.786
 5.048 	-0.764 	-0.550
 5.337 	-0.514 	0.177
 5.547 	-0.553 	-0.608
 5.710 	0.108 	0.529
 5.672 	0.071 	-0.320
 5.458 	0.233 	0.159
 6.008 	0.249 	-0.332
 5.590 	0.902 	-0.313
 5.230 	0.853 	-0.384
 5.311 	0.696 	-0.273
 5.021 	-0.139 	-0.027
 4.281 	0.040 	0.076
 4.502 	0.276 	0.023
 5.014 	0.202 	-0.297
 5.269 	0.618 	-0.129
 5.421 	-0.063 	-0.297
 5.420 	-0.247 	-0.282
 5.427 	0.040 	0.055
 5.462 	0.068 	-0.149
 5.126 	-0.275 	0.280
 5.318 	0.237 	-0.379
 4.827 	0.410 	0.012
 4.357 	0.172 	0.217
 4.541 	0.200 	0.244
 5.130 	0.165 	-0.161
 5.506 	-0.088 	-0.073
 5.423 	0.253 	-0.006
 5.232 	0.140 	-0.070
 5.270 	-0.085 	-0.429
 4.890 	0.486 	-0.175
 5.381 	0.441 	-0.116
 5.310 	0.245 	-0.231
 5.000 	0.303 	0.103
 4.819 	0.252 	-0.095
 5.423 	0.235 	-0.002
 4.994 	0.238 	0.028
 4.692 	0.660 	-0.068
 4.768 	-0.175 	-0.128
 4.705 	-0.253 	-0.172
 4.790 	0.006 	0.273
 4.355 	-0.124 	0.671
 4.560 	-0.041 	0.365
 4.907 	0.215 	0.119
 5.365 	0.145 	-0.113
 5.501 	0.012 	-0.363
 3.646 	0.753 	0.396
 3.846 	0.223 	0.580
 4.094 	0.818 	0.228
 3.901 	0.293 	0.405
 4.164 	-0.320 	0.117
 5.012 	-0.445 	0.055
 5.189 	0.797 	-0.082
 4.839 	0.405 	-0.484
 4.874 	-0.195 	-0.922
 4.754 	0.105 	-0.304
 4.888 	-0.499 	-0.207
 5.241 	0.247 	0.102
 5.245 	-0.146 	0.082
 5.572 	0.105 	-0.075
 5.149 	0.115 	-0.399
 5.474 	-0.506 	0.181
 4.919 	0.742 	-0.570
 4.191 	-0.125 	0.159
 4.214 	-0.225 	0.365
 4.555 	-0.148 	0.986
 4.662 	-0.788 	0.094
 4.519 	-0.751 	-0.094
 4.551 	-0.232 	0.250
 4.370 	0.065 	0.307
 4.374 	-0.771 	0.052
 4.749 	-0.273 	-0.229
 4.644 	-0.053 	-0.244
 4.680 	-0.706 	0.614
 5.343 	-0.720 	-0.301
 5.290 	0.092 	-0.272
 5.570 	-0.067 	-0.110
 5.632 	0.443 	0.018
 4.342 	0.813 	0.125
 4.263 	0.192 	-0.366
 4.344 	-0.158 	0.039
 4.530 	-0.111 	0.306
 5.231 	-0.530 	-0.154
 4.787 	-0.279 	0.025
 4.242 	0.117 	0.183
 3.941 	-0.306 	0.609
 4.791 	-0.621 	-0.314
 4.828 	-0.561 	-0.224
 4.460 	0.232 	0.279
 4.711 	-1.028 	-0.208
 4.910 	-0.567 	-0.017
 5.168 	-0.541 	0.606
 5.518 	-0.748 	-0.372
 5.547 	0.242 	-0.459
 5.286 	0.730 	-0.550
 4.989 	0.494 	-0.434
 4.925 	-0.110 	-0.014
 4.535 	-0.161 	0.084
 4.518 	-0.576 	0.265
 4.737 	-0.122 	-0.054
 4.580 	0.035 	0.484
 4.850 	-0.113 	-0.126
 4.581 	-0.291 	-0.047
 4.852 	0.204 	0.331
 4.820 	-0.322 	0.086
 4.790 	-1.017 	0.470
 4.831 	-1.228 	0.068
 4.826 	-0.380 	0.450
 5.737 	-0.286 	0.056
 6.329 	0.441 	-0.141
 4.672 	0.782 	0.032
 5.082 	0.588 	0.023
 5.263 	-0.193 	-0.065
 5.354 	-0.267 	0.171
 5.065 	-0.176 	0.016
 4.478 	-0.169 	0.446
 4.595 	0.213 	0.250
 4.361 	0.253 	-0.095
 4.331 	0.019 	0.599
 3.886 	-0.443 	0.319
 4.731 	-1.231 	-0.078
 5.196 	-1.534 	-0.171
 5.030 	-1.437 	-0.203
 4.949 	-0.958 	-0.328
 4.854 	-0.346 	-0.427
 5.105 	0.287 	0.417
 5.071 	0.082 	-0.026
 5.233 	-0.015 	-0.013
 5.190 	-0.199 	-0.186
 4.988 	-0.064 	0.141
 4.902 	0.373 	0.085
 4.040 	0.455 	0.221
 3.239 	-0.177 	0.421
 3.558 	0.514 	0.300
 4.009 	-0.148 	0.473
 4.665 	-0.750 	-0.295
 5.142 	-1.816 	-0.852
 5.210 	-1.389 	-0.288
 4.550 	-1.150 	-0.126
 4.626 	-0.654 	-0.180
 4.353 	-0.564 	-0.081
 4.823 	0.351 	0.260
 7.478 	-0.177 	-0.654
 7.735 	0.396 	-0.747
 6.264 	0.106 	-0.240
 6.437 	-0.676 	-0.440
 6.108 	0.635 	-0.106
 5.805 	1.671 	0.313
 5.196 	1.477 	0.517
 4.878 	0.849 	0.637
 5.316 	0.999 	0.021
 4.499 	0.005 	0.653
 5.395 	0.327 	-1.359
 4.559 	-0.993 	1.308
 5.015 	-1.133 	1.174
 5.701 	-1.057 	0.719
 6.354 	-0.679 	-0.749
 6.503 	-0.592 	-0.708
 5.397 	-0.294 	0.319
 6.248 	0.857 	0.090
 7.111 	1.596 	-0.404
 4.489 	0.168 	1.021
 4.551 	0.953 	0.464
 4.494 	1.608 	1.227
 5.233 	1.461 	0.869
 4.963 	0.773 	0.641
 5.218 	0.678 	0.353
 4.837 	0.549 	-0.457
 5.151 	0.859 	-1.151
 5.681 	-0.440 	-0.416
 5.968 	-0.840 	-0.513
 6.458 	-0.961 	1.111
 6.816 	-0.687 	-0.477
 6.700 	-0.644 	-1.395
 4.640 	0.353 	0.737
 4.033 	0.951 	1.299
 4.444 	1.915 	0.675
 4.620 	1.032 	0.691
 4.918 	1.028 	1.307
 5.694 	1.078 	1.315
 5.950 	0.774 	1.187
 5.261 	0.862 	0.602
 4.755 	0.814 	-0.214
 5.026 	0.787 	-0.677
 5.735 	0.494 	-0.730
 6.450 	-0.155 	-0.576
 6.607 	-0.559 	-0.306
 6.520 	-0.703 	1.132
 6.742 	-0.529 	0.588
 6.508 	-0.363 	-0.993
 4.499 	0.348 	0.389
 4.447 	0.837 	-0.490
 4.753 	1.135 	-1.036
 5.143 	1.492 	-0.801
 5.068 	0.861 	-0.182
 5.031 	0.945 	0.153
 4.970 	0.979 	-0.162
 5.291 	0.959 	-0.389
 5.443 	0.584 	-0.634
 5.783 	0.698 	-0.772
 6.578 	0.334 	-0.449
 6.344 	0.211 	-0.448
 6.969 	0.078 	-1.213
 6.593 	-0.629 	-0.348
 6.534 	0.277 	0.983
 6.515 	-0.209 	-0.524
 5.488 	0.210 	0.076
 5.170 	0.282 	0.365
 5.906 	0.489 	-0.881
 5.408 	1.444 	-0.817
 5.206 	1.159 	-0.250
 5.326 	1.160 	-0.676
 5.680 	0.748 	-1.032
 6.151 	0.576 	-0.817
 6.207 	0.526 	-0.406
 6.344 	0.191 	-0.348
 6.249 	0.012 	-0.395
 5.748 	-0.569 	-0.843
 4.793 	-0.162 	0.443
 5.060 	0.335 	1.166
 5.552 	0.828 	1.175
 6.771 	-0.186 	-0.236
 6.224 	-0.162 	-0.312
 6.901 	0.206 	-0.828
 6.159 	0.335 	0.160
 5.954 	1.281 	-0.725
 5.813 	1.044 	-0.137
 5.899 	1.108 	0.458
 5.588 	0.557 	0.301
 6.291 	0.070 	0.382
 6.652 	-0.514 	-0.149
 6.438 	0.418 	-0.639
 6.064 	0.277 	-0.366
 5.808 	0.047 	-0.485
 5.423 	0.224 	1.016
 5.509 	0.505 	0.184
 5.900 	-0.204 	-0.038
 6.130 	-0.392 	-0.226
 5.818 	0.343 	0.221
 5.608 	0.738 	0.249
 6.249 	1.263 	-0.377
 6.173 	1.309 	-0.389
 6.256 	0.777 	-0.276
 6.625 	0.431 	0.107
 6.275 	-0.408 	0.348
 6.145 	-0.510 	0.289
 6.273 	-0.488 	-0.455
 7.007 	-0.260 	-0.783
 6.763 	0.359 	-0.763
 6.013 	0.571 	-0.647
 6.742 	0.628 	-0.688
 5.896 	0.103 	0.017
 5.231 	-0.295 	0.327
 5.021 	-0.713 	-0.194
 5.097 	0.109 	-0.048
 5.648 	0.164 	0.092
 5.504 	0.503 	-0.050
 5.959 	0.857 	-0.192
 5.810 	0.158 	0.032
 6.016 	0.292 	-0.149
 5.872 	-0.434 	0.067
 6.222 	-0.035 	-0.109
 5.175 	-0.652 	-0.256
 5.295 	-0.176 	-0.267
 6.025 	0.209 	-0.539
 6.226 	0.059 	-1.242
 6.071 	0.916 	-0.098
 5.685 	0.283 	0.239
 6.099 	-0.041 	-0.123
 6.000 	-0.126 	-0.297
 5.492 	-0.488 	-0.655
 5.913 	0.026 	-0.339
 5.698 	0.007 	-0.230
 5.561 	0.041 	-0.419
 5.927 	0.216 	-0.651
 5.876 	0.271 	-0.461
 6.111 	-0.152 	-0.105
 5.430 	0.296 	0.325
 5.181 	0.613 	-0.047
 4.563 	-0.060 	0.233
 4.842 	-0.109 	0.371
 5.181 	0.522 	0.685
 5.700 	0.823 	0.293
 6.203 	0.239 	-0.009
 6.607 	0.055 	0.120
 6.566 	-0.054 	-0.273
 5.099 	-0.097 	-0.167
 4.909 	-0.127 	-0.027
 5.462 	0.141 	-0.416
 5.178 	0.033 	-0.064
 4.777 	-0.046 	-0.019
 5.036 	0.349 	0.416
 5.005 	-1.003 	0.535
 5.256 	0.179 	0.317
 5.268 	0.808 	0.164
 5.042 	0.608 	-0.074
 4.949 	0.043 	0.177
 5.090 	0.057 	0.305
 5.493 	0.024 	-0.199
 5.904 	-0.165 	-0.398
 6.233 	0.086 	0.080
 6.242 	0.267 	-0.199
 4.568 	0.357 	0.417
 4.053 	0.533 	0.707
 3.763 	-0.094 	0.632
 4.010 	-0.457 	0.608
 4.753 	0.154 	0.270
 4.584 	-0.736 	0.507
 4.685 	-1.055 	0.134
 4.791 	-0.357 	-0.040
 5.217 	-0.791 	-0.026
 5.825 	0.559 	-0.022
 5.137 	-0.055 	-0.019
 5.355 	-0.378 	0.504
 5.824 	-0.192 	-0.173
 5.477 	-0.262 	-0.122
 5.524 	-0.119 	-0.194
 5.783 	0.573 	-0.326
 4.659 	0.476 	-0.333
 4.285 	0.624 	-0.183
 4.306 	-0.145 	0.539
 4.236 	-0.712 	0.030
 4.746 	-0.832 	-0.317
 4.764 	-0.569 	-0.585
 4.752 	-0.732 	0.421
 5.284 	-0.739 	-0.014
 5.594 	-0.843 	-0.406
 5.340 	-0.567 	-0.544
 5.710 	-0.288 	-0.647
 5.652 	-0.510 	-0.176
 5.597 	-0.231 	0.331
 5.911 	-0.417 	0.439
 5.870 	-0.599 	0.315
 5.953 	0.012 	0.023
 4.769 	1.162 	-0.322
 4.594 	0.934 	-0.246
 4.433 	0.318 	-0.429
 4.917 	-0.366 	-0.130
 4.701 	-0.614 	0.084
 5.102 	-0.461 	-0.136
 5.222 	-0.238 	-0.108
 5.671 	-0.354 	0.090
 5.488 	-0.266 	-0.785
 5.218 	-0.444 	-0.316
 5.000 	-0.009 	0.076
 5.100 	-0.400 	0.313
 4.959 	-1.098 	0.295
 5.344 	-1.325 	0.118
 5.593 	-0.842 	0.003
 5.758 	-0.188 	-0.081
 4.823 	0.856 	-0.466
 4.662 	0.910 	0.012
 4.986 	0.409 	0.015
 5.211 	-0.361 	0.309
 5.229 	-0.471 	0.259
 5.186 	-0.275 	0.191
 5.462 	-0.155 	0.129
 5.008 	-0.179 	0.145
 4.615 	-0.206 	-0.074
 4.644 	-0.253 	0.261
 4.647 	-0.256 	0.374
 5.191 	-0.653 	0.506
 5.483 	-1.208 	0.161
 5.390 	-1.429 	0.457
 5.202 	-1.267 	-0.187
 5.469 	-0.412 	-0.266
 4.878 	0.690 	-0.579
 5.266 	0.670 	0.156
 5.399 	0.686 	0.039
 5.386 	-0.166 	-0.160
 5.541 	-0.424 	-0.006
 4.876 	-0.107 	0.201
 4.904 	0.087 	-0.103
 5.026 	0.227 	0.137
 4.662 	0.220 	0.279
 5.311 	0.003 	0.201
 5.136 	-0.220 	-0.018
 5.651 	-1.480 	-0.021
 6.147 	-1.362 	-0.338
 6.094 	-1.558 	0.078
 6.014 	-0.807 	-0.102
 5.361 	-0.717 	0.256
 4.453 	1.293 	-0.237
 5.146 	0.915 	-0.009
 5.441 	0.424 	-0.449
 5.033 	-0.146 	0.154
 4.882 	0.027 	0.341
 4.571 	0.021 	0.434
 4.435 	0.399 	0.708
 4.679 	0.206 	0.145
 4.988 	0.213 	0.387
 5.787 	-0.267 	-0.198
 6.294 	-0.723 	-0.467
 6.169 	-0.880 	-0.996
 6.638 	-2.003 	-0.492
 5.481 	-1.312 	0.448
 4.956 	-1.067 	0.528
 5.337 	-0.304 	0.166
 7.144 	0.422 	-0.538
 6.897 	0.196 	-0.385
 6.733 	0.197 	0.013
 6.982 	0.752 	-0.301
 6.571 	-0.089 	-0.015
 6.167 	0.552 	0.410
 6.535 	0.191 	0.086
 5.944 	0.562 	-0.752
 6.516 	1.447 	0.843
 5.816 	1.791 	0.361
 6.902 	1.572 	-1.300
 5.956 	0.652 	-0.560
 6.028 	-0.002 	-0.327
 6.464 	-0.961 	-0.087
 6.871 	-1.215 	-0.437
 6.163 	-0.470 	-0.318
 6.977 	-0.078 	-0.104
 6.015 	0.204 	-0.197
 5.848 	0.960 	-0.396
 6.197 	1.503 	0.460
 5.825 	0.654 	0.236
 5.753 	0.636 	0.555
 5.792 	0.977 	0.304
 5.545 	1.885 	0.778
 5.985 	1.756 	0.764
 6.239 	1.734 	-0.505
 6.950 	1.198 	-0.956
 6.248 	1.214 	-0.441
 6.263 	0.209 	-0.435
 6.921 	-0.671 	-0.230
 7.326 	-0.987 	-0.503
 6.593 	-0.551 	-0.464
 5.367 	0.935 	0.884
 4.947 	0.509 	1.287
 4.563 	-0.523 	0.163
 5.416 	1.421 	0.666
 5.172 	0.983 	0.303
 5.315 	1.363 	0.471
 5.818 	1.768 	0.765
 5.996 	1.874 	0.759
 6.093 	1.724 	0.034
 6.197 	1.068 	-0.728
 6.270 	1.093 	-0.844
 7.041 	0.618 	-0.437
 6.873 	0.003 	-0.617
 6.784 	-0.398 	0.178
 7.444 	-0.801 	-0.277
 7.492 	-0.591 	-0.666
 5.468 	0.922 	0.583
 6.197 	0.741 	-0.803
 6.158 	0.590 	-0.579
 6.352 	0.166 	0.118
 5.836 	1.371 	0.111
 5.664 	2.157 	-0.225
 6.186 	1.899 	-0.485
 6.250 	2.038 	-0.468
 6.299 	2.027 	-0.866
 6.369 	0.656 	-0.749
 6.847 	0.118 	-0.332
 6.821 	0.267 	-0.380
 6.910 	-0.256 	-0.835
 6.969 	-0.632 	-0.294
 7.283 	-0.485 	-0.025
 7.141 	-0.680 	-0.221
 6.200 	1.092 	0.222
 6.710 	0.514 	-0.760
 6.765 	0.289 	-0.525
 6.632 	0.936 	-0.333
 6.180 	0.858 	0.083
 5.792 	0.809 	0.162
 5.884 	1.418 	0.081
 6.070 	1.695 	-0.117
 6.785 	1.283 	-0.280
 7.280 	0.929 	-0.686
 7.012 	0.606 	0.055
 6.514 	0.271 	-0.415
 7.024 	-0.488 	-0.392
 7.275 	-0.589 	-0.288
 7.398 	-0.111 	0.167
 6.733 	-0.300 	-0.182
 6.459 	0.597 	-0.251
 7.087 	0.565 	-0.015
 6.690 	0.872 	-0.412
 6.467 	0.545 	-0.484
 6.337 	1.448 	0.161
 5.807 	0.887 	0.791
 5.752 	0.196 	0.782
 6.264 	0.354 	0.475
 7.024 	0.164 	0.165
 6.591 	1.147 	-0.079
 6.868 	0.358 	-0.244
 6.870 	0.305 	-0.586
 7.252 	0.403 	0.283
 7.076 	-0.092 	0.164
 6.323 	-0.177 	0.302
 6.290 	-0.213 	0.228
 6.391 	0.661 	-0.097
 6.282 	-0.112 	-0.184
 6.360 	0.741 	-0.096
 6.737 	1.159 	-0.017
 6.287 	1.742 	0.158
 6.344 	0.955 	0.248
 6.397 	0.059 	0.448
 6.923 	0.171 	-0.239
 7.003 	0.077 	-0.449
 7.271 	0.541 	-1.010
 6.878 	0.329 	-0.359
 6.760 	0.928 	-0.407
 7.269 	0.451 	-0.395
 6.918 	0.546 	0.635
 6.519 	0.361 	0.227
 6.528 	0.038 	-0.454
 5.435 	0.289 	0.057
 5.568 	0.028 	0.467
 5.692 	0.008 	0.156
 6.170 	0.521 	0.257
 6.487 	1.533 	-0.053
 6.879 	0.925 	-0.184
 6.968 	0.349 	-0.124
 7.325 	0.332 	-0.272
 6.836 	0.318 	-0.016
 6.701 	-0.012 	0.114
 6.570 	0.217 	-0.472
 6.999 	0.929 	-0.754
 6.552 	0.600 	0.108
 6.870 	0.768 	0.229
 6.866 	0.483 	-0.420
 6.793 	0.318 	-0.453
 6.192 	-0.082 	-0.471
 6.242 	-0.004 	-0.534
 5.968 	0.053 	-0.123
 5.701 	0.518 	0.223
 6.112 	0.780 	0.028
 6.276 	0.185 	-0.312
 6.421 	0.390 	-0.024
 6.476 	0.243 	-0.037
 6.418 	0.664 	0.123
 6.048 	0.237 	0.043
 5.642 	0.310 	-0.509
 5.582 	0.495 	-0.040
 5.758 	0.177 	0.304
 6.388 	0.085 	-0.085
 6.961 	0.367 	-0.190
 7.085 	0.156 	0.193
 5.713 	-0.598 	-0.626
 5.676 	-0.014 	-0.883
 5.824 	0.589 	-0.353
 5.277 	0.372 	0.060
 5.188 	-0.018 	0.281
 4.909 	0.001 	0.536
 5.181 	0.184 	0.732
 5.588 	0.303 	0.498
 5.810 	0.337 	0.241
 5.975 	0.584 	-0.205
 5.321 	1.065 	0.388
 5.699 	0.448 	0.768
 5.693 	-0.408 	0.120
 5.769 	-0.133 	-0.125
 5.908 	-0.070 	-0.004
 6.729 	0.352 	-0.065
 4.154 	-0.373 	0.596
 4.795 	0.504 	0.604
 5.177 	0.776 	0.241
 5.442 	0.642 	0.007
 4.999 	0.807 	0.127
 4.811 	0.427 	0.291
 4.590 	0.247 	0.391
 4.724 	0.091 	0.575
 5.150 	0.581 	0.724
 5.509 	1.111 	0.596
 5.672 	0.732 	0.040
 5.625 	-0.273 	-0.038
 5.881 	-0.738 	0.314
 6.465 	-0.800 	-0.030
 6.046 	-0.594 	0.015
 5.913 	-0.171 	0.112
 4.552 	0.062 	-0.054
 5.196 	0.564 	-0.585
 5.047 	1.305 	0.130
 4.827 	0.980 	0.260
 4.706 	0.817 	0.329
 4.893 	0.802 	-0.057
 4.719 	0.701 	-0.074
 4.563 	0.202 	-0.096
 4.359 	0.191 	-0.299
 4.990 	0.227 	-0.095
 5.581 	-0.190 	0.177
 5.722 	-0.778 	0.299
 6.119 	-0.908 	0.354
 6.245 	-0.733 	0.269
 6.329 	-0.259 	0.298
 6.390 	-0.633 	-0.302
 5.235 	0.005 	-0.349
 5.439 	0.548 	-0.559
 4.570 	1.047 	0.082
 4.479 	0.155 	-0.045
 5.009 	0.029 	-0.267
 5.260 	0.030 	-0.337
 5.532 	0.045 	-0.309
 5.824 	-0.103 	-0.544
 5.857 	-0.094 	-0.669
 5.759 	-0.341 	-0.394
 5.788 	-0.256 	-0.090
 5.350 	-0.536 	0.437
 5.106 	-1.227 	0.469
 5.435 	-1.156 	0.515
 6.152 	-0.628 	0.365
 6.393 	-0.430 	0.328
 5.258 	0.973 	-0.222
 4.452 	1.269 	0.058
 4.779 	0.597 	-0.401
 4.764 	-0.017 	-0.156
 4.874 	-0.266 	0.141
 5.157 	-0.235 	0.269
 5.728 	0.213 	-0.276
 5.749 	-0.026 	-0.111
 5.644 	0.143 	-0.150
 5.343 	0.286 	0.259
 5.137 	-0.026 	0.212
 5.689 	-0.595 	0.375
 5.734 	-1.017 	0.493
 6.186 	-1.889 	0.291
 6.328 	-1.575 	0.035
 6.502 	-1.099 	-0.049
 5.214 	1.444 	-0.361
 5.220 	1.003 	0.116
 5.397 	0.691 	-0.281
 5.343 	-0.038 	-0.253
 5.590 	-0.363 	0.178
 5.575 	-0.056 	0.211
 5.370 	0.324 	0.140
 5.655 	0.270 	-0.014
 5.872 	0.148 	0.125
 5.927 	0.245 	-0.003
 6.085 	-0.120 	0.028
 6.316 	-0.256 	0.013
 6.073 	-1.335 	-0.271
 6.604 	-1.980 	-0.151
 7.118 	-1.498 	-0.414
 7.351 	-1.433 	0.168
 6.070 	1.088 	-0.674
 6.436 	1.038 	-0.119
 5.950 	1.069 	-0.422
 5.382 	0.069 	0.288
 5.414 	-0.033 	0.471
 5.478 	0.146 	0.419
 5.536 	0.234 	0.226
 5.650 	0.265 	-0.031
 5.579 	0.257 	-0.459
 5.990 	0.455 	-1.064
 6.432 	0.145 	-0.965
 6.782 	-0.032 	-0.878
 6.351 	-1.542 	-0.839
 6.530 	-1.834 	-0.075
 7.300 	-1.239 	0.700
 6.666 	-0.613 	0.352
 7.010 	-0.205 	-0.502
 7.097 	0.224 	-0.422
 7.142 	-0.076 	0.023
 7.680 	0.681 	-0.213
 6.362 	0.550 	0.438
 6.667 	0.445 	0.230
 7.649 	0.058 	-0.280
 7.473 	-0.231 	-0.172
 6.418 	0.946 	0.520
 7.615 	0.524 	-0.120
 6.650 	0.138 	-0.646
 6.218 	0.654 	-0.237
 6.447 	0.345 	-0.467
 6.262 	0.447 	-0.321
 5.775 	0.020 	-0.149
 6.043 	-0.067 	0.060
 6.709 	-0.639 	0.429
 6.731 	0.184 	-0.221
 6.420 	0.479 	0.404
 5.581 	0.267 	0.786
 6.398 	0.127 	0.764
 6.865 	-0.133 	0.467
 6.909 	-0.625 	0.506
 7.112 	-0.353 	-0.385
 6.933 	0.611 	0.079
 7.864 	0.382 	-0.714
 7.049 	0.539 	-0.376
 6.003 	0.814 	-0.359
 6.006 	0.597 	-0.519
 6.724 	-0.000 	-0.230
 6.907 	-0.221 	-0.522
 6.928 	-0.340 	-0.619
 6.423 	0.481 	0.187
 6.634 	0.692 	0.245
 6.950 	1.397 	-0.323
 6.499 	0.204 	0.011
 7.346 	-0.472 	-0.208
 7.663 	-0.668 	-0.477
 7.433 	-0.022 	-0.177
 7.673 	-0.038 	0.039
 8.079 	0.185 	-0.520
 8.634 	0.335 	-1.351
 7.939 	0.652 	-0.460
 6.470 	1.127 	-0.282
 7.200 	0.239 	-0.497
 7.319 	-0.209 	-0.161
 7.415 	-0.569 	-0.087
 7.808 	0.164 	-0.327
 7.074 	1.284 	0.232
 7.163 	0.751 	-0.379
 7.054 	0.921 	-0.115
 7.104 	0.618 	-0.396
 6.920 	-0.064 	0.344
 7.303 	0.141 	0.256
 7.327 	0.074 	0.095
 7.465 	0.193 	-0.663
 7.649 	0.652 	-0.635
 7.260 	0.681 	-0.147
 7.061 	0.616 	-0.182
 7.299 	0.697 	-0.278
 7.197 	0.229 	-0.316
 7.244 	-0.173 	-0.584
 7.269 	-0.742 	-0.476
 7.710 	-0.999 	-0.511
 7.464 	1.044 	-0.000
 7.397 	1.134 	-0.483
 6.963 	0.566 	-0.332
 7.665 	0.531 	-0.602
 7.667 	0.941 	-0.437
 7.457 	0.323 	0.465
 6.634 	-0.165 	0.327
 6.745 	0.172 	-0.269
 7.035 	0.424 	-0.379
 7.384 	0.763 	-0.571
 7.320 	0.612 	-0.212
 7.166 	0.520 	-0.072
 7.203 	0.074 	-0.326
 6.535 	-0.489 	-0.537
 6.638 	-0.664 	0.025
 6.774 	-0.775 	0.055
 6.792 	0.850 	-0.047
 7.232 	0.400 	-0.188
 7.436 	0.782 	-0.615
 7.332 	0.727 	-0.420
 6.765 	0.841 	-0.029
 7.174 	0.940 	0.397
 6.709 	0.378 	0.438
 6.856 	0.564 	0.305
 7.140 	0.575 	0.067
 7.403 	0.925 	-0.459
 7.621 	0.707 	-0.354
 7.355 	0.314 	-0.236
 6.676 	0.071 	-0.436
 6.500 	-0.163 	-0.508
 6.513 	-0.408 	0.173
 6.759 	-0.603 	-0.264
 7.216 	1.553 	-0.585
 6.433 	-0.222 	0.423
 6.667 	0.610 	-0.049
 6.730 	1.060 	0.036
 6.647 	1.218 	-0.108
 7.212 	1.114 	0.197
 6.854 	0.947 	0.424
 7.156 	0.815 	-0.168
 7.273 	0.551 	-0.486
 6.957 	0.581 	-0.379
 7.127 	0.742 	-0.693
 6.039 	0.243 	-0.557
 6.095 	0.249 	-0.679
 6.590 	0.363 	0.389
 6.660 	-0.085 	0.365
 6.515 	-0.498 	-0.217
 6.232 	1.236 	0.020
 6.306 	0.500 	0.327
 5.981 	0.035 	0.408
 6.248 	0.553 	0.052
 6.424 	1.225 	-0.068
 6.413 	0.421 	0.140
 6.634 	0.406 	0.017
 6.797 	0.183 	0.200
 6.775 	0.508 	-0.101
 7.012 	0.953 	0.307
 6.957 	0.822 	-0.570
 6.683 	0.727 	-0.484
 6.225 	0.179 	0.562
 5.950 	-0.079 	0.263
 6.275 	-0.612 	-0.121
 6.304 	-0.766 	-0.291
 5.862 	0.401 	-0.153
 6.099 	0.465 	-0.283
 6.041 	0.229 	-0.111
 5.911 	0.113 	0.351
 6.147 	0.352 	0.513
 6.427 	0.150 	0.272
 6.195 	-0.061 	0.095
 6.122 	-0.159 	0.101
 6.528 	-0.115 	-0.197
 6.902 	0.882 	-0.191
 6.848 	0.592 	-0.508
 6.600 	0.509 	0.880
 6.048 	0.540 	0.861
 6.140 	-0.063 	0.224
 5.665 	-0.540 	-0.078
 5.807 	-0.256 	0.170
 6.431 	0.206 	-0.127
 6.213 	0.107 	-0.316
 6.333 	0.146 	-0.622
 6.201 	0.582 	-0.305
 6.031 	0.485 	-0.060
 5.838 	0.255 	0.395
 5.765 	0.138 	0.415
 5.789 	0.040 	0.280
 6.015 	0.295 	-0.009
 6.160 	0.147 	-0.198
 5.902 	1.156 	0.315
 5.738 	0.421 	0.227
 5.626 	0.204 	0.229
 6.096 	-0.461 	0.298
 6.644 	-1.287 	0.411
 5.973 	-0.192 	0.106
 6.015 	0.497 	0.217
 6.215 	-0.106 	-0.501
 5.330 	-0.215 	-0.055
 5.158 	0.553 	0.234
 5.157 	0.483 	0.332
 5.322 	0.475 	0.118
 5.380 	0.507 	0.020
 5.107 	0.072 	-0.124
 5.340 	0.451 	0.127
 5.331 	0.264 	0.256
 6.028 	0.719 	0.605
 5.923 	0.497 	0.278
 6.034 	-0.100 	-0.005
 6.335 	-0.555 	-0.064
 6.730 	-1.030 	-0.065
 6.254 	-1.045 	0.831
 5.567 	0.307 	-0.106
 5.152 	0.284 	-0.397
 4.125 	0.669 	0.370
 3.913 	0.493 	0.417
 4.140 	0.156 	0.237
 4.342 	-0.015 	0.080
 4.463 	0.530 	-0.113
 4.588 	0.355 	0.215
 4.936 	-0.042 	0.118
 5.216 	-0.134 	0.436
 5.339 	0.644 	0.627
 5.614 	0.143 	0.539
 6.074 	-0.464 	0.246
 6.498 	-1.010 	0.129
 6.591 	-1.073 	-0.061
 6.424 	-0.800 	-0.113
 6.385 	0.640 	-0.298
 6.158 	0.797 	-0.503
 4.623 	0.938 	0.416
 5.073 	0.612 	0.062
 5.722 	0.629 	-0.433
 5.653 	0.657 	-0.281
 5.638 	0.710 	-0.430
 5.989 	0.137 	-0.544
 6.452 	0.081 	-0.711
 6.287 	0.100 	-0.908
 6.241 	0.096 	-0.321
 5.963 	-0.086 	-0.020
 6.116 	-0.512 	0.450
 6.036 	-0.667 	0.404
 6.300 	-1.141 	0.388
 6.668 	-1.327 	0.112
 5.998 	0.767 	-0.008
 5.946 	0.856 	-0.218
 5.967 	1.190 	-0.341
 6.020 	0.745 	-0.129
 5.993 	0.653 	-0.148
 5.874 	0.699 	-0.098
 6.074 	0.575 	-0.300
 6.266 	0.286 	-0.346
 6.143 	0.177 	-0.123
 6.332 	0.532 	-0.190
 6.349 	0.582 	-0.446
 6.210 	0.388 	-0.011
 6.099 	-0.243 	0.517
 6.146 	-0.775 	0.554
 6.422 	-1.521 	0.298
 7.007 	-1.621 	-0.048
 5.888 	1.273 	0.046
 5.853 	1.256 	-0.097
 6.259 	0.908 	-0.231
 5.836 	1.007 	-0.010
 5.409 	0.858 	-0.066
 5.861 	0.591 	-0.186
 6.316 	0.536 	-0.217
 6.217 	0.383 	-0.258
 6.122 	0.568 	-0.032
 5.917 	0.568 	-0.345
 6.188 	0.710 	-0.374
 6.404 	0.647 	-0.445
 6.723 	0.072 	-0.428
 6.448 	-0.910 	-0.542
 7.105 	-1.336 	-0.404
 7.318 	-1.488 	0.069
 6.346 	0.812 	-0.030
 6.559 	1.213 	-0.273
 6.748 	1.153 	0.059
 5.882 	0.895 	0.369
 6.105 	0.781 	0.108
 6.064 	0.896 	0.158
 5.890 	0.882 	0.002
 5.966 	0.640 	-0.508
 6.136 	0.551 	-0.608
 6.077 	0.458 	-0.684
 6.305 	0.165 	-0.542
 6.797 	-0.024 	-0.660
 6.911 	-0.171 	-0.643
 7.003 	-1.322 	0.031
 7.380 	-1.604 	0.166
 7.378 	-1.437 	0.082
 7.828 	0.460 	-0.300
 7.884 	0.178 	-0.340
 8.779 	0.225 	-0.363
 8.446 	-0.185 	-0.376
 8.256 	0.010 	-0.163
 8.220 	0.486 	-0.430
 8.525 	0.551 	-0.539
 8.687 	0.387 	0.101
 8.514 	0.140 	0.034
 8.472 	0.394 	-0.832
 8.148 	-0.232 	-0.104
 8.384 	0.579 	-0.621
 8.242 	0.581 	-0.367
 6.832 	0.324 	-0.064
 6.764 	-0.015 	-0.157
 6.380 	-0.092 	0.304
 7.270 	0.162 	-0.248
 7.319 	-0.067 	0.004
 7.180 	-0.207 	-0.407
 7.407 	0.357 	-0.096
 7.660 	0.470 	0.956
 7.672 	0.842 	0.466
 7.891 	0.479 	-0.172
 8.497 	0.907 	-0.688
 8.545 	0.428 	-0.182
 7.831 	-0.247 	-0.135
 8.104 	0.510 	0.224
 7.876 	0.405 	-0.190
 7.670 	1.179 	-0.308
 7.078 	0.805 	-0.201
 7.352 	0.473 	-0.541
 7.993 	0.048 	-0.688
 7.719 	0.471 	-0.302
 7.493 	0.441 	-0.208
 7.153 	0.500 	-0.471
 7.352 	1.183 	0.325
 7.413 	0.702 	-0.143
 7.384 	0.809 	-0.045
 8.112 	0.517 	-0.202
 8.551 	0.580 	-0.366
 8.016 	0.308 	0.236
 7.687 	0.063 	-0.813
 8.143 	0.652 	-0.089
 8.339 	0.053 	-0.187
 7.846 	1.200 	-0.106
 7.811 	0.710 	-0.403
 7.914 	-0.339 	-0.337
 8.194 	0.383 	-0.600
 7.623 	0.702 	-0.253
 7.910 	0.792 	-0.589
 7.533 	1.006 	-0.499
 7.610 	1.075 	-0.522
 7.406 	0.525 	-0.178
 7.420 	0.167 	0.188
 7.263 	-0.327 	-0.108
 7.582 	-0.219 	-0.275
 7.648 	0.389 	-0.593
 7.938 	-0.001 	-0.765
 7.745 	0.347 	0.038
 7.171 	0.793 	0.064
 7.316 	0.555 	-0.209
 7.815 	0.182 	-0.248
 8.019 	0.013 	-0.249
 8.010 	0.275 	0.064
 7.666 	0.817 	-0.721
 7.986 	1.223 	-0.263
 7.624 	1.492 	-0.181
 7.823 	1.160 	-0.510
 7.643 	0.757 	0.048
 7.198 	0.100 	0.304
 7.236 	-0.266 	-0.021
 7.592 	-0.317 	-0.349
 8.101 	0.272 	-0.592
 7.870 	0.295 	-0.947