# vtk DataFile Version 3.0
HighT1
ASCII
DATASET STRUCTURED_POINTS
DIMENSIONS 16 16 19
ORIGIN 929.001000000000 929.001000000000 5.001000000000
SPACING 10.000000000000 10.000000000000 10.000000000000
POINT_DATA 4864
 FIELD attributes 1
U 3 4864 float
4.778 	0.149 	-0.960
 5.688 	-0.202 	-0.951
 4.741 	-0.136 	-0.226
 3.879 	0.344 	-0.038
 3.226 	0.688 	-0.149
 3.042 	-0.374 	0.205
 3.606 	0.778 	0.351
 3.897 	0.828 	-0.028
 4.745 	0.301 	-0.730
 4.823 	0.606 	-0.423
 4.863 	1.069 	-0.289
 3.849 	0.704 	-0.113
 3.806 	0.781 	0.132
 4.737 	-0.611 	-0.106
 4.826 	-0.523 	-0.033
 4.226 	-0.719 	0.198
 4.108 	0.635 	-0.278
 3.955 	0.699 	-0.071
 4.074 	0.599 	-0.266
 3.290 	0.589 	0.249
 3.802 	-0.277 	-0.443
 4.998 	-0.499 	-1.190
 5.836 	0.922 	-0.742
 4.703 	0.203 	0.413
 4.622 	1.342 	-0.902
 2.891 	1.057 	0.664
 3.182 	0.685 	-0.123
 4.055 	-0.104 	-0.140
 4.664 	-0.163 	0.192
 4.874 	-0.150 	-0.087
 4.625 	-0.699 	0.196
 4.859 	-0.943 	0.075
 2.010 	0.636 	0.160
 2.889 	0.978 	0.021
 2.723 	1.071 	0.181
 2.909 	-0.008 	0.076
 3.017 	0.331 	0.027
 2.945 	0.470 	0.539
 3.552 	0.760 	0.259
 4.600 	1.616 	0.272
 3.480 	1.559 	0.255
 4.338 	0.728 	-0.463
 4.114 	0.546 	-0.140
 4.417 	-0.037 	-0.048
 4.809 	-0.244 	-0.144
 4.835 	-0.193 	0.079
 4.984 	-1.404 	0.025
 4.530 	-0.781 	-0.300
 3.230 	0.170 	-0.249
 3.578 	0.487 	-0.105
 4.216 	0.020 	-0.056
 3.427 	0.298 	-0.098
 2.702 	-0.301 	0.509
 2.356 	-0.072 	0.564
 2.468 	-0.482 	0.616
 3.447 	-0.140 	-0.362
 3.342 	0.016 	0.369
 3.628 	-0.034 	0.722
 4.152 	-0.303 	0.468
 4.110 	-0.508 	0.054
 4.348 	0.049 	-0.141
 4.813 	-0.662 	-0.673
 4.751 	-0.401 	0.400
 4.701 	-1.085 	-0.304
 2.452 	-0.115 	0.099
 2.406 	0.268 	0.112
 2.843 	0.328 	-0.077
 3.369 	0.191 	0.117
 3.755 	-0.753 	0.127
 3.696 	-0.832 	-0.373
 4.011 	-0.188 	-0.463
 4.345 	0.744 	-0.267
 4.833 	0.572 	-0.703
 3.161 	-0.825 	0.691
 3.146 	-1.694 	0.657
 3.656 	-0.716 	0.247
 3.540 	-0.328 	0.109
 3.639 	-0.504 	-0.492
 3.401 	-0.205 	-0.167
 3.856 	-0.135 	0.160
 4.000 	-0.476 	-0.170
 3.729 	-0.055 	0.014
 3.346 	-0.488 	0.165
 3.719 	0.084 	-0.384
 3.815 	0.049 	0.133
 3.484 	0.134 	0.009
 2.959 	-0.638 	0.432
 2.961 	-0.001 	0.277
 4.170 	-0.026 	0.388
 4.197 	-0.531 	-0.246
 4.119 	-1.271 	0.341
 2.935 	-0.132 	0.068
 2.640 	0.043 	0.348
 2.756 	0.657 	-0.208
 3.582 	0.087 	-0.185
 4.148 	0.046 	-0.462
 4.471 	-0.046 	-0.061
 4.463 	0.192 	0.061
 4.014 	0.012 	-0.189
 3.803 	0.161 	0.140
 3.779 	-0.071 	0.165
 3.377 	-0.631 	-0.105
 3.749 	-0.881 	-0.215
 4.523 	-0.803 	-0.426
 4.586 	-0.550 	-0.379
 4.536 	-0.585 	-0.341
 4.594 	0.059 	0.065
 4.241 	0.102 	0.044
 3.291 	-0.435 	0.155
 3.021 	-0.296 	0.374
 2.684 	-0.233 	0.370
 2.837 	0.196 	0.274
 3.173 	0.405 	-0.018
 2.910 	0.181 	0.164
 2.460 	-0.073 	0.292
 2.478 	0.104 	0.320
 3.321 	0.446 	-0.076
 3.500 	-0.121 	-0.266
 4.139 	-1.207 	0.012
 3.203 	-1.328 	0.470
 4.235 	-0.334 	-0.537
 4.786 	0.267 	-0.546
 4.433 	0.621 	-0.181
 4.747 	0.820 	-0.448
 4.682 	0.089 	-0.165
 4.809 	0.108 	-0.306
 4.580 	-0.287 	-0.123
 4.512 	-0.401 	-0.070
 3.083 	0.272 	-0.388
 3.890 	0.044 	-0.149
 4.473 	-0.455 	-0.036
 4.243 	0.033 	-0.160
 3.882 	0.277 	-0.369
 4.398 	-0.068 	-0.172
 4.636 	-0.541 	0.081
 4.551 	-0.131 	-0.428
 4.614 	-0.218 	0.420
 3.153 	0.712 	0.287
 3.613 	0.543 	0.083
 3.966 	0.510 	0.151
 4.053 	0.599 	0.189
 3.837 	0.241 	-0.009
 4.235 	-0.274 	-0.305
 4.366 	-0.119 	0.033
 4.185 	0.294 	-0.398
 4.299 	0.275 	-0.395
 4.620 	0.166 	-0.489
 4.557 	0.395 	-0.280
 4.242 	0.354 	-0.219
 4.509 	-0.204 	-0.414
 4.648 	-0.009 	-0.292
 3.879 	-0.302 	0.354
 4.084 	0.628 	0.097
 3.583 	0.193 	0.128
 4.005 	0.548 	-0.193
 4.325 	0.662 	-0.187
 4.030 	0.382 	-0.136
 4.156 	0.443 	-0.315
 3.944 	-0.328 	0.071
 3.729 	-0.128 	-0.053
 4.039 	0.480 	0.232
 3.826 	0.821 	0.129
 3.928 	0.791 	0.128
 3.824 	0.723 	0.061
 3.820 	0.510 	-0.250
 3.964 	0.602 	-0.076
 3.593 	-0.494 	-0.068
 3.675 	0.302 	0.402
 3.459 	0.616 	-0.090
 3.583 	0.491 	-0.381
 3.626 	0.327 	-0.347
 3.254 	0.361 	-0.052
 3.772 	0.715 	-0.074
 4.167 	0.452 	-0.466
 4.607 	0.411 	-0.226
 4.514 	-0.256 	-0.280
 2.562 	-0.498 	0.164
 2.616 	-0.226 	0.190
 2.929 	-0.088 	0.282
 3.248 	0.666 	0.146
 3.632 	0.302 	0.180
 4.263 	0.222 	0.454
 4.054 	-0.714 	0.011
 3.755 	-0.285 	-0.132
 4.137 	0.632 	0.004
 4.018 	0.777 	-0.070
 3.952 	0.726 	-0.005
 4.182 	0.784 	-0.180
 4.600 	0.600 	-0.069
 4.340 	0.683 	-0.115
 4.213 	0.388 	-0.249
 4.024 	0.331 	0.174
 3.634 	-0.423 	0.298
 3.724 	-0.804 	0.003
 3.555 	-0.278 	-0.017
 3.589 	-0.416 	-0.010
 3.942 	-0.421 	0.010
 3.787 	-0.200 	0.295
 4.207 	-0.946 	0.092
 3.761 	0.014 	0.048
 3.604 	0.429 	0.148
 3.832 	0.318 	-0.017
 4.425 	-0.043 	0.185
 4.359 	0.324 	0.057
 4.379 	0.858 	0.069
 4.350 	0.674 	-0.083
 3.881 	0.853 	-0.019
 3.536 	0.456 	0.324
 3.873 	-0.424 	0.298
 3.633 	-0.422 	-0.069
 3.350 	-0.300 	-0.057
 3.871 	0.191 	-0.292
 3.900 	0.150 	-0.210
 4.615 	0.344 	-0.123
 4.286 	-0.264 	-0.040
 4.053 	-0.200 	0.120
 4.399 	-0.390 	-0.252
 4.604 	-0.226 	0.105
 4.742 	0.102 	-0.147
 4.468 	0.287 	-0.155
 4.307 	0.727 	0.194
 3.876 	0.189 	-0.254
 4.187 	1.104 	-0.028
 3.827 	0.409 	-0.209
 3.899 	-0.138 	-0.129
 3.570 	-0.031 	0.032
 3.098 	-0.485 	0.021
 3.168 	-0.216 	0.164
 3.629 	0.213 	0.002
 3.992 	-0.046 	-0.271
 4.344 	0.273 	-0.157
 4.195 	-0.036 	0.054
 3.955 	-0.486 	-0.253
 3.973 	-0.062 	0.252
 3.770 	0.580 	0.276
 3.687 	0.553 	0.083
 3.717 	0.501 	-0.182
 4.138 	0.835 	0.095
 3.931 	0.424 	0.396
 4.466 	0.231 	0.252
 3.328 	0.205 	-0.232
 3.667 	0.102 	-0.432
 3.537 	-0.285 	-0.144
 3.020 	-0.039 	0.071
 2.328 	0.409 	0.131
 2.376 	-0.338 	0.273
 2.690 	0.235 	0.034
 3.018 	-0.093 	-0.223
 3.316 	0.504 	0.407
 2.231 	-0.351 	0.081
 2.121 	-0.105 	0.282
 2.500 	0.263 	0.190
 3.098 	0.228 	0.087
 2.926 	-0.829 	0.023
 2.577 	-0.124 	0.587
 2.074 	-0.423 	0.284
 5.458 	0.743 	-0.768
 6.294 	0.024 	-1.544
 6.183 	-0.008 	-0.760
 6.408 	-0.512 	-0.517
 4.893 	0.413 	0.578
 5.104 	0.132 	-0.822
 6.069 	-0.139 	-0.778
 5.961 	0.210 	-0.512
 6.521 	0.317 	-0.834
 7.361 	0.182 	-1.134
 6.969 	1.095 	-0.192
 6.277 	1.125 	-0.202
 6.040 	1.236 	-0.035
 5.573 	0.261 	0.614
 5.397 	0.287 	0.122
 5.592 	-0.716 	0.315
 6.427 	0.712 	-0.308
 5.551 	0.003 	-0.849
 5.242 	0.915 	0.350
 4.961 	0.198 	1.151
 5.339 	0.090 	-0.563
 5.114 	-0.148 	-1.182
 4.813 	-0.030 	-0.960
 5.524 	0.645 	-0.172
 5.396 	0.698 	-0.938
 5.779 	1.003 	0.070
 5.165 	1.364 	0.600
 5.474 	1.322 	-0.078
 5.652 	1.983 	0.489
 5.907 	-0.089 	0.508
 5.434 	0.014 	0.504
 5.127 	-0.847 	0.266
 4.953 	0.072 	-0.271
 4.757 	0.832 	-0.507
 4.484 	0.868 	0.612
 4.898 	-0.394 	0.406
 5.126 	0.229 	-1.610
 4.303 	0.246 	0.403
 3.948 	-0.892 	0.166
 3.659 	-0.035 	0.640
 3.627 	0.511 	0.662
 4.314 	-0.283 	1.300
 5.187 	0.915 	0.981
 5.357 	0.520 	0.738
 5.757 	0.544 	0.312
 5.590 	-0.170 	0.354
 5.202 	0.700 	0.079
 4.967 	-0.473 	-0.472
 3.759 	-0.155 	0.310
 3.996 	0.860 	0.450
 4.644 	1.448 	-0.171
 3.362 	0.184 	0.795
 3.185 	0.765 	0.809
 3.659 	0.318 	1.100
 4.153 	-0.037 	0.090
 4.402 	0.466 	-0.191
 4.975 	-0.245 	0.865
 5.277 	-0.760 	1.083
 4.787 	-0.079 	-0.062
 5.525 	-0.645 	0.289
 5.682 	-1.040 	0.016
 5.494 	-0.039 	0.242
 4.917 	-0.568 	-0.028
 5.094 	0.193 	-0.895
 4.485 	0.120 	-0.246
 4.627 	-0.318 	0.216
 4.346 	0.350 	0.562
 4.682 	-0.071 	0.041
 4.929 	0.131 	-0.003
 4.923 	0.251 	-0.054
 5.187 	-0.293 	-0.030
 5.705 	0.076 	-0.197
 5.822 	-0.092 	-0.589
 5.840 	0.168 	-0.169
 5.607 	0.419 	-0.959
 5.255 	-0.349 	-0.018
 5.143 	-0.915 	-0.266
 5.703 	-0.855 	-0.298
 5.683 	-0.328 	-0.470
 6.037 	-0.312 	-0.454
 4.750 	0.471 	-0.355
 5.001 	0.284 	-0.380
 5.183 	-0.178 	0.273
 5.090 	-0.340 	-0.084
 4.927 	-0.452 	0.305
 5.060 	-0.535 	-0.197
 4.675 	-0.124 	0.285
 4.064 	-0.336 	0.934
 4.616 	-0.028 	0.053
 5.008 	0.988 	-0.616
 5.231 	0.492 	-0.376
 5.702 	-0.424 	0.089
 5.151 	-0.556 	-0.072
 5.433 	-1.025 	-0.349
 6.157 	-0.144 	-0.689
 6.318 	-0.332 	-0.600
 4.776 	0.016 	0.173
 4.694 	0.533 	0.418
 4.740 	0.427 	-0.147
 4.874 	0.092 	-0.520
 4.844 	-0.105 	-0.418
 4.857 	-0.258 	-0.344
 4.973 	0.227 	-0.449
 5.354 	0.050 	0.038
 4.474 	0.213 	0.268
 4.258 	0.291 	0.160
 5.129 	0.583 	0.121
 5.420 	0.096 	0.078
 5.697 	-0.496 	0.220
 5.748 	0.445 	-0.132
 4.500 	-0.637 	0.893
 5.830 	-0.745 	-0.816
 5.093 	-0.023 	-0.369
 4.742 	0.343 	-0.116
 4.378 	0.443 	0.083
 4.219 	-0.072 	0.247
 4.524 	0.456 	0.102
 4.714 	-0.242 	0.113
 4.955 	-0.114 	-0.317
 5.576 	-0.288 	-0.753
 5.603 	-0.129 	-0.339
 5.468 	-0.443 	-0.496
 5.181 	0.283 	-0.280
 5.547 	-0.306 	-0.375
 5.456 	-0.622 	-0.299
 5.872 	0.247 	0.031
 5.493 	0.041 	0.023
 5.630 	-0.329 	0.035
 4.920 	0.459 	-0.640
 4.688 	0.632 	-0.017
 4.690 	0.616 	0.138
 4.623 	0.105 	0.120
 4.656 	-0.391 	-0.083
 4.794 	-0.758 	-0.037
 5.094 	-0.466 	-0.321
 5.078 	-0.247 	-0.467
 5.197 	-0.056 	0.237
 5.540 	-0.254 	-0.516
 5.341 	-0.050 	-0.262
 5.678 	0.123 	-0.734
 5.145 	0.093 	0.534
 5.570 	-0.463 	-0.399
 5.305 	-0.144 	-0.319
 4.920 	0.090 	0.327
 4.488 	0.501 	-0.526
 5.103 	0.872 	-0.770
 4.947 	0.702 	-0.637
 5.023 	0.114 	-0.653
 4.886 	-0.269 	-0.415
 4.403 	-0.707 	-0.652
 4.799 	-0.307 	0.086
 5.363 	0.458 	0.151
 4.922 	0.527 	0.028
 5.310 	0.207 	-0.298
 4.825 	-0.195 	-0.298
 4.944 	-0.172 	-0.430
 5.427 	0.200 	-0.212
 5.143 	0.661 	-0.028
 4.547 	-0.247 	0.169
 4.665 	-0.109 	-0.031
 3.000 	-0.182 	0.355
 3.566 	-0.019 	0.210
 4.025 	0.555 	-0.096
 3.880 	0.339 	-0.118
 4.515 	-0.293 	-1.104
 4.629 	0.103 	-0.521
 4.645 	0.133 	0.052
 4.377 	-0.084 	0.539
 4.819 	0.642 	0.110
 4.432 	0.338 	0.077
 4.449 	0.074 	0.071
 5.070 	-0.379 	0.121
 5.070 	0.559 	-0.284
 4.960 	0.384 	-0.006
 4.707 	0.036 	-0.200
 4.691 	-0.838 	-0.037
 2.974 	-0.115 	0.448
 2.837 	-0.280 	0.619
 3.023 	0.127 	1.022
 3.114 	-0.124 	-0.353
 3.546 	0.278 	-0.296
 3.722 	0.629 	0.016
 4.100 	0.380 	-0.092
 4.186 	-0.006 	0.236
 4.688 	0.053 	0.284
 4.217 	-0.168 	0.485
 4.835 	-0.531 	0.055
 4.833 	-0.609 	-0.429
 4.782 	0.446 	0.074
 4.993 	0.566 	0.189
 4.571 	-0.374 	-0.133
 4.557 	-0.287 	-0.096
 3.514 	0.099 	0.013
 3.443 	-0.299 	0.378
 3.206 	0.047 	0.518
 3.663 	0.175 	-0.435
 4.357 	0.660 	-0.580
 4.492 	0.796 	-0.415
 4.647 	0.638 	-0.539
 4.370 	-0.099 	-0.219
 4.298 	-0.367 	0.149
 4.791 	-0.149 	0.219
 4.671 	-0.667 	0.114
 4.717 	0.047 	-0.375
 4.136 	-0.094 	0.193
 4.059 	0.102 	0.614
 4.432 	-0.327 	-0.299
 4.238 	0.174 	0.451
 4.147 	0.317 	0.043
 3.730 	-0.167 	0.243
 3.803 	-0.357 	0.009
 4.199 	0.159 	-0.254
 4.774 	0.309 	-0.436
 4.674 	0.694 	-0.421
 4.798 	0.633 	-0.146
 4.807 	0.567 	-0.417
 4.601 	0.002 	-0.017
 5.058 	-0.351 	-0.108
 4.697 	-0.688 	0.218
 4.312 	0.369 	0.109
 4.473 	-0.095 	0.207
 4.397 	-0.251 	0.063
 3.889 	-0.390 	0.356
 4.371 	0.151 	0.264
 4.214 	0.466 	-0.122
 3.974 	0.138 	-0.038
 3.720 	-0.035 	0.065
 3.894 	-0.265 	-0.050
 4.154 	0.061 	0.025
 4.450 	0.525 	-0.046
 4.843 	0.393 	-0.434
 5.146 	0.788 	-0.384
 5.184 	-0.030 	0.157
 4.680 	-0.439 	0.368
 4.111 	-0.189 	0.327
 4.076 	0.358 	0.037
 3.714 	0.470 	0.291
 3.447 	-0.189 	0.669
 4.187 	-0.641 	1.042
 4.366 	-1.228 	0.633
 3.799 	0.290 	-0.073
 3.659 	0.059 	-0.134
 3.886 	-0.203 	-0.069
 3.636 	-0.684 	0.206
 3.885 	-0.118 	-0.043
 4.105 	-0.050 	0.007
 4.695 	0.123 	-0.079
 4.887 	0.227 	-0.057
 4.778 	0.065 	0.440
 4.792 	-0.283 	0.127
 3.739 	0.142 	0.257
 3.034 	0.189 	0.219
 3.596 	0.555 	0.901
 4.188 	0.274 	0.247
 4.031 	-0.990 	0.242
 4.406 	-1.333 	-0.413
 6.209 	1.600 	0.305
 6.821 	0.758 	-0.141
 6.364 	0.221 	-0.934
 6.896 	0.293 	-0.669
 7.288 	0.739 	-0.489
 6.329 	-0.453 	-0.494
 6.496 	0.144 	-1.139
 6.481 	0.027 	-1.190
 6.862 	0.208 	-0.745
 6.799 	0.222 	-0.817
 6.562 	-0.389 	-0.407
 7.055 	0.583 	-0.134
 6.721 	1.074 	-0.162
 5.432 	0.543 	1.417
 5.500 	0.998 	-0.304
 5.040 	0.243 	0.628
 5.945 	0.291 	0.402
 5.184 	-0.325 	-0.177
 4.875 	0.480 	0.603
 5.471 	0.245 	-0.432
 5.976 	0.863 	-0.050
 5.597 	-0.473 	-0.580
 5.983 	-0.176 	-0.927
 5.989 	-0.312 	-0.272
 6.560 	0.574 	-0.760
 5.908 	0.130 	0.209
 5.834 	-0.596 	0.610
 5.622 	0.628 	-0.601
 4.964 	1.470 	0.411
 4.955 	0.965 	0.687
 5.050 	1.579 	0.608
 5.633 	0.287 	0.320
 4.950 	-0.450 	-0.222
 5.013 	-0.461 	-0.191
 4.884 	0.876 	0.221
 5.044 	0.676 	-0.412
 5.217 	0.544 	-0.635
 5.817 	0.332 	-0.706
 4.758 	0.585 	-0.401
 4.771 	-0.546 	0.856
 4.742 	0.430 	0.736
 4.849 	0.566 	1.065
 5.666 	0.692 	0.118
 5.130 	1.592 	1.047
 4.852 	0.967 	0.882
 6.115 	0.591 	0.521
 6.370 	0.952 	0.677
 5.311 	0.555 	0.636
 4.419 	0.222 	0.368
 4.544 	-0.620 	0.912
 4.215 	0.277 	1.055
 4.394 	0.113 	0.652
 4.292 	0.584 	-0.268
 4.916 	1.153 	0.488
 5.063 	0.927 	-0.553
 5.728 	0.616 	-0.432
 4.441 	0.873 	0.977
 5.354 	1.563 	0.547
 4.690 	0.971 	0.980
 5.164 	1.247 	0.768
 6.162 	0.406 	0.829
 5.505 	0.424 	0.400
 5.700 	1.126 	0.262
 5.434 	0.243 	0.165
 4.229 	0.556 	-0.175
 3.950 	-0.223 	0.713
 4.024 	-0.351 	0.293
 4.901 	0.191 	0.534
 4.268 	1.141 	0.186
 4.833 	1.295 	0.113
 4.907 	0.222 	0.157
 5.679 	0.316 	0.089
 5.061 	1.079 	-0.097
 5.707 	0.390 	-0.526
 6.055 	0.601 	-1.064
 6.142 	0.256 	-0.780
 5.543 	0.255 	-0.367
 4.957 	0.784 	-0.221
 5.289 	0.684 	-0.236
 5.633 	0.496 	-0.596
 5.887 	-0.645 	-0.156
 5.773 	-0.213 	-0.383
 5.713 	0.076 	0.563
 5.358 	-0.103 	-0.105
 4.373 	1.670 	-0.173
 5.003 	1.128 	0.125
 5.389 	0.848 	-0.072
 5.493 	0.064 	0.200
 5.576 	0.088 	-0.518
 5.741 	0.315 	-0.404
 5.795 	0.388 	-0.375
 5.802 	1.325 	-0.538
 5.774 	0.831 	-0.683
 5.703 	0.507 	-0.522
 5.679 	0.469 	-0.628
 6.260 	0.665 	-0.708
 5.438 	-0.328 	-0.162
 5.096 	-0.422 	-0.066
 5.465 	-0.209 	-0.355
 5.332 	0.229 	-1.002
 5.549 	1.425 	-0.396
 5.409 	0.868 	-0.642
 5.948 	1.254 	-0.410
 6.284 	0.927 	-0.721
 5.832 	0.108 	0.049
 5.699 	0.270 	0.050
 5.748 	0.843 	-0.236
 5.613 	1.455 	-0.327
 5.665 	1.077 	-0.169
 6.020 	0.546 	0.110
 6.090 	-0.068 	0.401
 6.305 	-0.336 	0.040
 5.295 	-0.140 	-0.180
 4.745 	-0.011 	0.356
 5.034 	0.366 	-0.015
 4.627 	0.648 	0.353
 4.574 	0.400 	0.350
 5.291 	0.716 	-0.215
 5.717 	0.729 	-0.075
 5.615 	0.759 	0.133
 5.628 	0.203 	0.077
 5.905 	-0.069 	-0.130
 6.130 	0.954 	-0.257
 5.610 	1.187 	-0.341
 6.301 	0.689 	0.076
 5.815 	-0.231 	0.507
 6.325 	-0.259 	-0.017
 5.880 	-0.386 	-0.126
 4.794 	-0.737 	-0.325
 4.946 	0.334 	-0.060
 4.717 	0.670 	0.055
 4.899 	0.971 	0.061
 4.575 	0.742 	-0.140
 4.862 	0.411 	-0.231
 5.252 	-0.351 	-0.492
 5.612 	-0.459 	-0.635
 5.928 	-0.236 	-0.432
 5.794 	-0.235 	-0.244
 5.757 	0.276 	0.301
 5.961 	0.763 	0.365
 6.006 	0.155 	-0.037
 6.574 	-0.022 	-0.924
 6.205 	0.216 	-0.122
 5.603 	0.152 	0.170
 5.165 	-0.846 	-0.628
 4.987 	-0.148 	-0.386
 5.194 	0.460 	-0.256
 5.304 	1.026 	-0.417
 5.178 	0.573 	-0.453
 5.597 	0.046 	-0.679
 5.762 	-0.294 	-0.640
 5.009 	-0.387 	0.155
 5.067 	0.032 	-0.439
 5.861 	0.343 	-0.433
 5.110 	0.096 	-0.092
 5.409 	0.478 	-0.645
 5.659 	-0.007 	-0.196
 5.378 	-0.040 	0.157
 4.861 	0.314 	0.324
 4.998 	0.383 	0.223
 3.777 	-0.826 	0.305
 4.311 	-0.027 	-0.435
 4.729 	-0.294 	-0.657
 5.358 	0.637 	-0.431
 5.400 	0.355 	-0.978
 5.068 	-0.114 	-0.922
 5.041 	0.444 	-0.056
 5.287 	0.202 	-0.258
 4.254 	0.328 	0.051
 4.240 	0.137 	0.298
 4.843 	0.473 	-0.262
 4.787 	-0.303 	0.165
 4.828 	-0.345 	0.541
 4.682 	0.007 	0.313
 5.175 	-0.188 	0.105
 5.171 	-0.632 	0.397
 4.645 	0.287 	0.150
 3.751 	-0.188 	0.166
 4.033 	0.702 	0.660
 5.294 	0.374 	-1.430
 4.661 	0.600 	-0.697
 4.633 	0.404 	-0.512
 4.212 	0.446 	-0.123
 3.867 	0.075 	0.543
 4.150 	0.184 	0.871
 4.725 	-0.287 	0.637
 4.892 	-0.505 	0.307
 5.115 	-0.446 	-0.263
 4.940 	-0.614 	0.093
 5.378 	-0.281 	0.080
 5.877 	-0.642 	-0.227
 5.294 	-0.764 	0.005
 5.856 	0.409 	-0.096
 4.914 	0.683 	-0.100
 3.876 	1.036 	0.453
 5.247 	0.344 	-1.110
 4.682 	0.668 	-0.542
 4.673 	0.659 	-0.815
 4.663 	0.713 	-0.435
 4.884 	0.700 	-0.310
 4.884 	0.308 	-0.470
 5.123 	-0.184 	-0.206
 5.211 	-0.456 	0.083
 4.931 	-0.478 	-0.082
 5.013 	0.072 	-0.138
 5.382 	-0.255 	0.016
 5.351 	-0.285 	-0.230
 5.163 	-0.276 	-0.211
 4.288 	0.839 	0.578
 4.465 	1.308 	0.113
 5.237 	0.806 	-0.297
 4.820 	0.362 	-0.304
 4.875 	0.382 	-0.465
 5.431 	0.876 	-0.578
 4.764 	0.583 	-0.296
 4.677 	0.547 	-0.008
 4.972 	0.823 	-0.538
 5.177 	0.031 	0.277
 5.413 	-0.657 	0.256
 4.747 	-0.083 	0.483
 5.063 	0.101 	0.152
 5.214 	-0.146 	0.202
 4.556 	-0.092 	-0.017
 4.523 	-0.013 	0.165
 4.450 	-0.208 	0.534
 4.533 	0.165 	0.136
 4.523 	0.345 	0.455
 4.595 	0.605 	-0.190
 4.466 	0.393 	0.080
 4.789 	0.326 	-0.207
 5.282 	0.730 	-0.538
 4.970 	0.609 	-0.253
 5.068 	0.444 	0.157
 5.254 	-0.103 	0.180
 5.316 	-0.185 	0.169
 5.395 	0.063 	0.078
 4.945 	0.369 	0.232
 4.954 	0.579 	0.047
 4.416 	0.664 	0.468
 4.803 	0.658 	-0.058
 4.858 	-0.310 	0.079
 4.611 	-0.515 	-0.060
 4.609 	-0.243 	0.225
 4.550 	0.562 	0.171
 4.588 	0.502 	0.125
 4.492 	0.573 	0.446
 5.175 	0.853 	-0.408
 5.211 	0.549 	0.237
 5.572 	0.714 	0.274
 5.281 	0.382 	0.065
 5.331 	-0.089 	0.118
 4.992 	-0.067 	0.574
 5.302 	0.770 	0.420
 5.003 	0.872 	0.148
 4.816 	0.900 	0.440
 5.341 	0.792 	-0.338
 5.980 	0.726 	0.702
 6.582 	1.147 	0.465
 6.756 	0.275 	-0.013
 7.241 	0.771 	-0.057
 7.490 	0.864 	-0.118
 7.100 	0.553 	-0.320
 7.284 	0.615 	-0.631
 6.917 	0.553 	-0.595
 6.983 	-0.210 	-0.771
 6.853 	0.035 	-0.713
 6.928 	0.033 	0.015
 7.401 	0.705 	-0.089
 6.457 	0.487 	0.177
 7.046 	0.806 	0.615
 7.165 	1.479 	0.184
 6.764 	0.899 	0.406
 5.994 	0.381 	0.854
 6.407 	0.094 	0.441
 6.213 	-0.675 	0.575
 5.948 	-0.190 	-0.374
 6.209 	0.510 	-0.294
 6.602 	0.567 	-0.341
 5.757 	-0.289 	-0.409
 6.599 	-0.013 	-0.306
 6.135 	-0.778 	-0.115
 6.522 	0.919 	-0.622
 6.926 	0.520 	-0.080
 6.988 	0.549 	-0.318
 6.476 	1.293 	-0.483
 6.295 	1.282 	0.791
 6.689 	0.999 	0.253
 6.847 	1.223 	-0.812
 6.813 	0.529 	-0.551
 6.645 	-0.291 	-0.065
 6.280 	0.181 	0.534
 5.608 	-0.669 	-0.168
 5.707 	0.513 	-0.888
 6.158 	0.930 	-0.846
 6.080 	0.378 	0.229
 5.575 	-0.772 	0.676
 5.398 	-0.701 	-0.294
 5.524 	0.922 	-0.274
 5.542 	0.722 	0.539
 5.695 	0.857 	0.506
 5.617 	1.528 	0.806
 6.070 	1.625 	0.015
 5.926 	1.172 	0.863
 6.389 	1.391 	0.646
 5.382 	0.326 	0.315
 4.973 	0.484 	0.683
 4.390 	0.113 	0.979
 5.523 	-0.232 	-0.040
 6.479 	-0.372 	-0.725
 6.489 	0.380 	-0.664
 6.201 	-0.167 	-0.694
 5.544 	0.747 	-0.062
 5.016 	0.324 	0.137
 4.873 	0.873 	0.053
 5.150 	1.073 	0.806
 5.093 	1.353 	0.633
 5.400 	1.487 	0.876
 5.821 	1.694 	0.440
 5.768 	1.403 	0.877
 6.186 	1.575 	0.073
 4.875 	0.172 	0.452
 4.708 	0.295 	1.236
 4.796 	-0.003 	-0.399
 5.354 	0.087 	0.246
 5.698 	-0.238 	0.130
 5.658 	0.819 	-0.001
 6.998 	0.918 	-1.002
 6.480 	1.001 	-0.148
 6.011 	0.142 	0.629
 6.001 	0.772 	-0.538
 5.658 	1.250 	-0.064
 6.555 	0.517 	-0.224
 5.955 	1.255 	-0.592
 6.004 	1.509 	-0.320
 6.173 	1.887 	-0.649
 6.434 	1.345 	-0.776
 6.131 	0.056 	-0.458
 5.991 	-0.013 	0.407
 5.943 	0.323 	-0.085
 6.165 	0.805 	-0.836
 6.053 	-0.027 	-0.093
 5.790 	0.110 	-0.182
 5.744 	0.791 	0.510
 6.349 	1.276 	-0.000
 6.512 	0.779 	0.020
 6.684 	0.111 	-0.432
 7.210 	0.591 	-0.659
 6.951 	0.463 	-0.341
 6.964 	0.688 	-0.514
 7.407 	0.408 	-0.666
 6.927 	0.721 	0.475
 6.609 	1.012 	0.075
 5.886 	-0.377 	-0.237
 5.928 	-0.137 	-0.212
 6.314 	0.041 	-0.119
 6.374 	0.746 	-0.317
 6.813 	1.164 	-0.688
 6.515 	0.804 	-0.256
 6.222 	0.086 	-0.661
 6.818 	0.492 	-0.521
 6.816 	0.385 	-0.321
 6.753 	-0.126 	-0.180
 6.832 	0.527 	0.019
 7.255 	0.720 	-0.507
 6.755 	0.772 	-0.376
 6.023 	0.877 	0.463
 6.276 	-0.047 	0.717
 6.448 	0.868 	0.334
 5.410 	-0.095 	-0.129
 5.939 	0.063 	0.000
 5.510 	-0.050 	0.050
 5.146 	0.144 	0.345
 5.737 	0.821 	0.100
 6.095 	0.704 	-0.398
 5.248 	0.359 	0.267
 5.144 	0.409 	0.447
 5.546 	0.384 	0.099
 6.210 	0.123 	0.162
 5.974 	-0.100 	-0.055
 6.036 	0.762 	0.048
 6.023 	1.834 	0.064
 6.305 	1.098 	0.312
 6.439 	0.267 	-0.316
 6.816 	0.079 	-0.058
 5.312 	0.169 	0.075
 5.536 	0.475 	-0.107
 5.415 	0.497 	-0.029
 5.125 	0.327 	-0.277
 4.709 	0.788 	-0.066
 5.191 	0.728 	-0.330
 5.514 	0.001 	-0.395
 5.575 	0.225 	-0.279
 5.934 	0.275 	-0.318
 6.023 	-0.330 	-0.428
 6.118 	0.170 	0.136
 5.785 	0.840 	0.127
 6.222 	1.300 	-0.015
 6.673 	0.553 	-0.223
 7.173 	0.414 	-0.071
 6.515 	0.572 	0.099
 5.199 	-0.340 	-0.353
 5.517 	0.196 	-0.017
 5.612 	0.954 	-0.220
 5.698 	0.774 	-0.613
 5.854 	0.863 	-0.798
 6.258 	0.382 	-0.919
 6.179 	-0.094 	-0.628
 6.358 	0.053 	-0.374
 5.703 	-0.361 	-0.769
 5.750 	0.093 	-0.644
 5.393 	0.397 	-0.170
 5.534 	0.711 	0.091
 5.266 	0.134 	0.627
 5.359 	0.199 	0.539
 5.475 	0.103 	0.485
 5.957 	0.720 	0.209
 5.678 	-0.567 	0.099
 5.309 	-0.240 	-0.558
 5.245 	0.480 	-0.080
 5.790 	0.748 	-0.411
 5.565 	0.478 	-0.600
 5.195 	-0.191 	-0.513
 4.618 	-0.202 	0.282
 4.894 	0.183 	0.255
 5.050 	-0.027 	0.400
 5.323 	0.686 	0.350
 5.519 	1.002 	-0.218
 5.433 	0.505 	0.274
 5.268 	0.361 	0.197
 5.227 	-0.124 	0.385
 4.984 	0.221 	0.566
 5.172 	0.525 	0.539
 5.591 	-0.669 	0.131
 5.989 	-0.497 	-0.018
 5.944 	-0.207 	-0.771
 5.722 	0.588 	-0.563
 5.312 	0.033 	-0.830
 4.785 	0.639 	-0.274
 4.663 	0.179 	-0.262
 4.478 	0.364 	0.102
 4.513 	0.490 	0.527
 4.543 	0.763 	0.250
 4.925 	1.100 	0.382
 5.232 	1.062 	0.008
 5.147 	0.755 	-0.262
 5.009 	0.242 	-0.039
 4.661 	0.421 	-0.292
 4.721 	0.614 	0.015
 6.036 	-0.531 	0.065
 5.675 	-0.314 	0.157
 6.071 	-0.249 	-0.034
 5.751 	0.290 	-0.646
 5.883 	0.174 	-0.787
 5.856 	0.198 	-0.711
 5.882 	0.586 	-0.048
 4.989 	0.617 	-0.613
 5.346 	0.757 	-0.335
 4.790 	0.435 	-0.161
 4.606 	0.177 	-0.013
 4.881 	0.355 	0.051
 5.084 	0.428 	0.004
 5.216 	0.313 	-0.046
 5.158 	0.230 	-0.271
 5.425 	0.322 	-0.718
 5.364 	-0.592 	0.560
 5.449 	-0.351 	-0.053
 5.778 	0.006 	-0.036
 5.958 	0.074 	0.023
 5.517 	0.323 	-0.546
 5.623 	0.366 	-0.304
 5.731 	1.054 	-0.596
 5.985 	0.445 	-0.452
 5.277 	0.798 	-0.603
 4.616 	0.133 	0.088
 4.916 	-0.041 	0.064
 5.202 	-0.196 	0.159
 5.713 	0.119 	-0.179
 5.758 	0.388 	-0.153
 5.731 	0.152 	-0.229
 5.824 	0.184 	-0.156
 4.566 	-0.507 	0.746
 5.019 	-0.092 	0.740
 5.467 	0.237 	0.670
 5.106 	0.092 	0.388
 5.232 	0.149 	-0.307
 5.325 	0.589 	-0.209
 5.991 	0.473 	-0.856
 5.363 	0.871 	0.178
 5.068 	1.149 	-0.094
 5.185 	0.537 	-0.396
 5.191 	-0.095 	-0.178
 5.365 	-0.236 	0.218
 5.428 	0.112 	0.280
 5.564 	0.561 	-0.201
 5.947 	0.622 	-0.266
 5.733 	0.636 	-0.114
 5.217 	-0.306 	0.037
 4.637 	-0.399 	0.478
 4.747 	-0.014 	0.767
 4.900 	-0.039 	0.567
 5.015 	0.146 	0.126
 5.299 	0.379 	-0.380
 5.270 	0.634 	-0.275
 4.897 	1.396 	-0.008
 5.160 	1.197 	0.123
 5.235 	0.700 	-0.194
 5.296 	-0.037 	0.180
 5.456 	0.055 	0.300
 5.189 	0.173 	0.420
 5.210 	0.586 	0.233
 5.729 	0.611 	0.042
 5.731 	0.813 	-0.163
 5.924 	0.436 	0.244
 5.923 	0.524 	0.241
 6.767 	0.582 	0.745
 7.531 	1.993 	0.653
 7.166 	1.230 	0.411
 7.532 	1.374 	-0.352
 7.397 	0.958 	-0.423
 7.207 	0.653 	-0.486
 7.114 	0.391 	-0.263
 7.220 	0.045 	-0.439
 7.205 	0.164 	-0.413
 7.517 	-0.083 	-0.161
 7.348 	-0.051 	-0.498
 7.152 	-0.342 	0.178
 6.801 	0.699 	0.557
 7.149 	1.052 	-0.417
 6.338 	1.289 	0.350
 6.318 	0.831 	0.835
 6.614 	-0.399 	0.427
 6.735 	1.088 	0.264
 7.208 	1.653 	-0.019
 6.816 	0.720 	-0.137
 7.164 	0.742 	-0.045
 6.835 	1.131 	-0.247
 6.737 	-0.351 	0.075
 6.720 	-0.083 	-0.636
 6.152 	0.272 	-0.369
 6.600 	0.663 	-0.175
 6.327 	0.351 	-0.023
 6.477 	-0.444 	0.354
 7.240 	-0.020 	0.599
 7.225 	0.514 	-0.291
 6.539 	1.359 	-0.092
 7.165 	0.500 	-0.096
 7.501 	-0.247 	-0.014
 6.734 	0.638 	-0.013
 6.750 	0.976 	-0.321
 6.613 	0.975 	-0.416
 6.552 	0.690 	0.095
 6.481 	0.850 	-0.506
 6.486 	0.570 	0.206
 5.424 	0.283 	0.013
 5.455 	-0.260 	0.643
 5.620 	0.295 	0.673
 6.485 	-0.207 	0.541
 7.322 	-0.510 	-0.174
 6.817 	-0.233 	0.352
 6.837 	-0.584 	0.751
 6.212 	0.310 	0.736
 6.439 	0.476 	0.907
 7.312 	0.738 	0.130
 6.867 	0.748 	-0.420
 6.788 	0.885 	-0.607
 6.873 	0.854 	-0.062
 6.645 	0.854 	-0.113
 6.597 	0.156 	-0.896
 6.803 	1.030 	0.578
 5.751 	0.802 	0.110
 6.223 	0.752 	0.119
 6.452 	0.716 	-0.010
 7.005 	0.310 	0.464
 6.760 	-0.136 	-0.019
 6.914 	0.297 	0.283
 7.271 	0.204 	-0.003
 5.806 	-0.360 	0.663
 6.079 	0.292 	0.961
 6.727 	0.206 	-0.222
 6.171 	0.704 	-0.461
 6.492 	0.908 	-0.192
 7.460 	0.648 	-0.792
 7.453 	0.845 	-0.955
 6.835 	0.809 	-0.719
 6.846 	1.438 	0.355
 7.018 	1.000 	-0.028
 7.235 	0.960 	-0.557
 7.543 	1.384 	-0.351
 7.264 	1.130 	-0.352
 7.315 	0.410 	0.192
 7.597 	-0.048 	0.301
 7.581 	0.198 	-0.105
 6.045 	-0.204 	0.296
 6.492 	-0.385 	0.364
 6.268 	-0.281 	0.019
 6.762 	0.445 	-0.579
 7.087 	1.161 	-0.892
 6.547 	0.609 	-0.249
 6.835 	0.346 	-0.167
 7.560 	0.959 	-0.893
 7.323 	1.230 	-0.417
 7.875 	1.028 	-0.159
 7.517 	1.040 	-0.373
 7.255 	1.266 	-0.124
 7.438 	1.211 	-0.780
 7.388 	1.108 	-0.321
 7.211 	0.140 	0.290
 6.402 	0.081 	0.277
 6.202 	-0.303 	-0.318
 5.892 	-0.968 	-0.013
 5.972 	-0.380 	-0.235
 6.217 	-0.381 	-0.495
 6.965 	0.915 	-0.585
 7.389 	1.288 	-0.572
 6.821 	0.352 	-0.015
 6.627 	0.890 	0.146
 6.356 	1.362 	-0.162
 6.481 	0.419 	-0.062
 7.254 	0.644 	0.214
 7.456 	0.971 	-0.062
 7.042 	0.829 	-0.456
 6.877 	1.112 	0.177
 6.768 	0.593 	0.661
 6.867 	0.378 	0.203
 5.893 	-0.655 	-0.336
 5.953 	-0.675 	-0.389
 5.496 	-0.318 	-0.007
 5.464 	-0.432 	0.255
 6.347 	0.429 	0.294
 6.379 	0.954 	0.230
 6.323 	0.281 	0.275
 6.590 	0.688 	0.521
 6.877 	1.447 	-0.060
 7.188 	0.739 	0.255
 6.467 	0.024 	0.181
 6.706 	0.727 	-0.274
 6.532 	1.000 	0.024
 7.084 	1.357 	0.078
 7.245 	0.791 	-0.141
 7.050 	0.563 	0.130
 6.031 	-0.686 	-0.379
 6.599 	-0.226 	-0.743
 6.700 	0.105 	-0.607
 6.857 	-0.070 	-0.599
 6.339 	-0.283 	0.003
 6.062 	0.964 	-0.238
 5.776 	0.250 	-0.005
 5.697 	0.134 	0.116
 6.184 	0.991 	-0.217
 6.763 	1.219 	0.077
 5.752 	-0.206 	0.212
 5.817 	0.329 	0.348
 6.549 	1.245 	0.016
 6.563 	0.831 	0.342
 6.757 	0.451 	0.083
 6.318 	-0.091 	-0.049
 5.746 	-0.995 	-0.248
 5.831 	-0.243 	0.263
 6.230 	0.375 	0.037
 6.593 	-0.031 	-0.568
 6.906 	0.153 	-0.729
 6.482 	0.269 	-0.448
 6.572 	0.080 	-0.461
 6.312 	-0.035 	-0.048
 6.386 	0.364 	-0.237
 6.233 	0.340 	-0.319
 6.279 	0.313 	-0.193
 5.724 	0.143 	0.175
 5.511 	0.349 	0.746
 5.884 	0.481 	0.547
 6.020 	-0.113 	0.363
 5.954 	0.298 	0.482
 5.963 	-0.406 	-0.137
 5.784 	-0.169 	-0.172
 5.617 	0.342 	-0.126
 5.749 	-0.152 	-0.187
 5.719 	-0.296 	-0.437
 5.835 	0.062 	-0.382
 5.662 	-0.040 	0.366
 5.875 	0.100 	0.276
 6.453 	0.556 	-0.039
 6.593 	0.170 	-0.291
 6.257 	0.299 	-0.232
 6.091 	1.065 	-0.174
 6.120 	0.691 	0.171
 5.403 	0.400 	0.099
 5.553 	0.416 	0.191
 5.329 	0.226 	-0.111
 5.462 	-0.301 	0.083
 5.694 	-0.305 	0.010
 5.841 	-0.174 	-0.065
 5.814 	-0.253 	-0.649
 5.848 	-0.105 	-0.254
 5.674 	0.091 	-0.274
 5.973 	0.592 	-0.040
 5.659 	0.358 	-0.168
 5.666 	0.455 	-0.460
 4.542 	0.469 	0.195
 4.323 	0.503 	0.101
 4.545 	0.322 	-0.046
 5.184 	0.595 	-0.192
 5.145 	0.614 	-0.444
 4.732 	0.386 	-0.142
 5.144 	0.160 	0.169
 6.043 	-0.462 	0.225
 6.128 	-0.259 	-0.154
 6.237 	-0.207 	-0.235
 6.324 	-0.034 	-0.282
 6.193 	0.004 	-0.632
 6.067 	0.660 	-0.502
 5.658 	0.135 	-0.459
 5.645 	0.435 	-0.469
 4.961 	0.763 	-0.018
 4.714 	0.929 	0.655
 4.520 	0.591 	0.584
 5.093 	0.349 	-0.188
 5.052 	0.440 	0.056
 5.016 	0.702 	0.024
 5.656 	0.292 	-0.336
 6.083 	-0.018 	-0.619
 5.463 	-0.797 	0.513
 6.230 	-0.527 	-0.136
 6.480 	-0.340 	-0.663
 6.623 	-0.238 	0.147
 6.002 	0.142 	-0.324
 5.942 	0.489 	-0.384
 5.795 	0.308 	-0.560
 6.087 	0.831 	-0.672
 5.606 	1.224 	-0.468
 4.994 	0.961 	0.383
 5.557 	0.465 	0.012
 5.662 	0.665 	-0.242
 6.049 	0.780 	-0.250
 6.210 	0.762 	-0.314
 6.262 	0.350 	-0.428
 6.299 	0.146 	-0.217
 5.403 	-0.277 	0.352
 5.079 	-1.017 	0.434
 5.211 	-0.605 	0.040
 5.413 	-0.524 	0.532
 5.752 	0.033 	-0.008
 5.927 	0.488 	-0.384
 5.737 	0.288 	-0.486
 5.996 	0.608 	0.145
 6.150 	1.274 	-0.433
 6.224 	1.267 	-0.454
 6.239 	0.734 	-0.158
 6.050 	0.651 	0.124
 5.910 	0.818 	0.121
 6.163 	0.829 	-0.229
 6.083 	0.296 	-0.484
 6.138 	0.281 	-0.225
 5.936 	0.105 	0.084
 5.276 	-0.171 	0.192
 4.844 	-0.261 	0.721
 4.825 	-0.581 	0.594
 4.968 	-0.464 	0.102
 5.582 	0.049 	-0.197
 5.861 	-0.031 	-0.292
 5.689 	0.670 	0.005
 5.688 	1.117 	0.233
 5.907 	0.958 	-0.044
 5.943 	0.744 	0.140
 5.776 	0.777 	0.288
 5.761 	0.828 	0.106
 6.165 	0.999 	-0.033
 5.939 	0.711 	-0.255
 5.650 	0.404 	-0.354
 7.189 	1.346 	0.536
 7.192 	1.615 	0.726
 7.851 	1.064 	0.952
 7.530 	1.595 	1.177
 7.621 	2.104 	0.347
 7.533 	1.105 	-0.232
 7.565 	0.565 	-0.221
 7.633 	0.375 	-0.517
 7.892 	0.317 	-0.517
 8.090 	0.470 	-0.506
 7.833 	0.376 	-0.412
 8.136 	0.511 	-0.190
 8.057 	0.391 	-0.471
 8.141 	0.391 	0.267
 8.353 	-0.092 	0.406
 8.672 	0.094 	-0.688
 7.677 	0.778 	0.240
 7.852 	0.662 	0.360
 8.099 	1.101 	0.292
 7.246 	2.288 	0.269
 7.494 	1.778 	0.191
 7.243 	1.049 	0.186
 7.265 	0.679 	-0.138
 7.242 	0.658 	-0.314
 7.364 	0.459 	-0.386
 7.517 	0.407 	-0.272
 7.665 	0.410 	-0.277
 7.771 	0.333 	-0.270
 7.841 	0.203 	-0.232
 7.990 	0.319 	-0.074
 8.206 	0.660 	0.522
 8.284 	0.504 	-0.237
 7.053 	0.337 	0.336
 7.410 	0.588 	0.162
 7.382 	1.184 	0.369
 7.830 	1.822 	-0.029
 7.918 	1.709 	-0.447
 7.639 	1.112 	-0.168
 7.098 	1.079 	0.194
 7.098 	0.690 	-0.468
 7.325 	0.510 	-0.179
 7.525 	0.656 	-0.299
 7.576 	0.512 	-0.008
 7.487 	0.180 	-0.108
 7.436 	0.432 	-0.164
 7.666 	0.850 	0.041
 7.599 	1.295 	0.378
 7.569 	0.654 	0.025
 6.650 	-0.802 	1.050
 7.177 	-0.340 	0.621
 7.412 	0.640 	0.419
 7.482 	1.342 	-0.070
 7.729 	1.309 	-0.838
 7.798 	1.335 	-0.126
 7.300 	1.173 	-0.064
 7.317 	0.766 	-0.574
 7.620 	0.467 	-0.080
 7.755 	0.501 	-0.347
 7.689 	0.685 	-0.227
 7.431 	0.376 	-0.425
 7.482 	0.855 	-0.037
 7.606 	0.883 	-0.145
 7.681 	0.539 	-0.498
 7.782 	0.003 	0.014
 6.713 	-0.638 	0.748
 6.425 	-0.760 	0.798
 6.750 	0.542 	0.243
 6.943 	0.903 	-0.288
 7.317 	0.919 	-0.600
 7.781 	1.235 	-0.397
 7.731 	0.866 	-0.790
 7.744 	0.788 	-0.764
 7.531 	0.769 	-0.259
 7.562 	0.876 	-0.229
 7.592 	0.659 	-0.500
 7.360 	0.743 	-0.586
 7.834 	1.209 	-0.466
 7.562 	1.047 	-0.395
 7.373 	0.340 	0.104
 7.511 	0.169 	0.361