# vtk DataFile Version 3.0
HighT1
ASCII
DATASET STRUCTURED_POINTS
DIMENSIONS 16 16 19
ORIGIN 929.001000000000 929.001000000000 5.001000000000
SPACING 10.000000000000 10.000000000000 10.000000000000
POINT_DATA 4864
 FIELD attributes 1
U 3 4864 float
3.970 	0.452 	-0.029
 3.669 	1.252 	-0.094
 3.861 	-0.620 	-0.099
 3.987 	-1.240 	0.402
 4.133 	-1.270 	0.214
 3.290 	-1.009 	-0.040
 3.435 	-0.412 	0.162
 4.020 	-1.054 	0.115
 3.685 	0.175 	0.207
 4.277 	0.149 	-0.089
 3.800 	-0.759 	-0.199
 3.144 	-0.249 	0.297
 3.152 	0.135 	0.161
 3.448 	0.709 	0.126
 3.295 	0.356 	0.102
 3.278 	0.012 	0.203
 3.661 	0.872 	-0.181
 4.465 	0.276 	-0.167
 4.641 	-0.712 	-0.152
 4.800 	-0.839 	-0.299
 4.937 	-0.968 	-0.115
 4.768 	-1.004 	-0.145
 5.132 	-1.242 	0.082
 5.113 	-1.055 	-0.126
 3.927 	0.293 	0.560
 4.017 	0.273 	-0.089
 4.096 	-0.492 	-0.231
 4.073 	-0.462 	-0.074
 4.063 	0.379 	-0.185
 4.219 	0.404 	-0.020
 3.889 	0.257 	0.187
 3.715 	-0.173 	0.236
 3.487 	-0.078 	0.250
 3.892 	-0.599 	0.046
 4.478 	-1.053 	-0.122
 4.721 	-0.985 	-0.498
 4.953 	-0.157 	-0.747
 5.427 	-0.894 	-0.268
 6.063 	-0.593 	-0.269
 5.387 	-0.091 	0.089
 4.464 	0.453 	-0.063
 3.801 	0.142 	0.192
 2.737 	-0.007 	-0.076
 2.069 	0.080 	0.744
 1.905 	-0.116 	0.341
 2.505 	0.474 	0.554
 2.750 	0.047 	0.446
 3.423 	0.065 	0.004
 2.195 	-1.458 	0.663
 2.852 	-1.656 	-0.210
 3.595 	-1.148 	-0.397
 3.917 	0.057 	-0.400
 4.620 	-0.190 	-0.628
 5.478 	-0.345 	-0.838
 5.765 	0.533 	-0.225
 5.638 	0.176 	-0.476
 5.113 	0.736 	0.042
 4.116 	0.478 	0.042
 3.741 	0.971 	-0.296
 4.240 	0.567 	-0.353
 4.598 	-0.279 	-0.041
 5.107 	-0.122 	-0.031
 5.623 	0.078 	-0.473
 5.532 	-0.297 	-0.241
 3.808 	-0.281 	0.049
 3.145 	-0.595 	-0.189
 2.617 	-0.778 	0.465
 3.537 	-0.528 	0.462
 3.862 	0.010 	-0.156
 4.429 	1.122 	-0.057
 5.044 	1.551 	-0.668
 3.508 	0.242 	0.222
 3.796 	0.883 	0.180
 3.935 	0.579 	0.232
 3.711 	0.325 	-0.148
 4.845 	0.892 	-0.534
 5.693 	1.091 	-0.715
 6.091 	0.362 	-0.525
 5.799 	0.008 	-0.132
 5.388 	0.179 	-0.011
 3.591 	-0.767 	0.021
 3.902 	-0.543 	0.018
 3.335 	-0.138 	0.236
 3.124 	-0.288 	0.113
 3.126 	-0.061 	0.197
 3.040 	0.393 	0.411
 3.326 	0.691 	0.381
 3.434 	0.127 	0.219
 3.340 	-0.186 	0.103
 3.257 	-0.040 	0.260
 3.097 	-0.114 	0.317
 3.468 	0.274 	-0.024
 4.263 	0.794 	-0.054
 5.197 	0.966 	-0.263
 5.306 	0.509 	-0.016
 5.117 	0.291 	0.036
 4.368 	-0.954 	-0.130
 4.014 	-0.270 	-0.049
 2.679 	0.223 	-0.133
 2.257 	0.466 	0.275
 2.375 	0.470 	-0.016
 2.350 	0.008 	0.192
 2.879 	-0.224 	0.202
 3.326 	-0.452 	0.239
 3.757 	-0.905 	0.123
 3.762 	-0.598 	-0.050
 3.978 	-0.757 	0.150
 3.910 	-0.313 	0.110
 4.324 	0.334 	0.179
 4.572 	0.742 	0.069
 4.810 	0.474 	0.031
 4.624 	0.244 	0.329
 4.028 	0.259 	0.305
 3.719 	0.659 	0.016
 3.687 	0.627 	0.154
 3.877 	0.996 	-0.238
 3.553 	0.228 	-0.001
 3.930 	0.378 	-0.312
 4.177 	0.278 	-0.388
 3.879 	0.214 	-0.287
 4.158 	-0.178 	-0.211
 4.306 	-0.540 	-0.130
 4.451 	-0.590 	-0.092
 4.478 	-0.560 	0.106
 4.672 	0.076 	-0.135
 5.133 	0.025 	-0.110
 5.648 	0.294 	-0.013
 5.878 	0.316 	-0.474
 3.452 	0.340 	0.093
 3.207 	0.574 	-0.007
 3.436 	0.608 	0.066
 4.011 	0.130 	0.134
 4.251 	0.306 	-0.091
 4.638 	-0.058 	-0.494
 5.096 	0.031 	0.234
 4.569 	0.689 	0.095
 4.234 	0.385 	0.016
 4.573 	-0.193 	-0.086
 4.588 	-0.167 	-0.028
 5.224 	-0.499 	-0.080
 4.997 	-0.257 	0.094
 5.120 	0.015 	-0.064
 5.324 	0.046 	-0.014
 5.458 	-0.076 	0.156
 3.766 	0.563 	0.105
 3.687 	0.644 	0.044
 3.388 	0.544 	-0.085
 3.106 	-0.159 	0.087
 3.931 	0.127 	-0.157
 3.603 	0.215 	-0.143
 3.677 	0.146 	0.058
 3.988 	0.513 	0.032
 4.118 	0.466 	0.086
 3.695 	-0.130 	0.141
 4.261 	-0.376 	-0.082
 4.420 	-0.489 	0.106
 4.626 	-0.127 	-0.092
 4.980 	-0.152 	-0.189
 4.982 	-0.089 	0.028
 4.633 	-0.374 	-0.013
 4.039 	0.642 	-0.358
 4.458 	0.671 	-0.144
 4.650 	0.589 	-0.234
 4.792 	0.850 	-0.120
 4.436 	0.585 	-0.189
 4.439 	0.782 	-0.204
 5.127 	0.309 	-0.316
 4.853 	-0.324 	0.244
 4.632 	-0.514 	0.109
 4.581 	0.252 	-0.139
 5.078 	0.157 	-0.540
 4.359 	-0.234 	0.011
 2.720 	-0.037 	0.432
 2.961 	-0.025 	0.520
 3.487 	-0.605 	0.457
 4.110 	-1.082 	0.537
 3.653 	0.454 	0.195
 3.774 	0.472 	0.130
 4.670 	0.778 	-0.004
 4.648 	0.967 	-0.129
 4.757 	1.208 	-0.097
 5.155 	1.127 	-0.312
 5.237 	0.782 	-0.433
 4.189 	-0.513 	0.362
 4.178 	0.308 	-0.030
 4.588 	0.099 	-0.304
 5.098 	0.991 	-0.478
 4.408 	0.562 	0.528
 4.556 	-0.561 	-0.087
 4.765 	-0.751 	-0.015
 4.723 	-0.757 	-0.301
 5.023 	-0.766 	-0.316
 3.488 	0.102 	0.133
 3.621 	-0.464 	0.099
 3.931 	-0.199 	0.087
 3.928 	0.318 	-0.006
 4.498 	0.920 	-0.159
 4.798 	1.071 	0.065
 3.599 	0.589 	0.392
 3.218 	0.417 	0.357
 2.701 	-0.095 	0.408
 2.777 	0.250 	0.761
 3.009 	0.726 	0.355
 4.161 	0.361 	-0.547
 4.259 	0.043 	-0.211
 3.995 	-0.270 	-0.181
 4.225 	-0.353 	-0.542
 4.710 	0.062 	-0.362
 4.769 	0.540 	-0.189
 4.532 	0.063 	-0.150
 4.316 	-0.292 	0.163
 4.120 	-0.151 	0.082
 3.813 	1.034 	-0.169
 3.596 	0.642 	0.008
 4.413 	0.028 	-0.350
 5.467 	-0.110 	-0.340
 5.739 	0.035 	-0.263
 5.247 	0.051 	-0.017
 3.846 	0.083 	0.196
 4.202 	1.139 	-0.016
 3.809 	0.512 	0.271
 4.399 	-0.273 	-0.168
 3.824 	0.509 	0.516
 3.889 	-0.156 	-0.026
 4.657 	0.303 	-0.506
 3.953 	0.049 	0.285
 3.930 	-0.233 	0.023
 3.520 	-0.372 	0.019
 3.846 	0.316 	0.114
 4.142 	-0.206 	-0.001
 4.286 	0.116 	0.198
 4.700 	-0.012 	0.182
 5.247 	0.417 	-0.517
 5.681 	1.007 	-0.497
 5.449 	0.456 	0.176
 5.311 	0.464 	-0.230
 4.918 	0.578 	0.166
 4.597 	0.039 	-0.132
 3.813 	0.339 	0.173
 3.349 	0.500 	0.199
 2.716 	0.398 	0.071
 3.149 	-0.207 	0.341
 2.829 	-0.272 	-0.122
 2.343 	-0.073 	0.147
 2.103 	0.210 	0.284
 2.564 	-0.255 	-0.020
 2.736 	-0.845 	-0.076
 3.179 	-0.899 	0.463
 4.590 	0.314 	-0.141
 5.052 	0.853 	0.003
 5.211 	0.904 	0.300
 4.542 	0.795 	-0.123
 5.096 	0.162 	-0.295
 5.274 	1.068 	-0.528
 4.378 	0.555 	0.204
 4.722 	-0.334 	-0.057
 4.715 	1.231 	0.452
 4.142 	1.183 	0.794
 4.144 	0.556 	0.729
 4.412 	-0.089 	0.417
 4.560 	-0.861 	-0.092
 3.472 	0.017 	0.255
 5.262 	-1.290 	-0.770
 4.956 	-0.367 	0.968
 4.221 	0.010 	0.207
 3.671 	0.472 	-0.250
 4.671 	0.451 	0.128
 5.174 	-0.564 	-0.968
 5.151 	-0.467 	-0.739
 4.473 	-0.733 	0.338
 4.551 	0.459 	0.452
 4.104 	1.027 	0.611
 4.192 	0.254 	0.462
 4.632 	0.572 	0.626
 5.098 	-0.336 	0.539
 4.883 	-0.192 	0.057
 4.787 	-0.228 	-0.082
 5.375 	-0.535 	-0.552
 5.650 	-1.546 	-0.848
 5.412 	-0.433 	1.049
 4.681 	-0.375 	-0.239
 4.342 	0.930 	0.463
 4.415 	0.894 	-0.116
 4.817 	0.021 	-0.298
 5.135 	-0.282 	-0.316
 5.136 	-0.222 	-0.892
 5.200 	0.435 	0.141
 4.736 	0.501 	0.552
 5.324 	-1.258 	1.097
 5.746 	-1.193 	0.862
 5.175 	-0.361 	0.299
 5.317 	-0.197 	-0.476
 5.517 	-0.882 	-0.485
 5.959 	-0.643 	-0.933
 6.345 	-1.394 	-0.810
 5.595 	-0.288 	0.497
 5.261 	0.427 	0.806
 5.258 	1.047 	-0.278
 5.074 	0.884 	-0.165
 4.921 	-0.235 	-0.325
 5.045 	0.192 	-0.104
 4.754 	0.353 	-0.172
 4.835 	0.643 	0.130
 5.398 	0.683 	-0.116
 5.924 	-0.821 	0.305
 5.729 	-0.664 	-0.510
 4.792 	-0.415 	-0.766
 6.296 	-1.355 	-0.838
 5.814 	-1.009 	-0.870
 5.678 	-1.074 	-0.976
 5.938 	-0.744 	-0.493
 6.521 	0.050 	-1.050
 6.301 	-0.219 	0.260
 5.399 	0.994 	0.891
 5.201 	0.738 	0.120
 5.690 	0.552 	-0.855
 5.538 	0.533 	-0.325
 5.515 	0.353 	-0.349
 5.610 	0.216 	0.074
 6.078 	-0.020 	-0.241
 5.976 	-0.261 	0.223
 5.189 	-0.385 	-0.392
 5.969 	-0.274 	-0.332
 5.445 	-0.890 	-0.137
 5.570 	-1.177 	-0.441
 5.097 	-1.140 	-0.980
 5.519 	-0.964 	-1.100
 6.394 	1.325 	-0.182
 4.362 	0.296 	1.275
 4.283 	-0.102 	1.064
 5.454 	0.240 	-0.326
 5.852 	0.411 	-0.859
 6.119 	-0.058 	-1.148
 6.631 	0.711 	-0.694
 6.401 	0.479 	-0.121
 6.115 	0.005 	-0.088
 6.029 	0.400 	-0.278
 5.337 	-0.502 	-0.051
 5.734 	-0.754 	-0.074
 5.922 	-0.514 	-0.749
 5.613 	-0.729 	-0.067
 5.631 	-0.339 	-0.505
 4.746 	-0.151 	0.314
 4.564 	1.190 	0.993
 5.192 	0.412 	0.438
 4.974 	0.144 	0.176
 5.310 	0.189 	-0.422
 5.922 	0.569 	-0.660
 6.039 	0.497 	-0.738
 6.158 	0.381 	-0.475
 6.046 	0.427 	0.173
 5.913 	0.615 	-0.024
 6.240 	0.139 	-0.830
 6.046 	-0.106 	-0.382
 5.607 	-0.086 	0.078
 5.072 	-0.425 	-0.007
 5.474 	0.236 	-0.534
 4.626 	0.425 	0.180
 4.773 	1.337 	-0.041
 5.214 	0.610 	-0.345
 5.126 	0.710 	0.025
 5.432 	0.352 	-0.248
 5.331 	0.224 	0.106
 5.597 	0.459 	-0.320
 5.726 	0.334 	-0.167
 5.945 	0.596 	-0.121
 5.980 	0.741 	0.160
 6.115 	0.769 	0.354
 5.475 	-0.351 	0.184
 6.126 	0.308 	-0.076
 5.579 	-0.044 	0.328
 5.494 	-0.194 	-0.558
 5.888 	0.522 	0.107
 5.415 	1.007 	-0.295
 5.461 	0.481 	-0.333
 5.181 	0.450 	-0.137
 5.239 	0.201 	-0.125
 4.602 	0.029 	0.039
 4.313 	0.183 	-0.079
 4.277 	0.339 	-0.083
 4.785 	0.451 	0.001
 5.243 	0.279 	-0.225
 5.661 	0.179 	-0.496
 5.755 	0.125 	-0.149
 5.412 	0.232 	0.026
 5.230 	-0.162 	0.265
 4.810 	-0.018 	-0.082
 4.928 	0.478 	-0.005
 4.210 	0.582 	0.171
 4.325 	0.291 	0.069
 4.840 	-0.073 	0.317
 5.453 	-0.373 	0.034
 5.460 	0.013 	0.074
 5.390 	0.368 	-0.215
 5.351 	0.109 	-0.481
 5.628 	-0.165 	-0.495
 5.352 	-0.044 	-0.195
 5.817 	-0.127 	-0.102
 6.209 	0.003 	0.136
 5.744 	-0.093 	0.068
 4.696 	0.141 	-0.010
 5.178 	0.227 	-0.025
 4.630 	0.340 	-0.125
 4.722 	0.578 	-0.145
 5.019 	-0.001 	-0.156
 5.083 	-0.200 	-0.368
 4.441 	-0.030 	0.408
 4.411 	-0.774 	0.807
 4.751 	-0.186 	0.116
 5.260 	0.285 	-0.064
 5.562 	0.164 	-0.509
 5.693 	0.170 	-0.220
 5.454 	-0.122 	0.070
 6.198 	-0.326 	-0.052
 5.704 	-0.182 	0.201
 5.265 	-0.294 	0.498
 4.194 	-0.203 	0.261
 4.535 	-0.416 	-0.020
 4.905 	0.489 	-0.213
 4.706 	0.261 	-0.377
 5.235 	0.161 	-0.821
 4.535 	-0.126 	0.040
 5.573 	0.515 	-0.517
 4.972 	-0.548 	0.334
 5.610 	0.088 	-0.283
 5.297 	0.250 	-0.609
 5.232 	-0.223 	-0.429
 5.639 	0.292 	0.135
 5.856 	-0.302 	0.318
 5.829 	-0.257 	0.423
 5.478 	-0.100 	-0.125
 5.341 	-0.116 	0.337
 4.817 	-0.941 	0.319
 4.574 	-1.213 	0.033
 4.609 	-0.268 	0.333
 4.368 	0.080 	0.375
 4.831 	-0.120 	-0.280
 5.823 	0.227 	-0.808
 5.066 	-0.349 	-0.574
 4.847 	-0.500 	1.045
 5.163 	-0.181 	0.126
 5.496 	0.253 	-0.018
 5.876 	0.173 	-0.200
 6.148 	0.275 	-0.071
 6.182 	0.102 	-0.131
 6.272 	-0.137 	-0.339
 5.888 	-0.161 	-0.441
 5.937 	-0.061 	-0.048
 5.331 	-0.376 	0.077
 4.651 	-0.298 	-0.313
 4.413 	-0.076 	0.261
 3.868 	-0.153 	0.600
 4.508 	-0.678 	0.009
 4.327 	-0.208 	0.102
 4.902 	-0.200 	-0.041
 5.686 	-0.402 	-0.058
 6.066 	-0.480 	0.084
 5.924 	-0.495 	0.459
 5.824 	-0.527 	-0.469
 5.574 	-0.071 	-0.561
 5.614 	-0.371 	-0.493
 5.983 	-0.420 	-0.365
 6.409 	0.062 	-0.091
 5.495 	0.164 	-0.170
 4.580 	-0.179 	0.060
 4.652 	0.046 	0.013
 4.295 	-0.220 	0.201
 5.052 	0.076 	-0.082
 5.019 	-0.243 	-0.025
 5.308 	0.115 	-0.126
 4.674 	-0.653 	-0.204
 5.016 	-0.732 	-0.119
 5.184 	-0.702 	-0.293
 5.674 	-0.152 	0.006
 6.422 	0.097 	0.137
 6.114 	-0.115 	-0.046
 5.239 	-0.686 	-0.109
 5.925 	-0.189 	0.160
 5.758 	-0.084 	0.207
 6.150 	-0.087 	-0.310
 5.226 	-0.237 	-0.211
 4.830 	-0.147 	0.364
 4.747 	0.515 	0.291
 4.664 	-0.041 	-0.169
 4.875 	0.122 	0.218
 4.378 	-0.224 	0.216
 4.135 	-1.157 	0.145
 4.578 	-1.280 	0.263
 4.857 	-1.069 	-0.068
 4.549 	-0.895 	-0.074
 5.169 	-0.167 	-0.074
 5.390 	0.491 	0.266
 5.610 	-0.016 	0.339
 4.993 	-0.438 	-0.312
 5.394 	0.098 	0.204
 6.330 	0.379 	-0.198
 4.603 	-0.065 	0.029
 4.051 	0.071 	0.514
 3.469 	0.048 	0.203
 3.336 	-0.165 	0.444
 3.795 	0.109 	0.538
 4.382 	-0.981 	-0.043
 5.276 	-0.957 	-0.670
 4.683 	-1.489 	-0.177
 4.677 	-1.210 	-0.078
 4.502 	-0.893 	0.104
 4.402 	-0.302 	-0.097
 4.853 	0.378 	-0.156
 4.761 	-0.079 	-0.255
 4.323 	-0.246 	-0.908
 5.322 	0.683 	-0.641
 5.763 	0.836 	0.363
 4.872 	1.488 	0.882
 4.782 	1.372 	0.739
 5.622 	1.790 	1.212
 5.343 	0.950 	0.650
 4.834 	0.446 	-0.480
 4.990 	-0.293 	-0.167
 5.749 	-1.609 	-1.377
 5.128 	-0.235 	2.102
 6.439 	-1.227 	-1.163
 6.408 	-0.801 	-0.123
 6.170 	-0.059 	-0.809
 6.250 	-0.293 	-0.357
 6.232 	-0.650 	-0.243
 5.649 	-0.784 	-0.286
 5.702 	-0.312 	-0.174
 5.682 	0.370 	0.524
 4.574 	1.606 	1.209
 4.988 	1.695 	1.351
 5.389 	1.241 	0.765
 4.945 	0.615 	0.114
 5.395 	0.599 	-0.317
 5.553 	0.068 	-0.700
 5.716 	-0.881 	-0.905
 5.986 	-0.304 	1.096
 6.844 	-1.323 	0.755
 7.053 	-0.875 	-0.464
 7.208 	-0.713 	-0.877
 6.932 	-0.484 	-0.776
 6.127 	-0.700 	-0.100
 5.476 	-0.140 	-0.313
 5.359 	0.340 	0.205
 4.960 	0.633 	0.774
 4.377 	1.401 	0.549
 5.061 	1.098 	0.412
 5.476 	1.192 	-0.090
 5.346 	0.949 	-0.539
 5.612 	0.528 	-0.553
 6.154 	0.145 	-0.730
 6.052 	-0.778 	-0.846
 6.123 	-0.826 	-0.474
 6.354 	-0.750 	1.051
 6.736 	-0.387 	-0.401
 6.898 	-0.304 	-0.580
 6.600 	-0.236 	-0.517
 6.633 	-0.421 	-0.450
 5.806 	-0.012 	-0.173
 5.372 	0.823 	0.092
 5.611 	1.103 	0.126
 5.125 	1.745 	-0.269
 5.579 	1.232 	-0.736
 6.119 	1.456 	-0.454
 5.782 	0.417 	-0.743
 6.713 	-0.218 	-0.507
 6.503 	-0.252 	-0.613
 6.430 	-0.720 	-0.879
 6.828 	-0.744 	-1.067
 6.510 	-0.263 	1.058
 6.390 	0.326 	0.290
 6.809 	0.173 	-0.698
 6.533 	-0.300 	-1.018
 6.299 	0.408 	-0.533
 6.004 	0.599 	-0.267
 5.958 	0.549 	0.256
 6.178 	-0.008 	-0.097
 5.413 	1.618 	0.478
 5.533 	1.093 	-0.130
 5.862 	1.046 	-0.486
 6.744 	-0.094 	-0.017
 6.423 	-0.710 	-0.221
 6.643 	-0.526 	-0.858
 6.164 	-1.305 	-0.651
 5.088 	0.026 	-0.057
 5.505 	1.047 	1.056
 6.415 	0.606 	0.051
 6.660 	0.338 	-0.720
 6.718 	-0.155 	-0.833
 6.243 	0.323 	-0.935
 6.156 	0.785 	-0.336
 5.948 	0.316 	0.169
 6.305 	0.217 	-0.002
 6.248 	0.489 	0.230
 6.147 	0.407 	0.420
 6.648 	-0.129 	-0.118
 6.636 	-0.492 	-0.750
 6.769 	-0.547 	-0.823
 6.525 	-0.481 	-0.724
 5.811 	0.003 	-0.259
 5.207 	1.106 	0.948
 5.944 	0.876 	0.304
 6.035 	-0.058 	0.307
 6.426 	0.153 	-0.062
 6.646 	0.230 	-0.316
 6.527 	0.228 	-0.906
 6.555 	0.374 	-0.785
 6.673 	0.243 	-0.267
 6.294 	0.237 	0.334
 6.456 	0.092 	-0.198
 5.911 	-0.468 	-0.003
 6.066 	-0.360 	-0.040
 6.266 	-0.450 	-0.378
 6.505 	0.212 	-0.517
 6.500 	0.387 	-0.729
 6.371 	0.182 	-0.364
 5.915 	0.896 	0.140
 5.208 	0.094 	0.442
 5.106 	-0.314 	0.117
 5.139 	-0.669 	-0.141
 5.351 	-0.312 	-0.312
 5.306 	0.036 	-0.186
 5.503 	0.348 	0.012
 5.637 	0.059 	0.456
 5.727 	-0.027 	0.608
 5.782 	-0.056 	-0.142
 5.945 	-0.359 	-0.127
 6.300 	-0.147 	-0.308
 5.289 	-0.391 	-0.284
 4.913 	-0.136 	-0.146
 5.322 	0.288 	0.078
 6.011 	1.265 	0.299
 6.038 	1.129 	0.313
 5.779 	0.358 	0.046
 5.806 	0.033 	0.039
 5.780 	-0.215 	-0.359
 5.492 	-0.062 	-0.088
 5.541 	-0.213 	0.074
 5.879 	0.140 	0.064
 6.140 	-0.163 	-0.072
 6.152 	-0.042 	0.304
 5.971 	0.089 	-0.514
 5.672 	0.143 	0.200
 5.597 	0.115 	0.218
 5.105 	0.838 	0.103
 4.886 	0.535 	0.136
 4.641 	0.274 	0.212
 5.200 	0.522 	0.263
 5.843 	0.522 	0.167
 6.447 	0.014 	0.233
 6.585 	0.079 	0.001
 6.237 	0.215 	-0.526
 6.006 	0.194 	-0.423
 5.579 	-0.297 	-0.115
 5.628 	-0.498 	0.071
 5.888 	-0.430 	-0.210
 6.257 	-0.194 	0.098
 4.536 	-0.121 	0.242
 4.372 	-0.253 	0.354
 4.937 	-0.476 	0.477
 5.155 	0.590 	0.165
 5.369 	0.994 	0.308
 5.381 	0.320 	0.018
 5.097 	-0.375 	-0.028
 5.471 	0.012 	-0.015
 6.171 	0.051 	-0.188
 6.192 	0.284 	0.069
 5.800 	0.559 	-0.254
 5.764 	0.317 	-0.217
 5.917 	-0.695 	0.284
 5.548 	-0.943 	0.140
 4.806 	-0.450 	0.942
 5.550 	-0.261 	0.380
 4.970 	-0.172 	0.710
 5.160 	-0.509 	0.647
 4.819 	-1.032 	0.432
 4.914 	-0.208 	0.112
 5.699 	0.015 	-0.018
 5.434 	0.362 	-0.194
 5.376 	-0.566 	0.037
 5.614 	-0.458 	-0.239
 5.391 	-0.175 	-0.140
 5.696 	0.195 	-0.359
 5.983 	0.630 	-0.270
 6.095 	-0.178 	0.013
 6.455 	-0.621 	0.064
 6.330 	-0.663 	-0.159
 6.359 	-0.213 	0.225
 6.346 	-0.405 	-0.087
 4.838 	-0.628 	-0.348
 4.574 	-0.718 	-0.405
 5.066 	-1.326 	0.022
 5.637 	-1.186 	-0.046
 5.811 	-0.984 	-0.351
 5.774 	-0.630 	-0.652
 5.659 	-0.542 	-0.402
 5.285 	-0.349 	0.818
 5.562 	-0.253 	0.238
 5.725 	-0.676 	0.079
 6.064 	-0.419 	-0.042
 5.996 	-0.451 	0.070
 6.192 	-0.528 	-0.144
 6.098 	-0.574 	-0.189
 6.501 	-0.788 	-0.360
 7.095 	-0.411 	-0.487
 5.169 	-0.517 	-0.175
 5.440 	-0.466 	-0.334
 5.679 	-0.520 	-0.178
 5.954 	-0.431 	-0.232
 5.527 	-0.368 	-0.423
 5.360 	-0.541 	-0.490
 5.320 	-0.392 	0.039
 5.867 	-0.368 	0.186
 6.438 	-0.266 	0.244
 6.106 	-0.668 	0.050
 5.995 	-0.404 	-0.065
 6.048 	-0.133 	-0.079
 6.236 	-0.452 	-0.436
 6.269 	-0.742 	-0.764
 6.437 	-0.325 	-0.402
 6.357 	-0.172 	-0.145
 5.052 	-0.498 	0.050
 5.197 	-0.254 	0.170
 4.970 	-0.552 	0.153
 4.988 	-0.216 	0.144
 4.996 	-0.429 	0.025
 4.772 	-0.596 	0.287
 4.930 	-0.689 	0.230
 4.969 	-1.218 	0.114
 4.777 	-1.454 	0.199
 5.394 	-1.020 	-0.118
 5.366 	-0.583 	-0.197
 5.425 	-0.625 	-0.061
 5.432 	-0.508 	-0.140
 5.334 	-0.388 	-0.356
 5.412 	-0.154 	-0.136
 5.967 	-0.091 	-0.562
 5.053 	-0.481 	0.265
 4.638 	-0.289 	0.266
 4.883 	-0.574 	-0.116
 5.014 	-0.015 	0.207
 5.142 	-0.290 	0.170
 5.262 	-0.784 	-0.105
 5.322 	-1.026 	0.025
 5.714 	-0.933 	0.240
 5.179 	-1.635 	0.008
 5.007 	-1.240 	0.136
 4.875 	-0.684 	-0.058
 5.341 	-0.175 	0.272
 5.429 	-0.161 	0.055
 5.685 	-0.547 	-0.557
 5.452 	-0.437 	-0.565
 5.401 	0.027 	-0.424
 4.616 	-0.218 	0.266
 4.773 	-0.388 	0.353
 4.656 	-0.041 	0.320
 5.237 	-0.325 	0.168
 5.448 	-0.274 	0.177
 5.835 	-0.833 	-0.205
 6.097 	-1.211 	-0.811
 6.160 	-1.221 	-0.199
 5.972 	-1.096 	-0.115
 5.939 	-1.263 	-0.004
 5.725 	-0.830 	-0.095
 4.794 	-0.383 	0.031
 4.739 	-0.488 	-0.598
 4.736 	-0.315 	-0.664
 4.845 	-0.288 	-0.544
 5.069 	-0.248 	-0.391
 5.508 	-0.209 	0.283
 5.598 	0.225 	-0.183
 5.286 	1.692 	0.504
 5.596 	1.734 	0.963
 6.201 	1.698 	-0.197
 6.262 	1.279 	-1.076
 5.511 	0.247 	-0.628
 6.122 	-0.961 	-0.103
 6.502 	-1.061 	-0.420
 6.444 	-0.877 	-0.031
 5.957 	-0.197 	-0.163
 6.295 	0.616 	-0.277
 6.086 	0.165 	-0.518
 6.384 	-0.523 	0.057
 5.608 	-0.989 	-0.095
 5.461 	0.545 	0.464
 4.878 	0.365 	0.392
 4.835 	1.109 	0.882
 5.203 	1.697 	0.919
 5.862 	1.685 	-0.013
 6.165 	1.504 	-0.928
 6.112 	0.897 	-0.812
 6.423 	0.232 	-0.519
 6.794 	-0.881 	-0.356
 6.947 	-1.213 	-0.011
 7.058 	-0.734 	-0.541
 6.392 	-0.206 	-0.191
 6.285 	0.048 	-0.204
 6.158 	-0.358 	-0.019
 6.721 	-0.508 	-0.183
 6.014 	0.203 	-0.149
 5.089 	0.510 	0.567
 5.793 	1.885 	-0.112
 5.858 	2.001 	-0.425
 5.761 	1.892 	0.039
 6.855 	1.014 	-0.781
 7.024 	1.064 	-0.935
 7.150 	0.295 	-0.765
 6.735 	0.305 	-0.818
 6.861 	-0.665 	-0.393
 7.211 	-0.987 	-0.286
 7.266 	-0.579 	-0.353
 7.052 	-0.528 	-0.727
 6.681 	-0.124 	-0.323
 6.427 	-0.235 	-0.452
 6.674 	-0.051 	-0.151
 5.623 	0.339 	-0.283
 5.640 	0.870 	0.035
 5.413 	1.085 	0.283
 5.749 	1.787 	-0.198
 6.409 	1.716 	-0.314
 7.043 	0.688 	-0.501
 7.005 	0.391 	-0.156
 6.959 	0.528 	-0.292
 6.871 	0.173 	-0.793
 6.855 	-0.640 	-0.494
 7.045 	-0.577 	-0.139
 7.112 	-0.474 	0.089
 7.169 	-0.522 	-0.825
 7.048 	0.177 	-0.824
 6.752 	0.201 	-0.753
 5.874 	0.713 	-0.065
 5.494 	0.879 	0.380
 5.886 	0.529 	0.318
 5.542 	0.526 	0.417
 6.085 	0.388 	-0.088
 6.373 	0.855 	0.065
 6.797 	0.717 	0.052
 6.706 	0.593 	-0.109
 6.699 	0.391 	-0.631
 7.016 	0.014 	-1.005
 6.999 	-0.617 	-0.379
 6.786 	-0.252 	0.222
 6.924 	-0.355 	-0.007
 6.813 	0.083 	-0.455
 6.703 	0.320 	-0.514
 6.265 	0.548 	-0.481
 6.324 	0.761 	-0.023
 6.236 	0.381 	-0.064
 6.325 	0.344 	-0.318
 6.279 	0.355 	0.617
 6.467 	-0.056 	0.584
 6.836 	0.266 	-0.138
 6.760 	0.413 	-0.227
 7.482 	0.269 	-0.663
 7.178 	0.117 	-0.792
 7.209 	0.176 	-0.705
 6.915 	-0.084 	0.415
 6.341 	-0.070 	0.541
 6.346 	-0.127 	0.446
 6.170 	-0.253 	0.159
 6.263 	0.018 	-0.329
 6.689 	0.270 	-0.493
 6.855 	0.140 	-0.329
 6.712 	0.290 	0.086
 6.473 	0.369 	0.528
 6.627 	0.579 	-0.064
 6.903 	0.213 	0.031
 7.071 	0.455 	-0.923
 7.198 	0.191 	-0.715
 7.169 	0.036 	-0.253
 6.946 	0.517 	-0.536
 6.917 	0.174 	-0.674
 6.775 	0.279 	0.278
 6.701 	0.540 	0.525
 6.327 	0.133 	0.162
 6.154 	-0.180 	-0.089
 6.216 	-0.448 	-0.114
 6.439 	-0.344 	-0.350
 6.616 	-0.005 	-0.615
 6.617 	0.396 	0.040
 6.939 	0.234 	0.389
 6.911 	0.608 	-0.154
 6.798 	0.461 	-0.269
 6.945 	0.355 	-0.157
 6.480 	0.260 	-0.040
 6.302 	-0.053 	-0.057
 6.589 	0.400 	-0.718
 6.457 	-0.184 	-0.276
 6.360 	0.727 	0.652
 6.466 	0.628 	0.175
 6.933 	0.352 	-0.360
 6.991 	0.008 	-0.402
 6.957 	-0.121 	-0.212
 6.150 	0.244 	0.014
 6.118 	0.563 	0.329
 6.727 	0.549 	0.209
 6.892 	0.307 	-0.158
 6.114 	0.050 	-0.351
 6.227 	0.343 	-0.115
 6.156 	0.144 	-0.034
 6.115 	0.370 	0.006
 6.055 	0.432 	-0.264
 5.598 	0.855 	0.159
 5.205 	-0.087 	0.131
 6.045 	-0.275 	0.125
 6.620 	0.140 	-0.149
 7.216 	0.238 	0.091
 6.952 	0.173 	-0.109
 6.376 	0.155 	-0.027
 6.246 	0.446 	0.042
 6.288 	0.381 	0.249
 6.593 	0.216 	-0.084
 6.762 	0.242 	-0.081
 5.248 	0.001 	0.489
 5.093 	0.054 	0.547
 5.513 	0.314 	0.427
 5.701 	0.260 	0.272
 5.893 	0.638 	0.130
 6.011 	1.074 	0.422
 5.928 	0.128 	0.141
 5.114 	-0.794 	0.327
 5.929 	0.033 	-0.137
 6.499 	0.240 	-0.200
 6.731 	0.467 	-0.011
 5.890 	0.310 	0.397
 5.283 	0.053 	0.476
 5.651 	-0.291 	0.561
 5.964 	-0.262 	0.274
 6.421 	-0.262 	0.251
 4.355 	0.437 	0.617
 4.570 	0.346 	0.290
 4.625 	0.386 	0.317
 5.006 	0.137 	0.512
 5.486 	0.782 	0.662
 5.580 	0.679 	0.146
 5.625 	-0.423 	-0.195
 6.090 	-0.814 	0.038
 6.048 	-0.790 	-0.133
 5.300 	-0.516 	0.124
 5.738 	0.148 	0.323
 5.702 	0.375 	0.347
 5.689 	0.013 	0.151
 6.325 	-0.737 	0.035
 6.882 	-0.754 	0.273
 6.993 	-0.829 	-0.277
 4.135 	0.640 	0.234
 4.364 	0.680 	0.159
 4.437 	0.491 	0.079
 4.476 	-0.004 	-0.174
 4.724 	0.135 	-0.102
 5.536 	-0.252 	0.266
 5.922 	-0.518 	0.362
 6.381 	-0.973 	0.052
 6.475 	-0.908 	-0.012
 6.402 	-0.732 	-0.049
 6.493 	-0.484 	-0.137
 6.468 	-0.212 	-0.403
 6.845 	-0.731 	-0.272
 7.010 	-0.830 	-0.326
 6.963 	-0.857 	-0.463
 6.624 	-0.506 	-0.047
 5.316 	-0.080 	-0.364
 5.650 	-0.190 	-0.325
 5.742 	-0.145 	-0.528
 5.795 	-0.282 	-0.531
 5.733 	-0.329 	-0.556
 5.946 	-0.499 	-0.221
 5.915 	-0.844 	-0.076
 5.824 	-1.214 	0.516
 6.287 	-0.711 	0.416
 6.321 	-0.361 	0.319
 6.641 	-0.653 	-0.258
 6.685 	-0.425 	-0.114
 6.494 	-0.958 	-0.414
 6.771 	-0.752 	-0.232
 5.920 	-0.859 	-0.419
 5.847 	-0.368 	0.171
 4.907 	-0.432 	0.165
 5.403 	-0.165 	-0.045
 5.726 	0.023 	-0.177
 5.625 	-0.116 	0.118
 5.552 	-0.193 	0.038
 5.375 	-0.488 	0.491
 5.584 	-0.755 	0.135
 5.910 	-1.202 	0.455
 5.671 	-1.076 	0.296
 6.127 	-0.545 	0.314
 6.418 	-0.348 	0.122
 6.621 	-0.540 	0.063
 6.444 	-0.501 	-0.303
 6.461 	-0.371 	-0.442
 6.550 	-1.238 	-0.323
 6.306 	-0.824 	-0.463
 5.674 	-0.211 	0.145
 5.348 	0.128 	0.303
 5.610 	0.122 	0.142
 5.728 	-0.176 	0.353
 5.871 	-0.279 	-0.091
 5.993 	-0.252 	0.343
 6.167 	-1.101 	-0.138
 5.744 	-1.325 	0.425
 6.358 	-1.660 	-0.259
 6.336 	-1.299 	0.266
 6.539 	-1.298 	-0.247
 6.746 	-0.258 	0.006
 6.784 	-0.224 	-0.481
 6.617 	-0.655 	-0.103
 6.621 	-1.785 	-0.549
 6.823 	-0.745 	-0.265
 5.543 	0.215 	0.361
 5.457 	0.155 	0.170
 5.537 	0.037 	-0.059
 6.011 	-0.051 	-0.247
 6.423 	-0.087 	-0.178
 6.866 	0.016 	-0.189
 6.115 	-0.678 	-0.961
 6.663 	-2.062 	0.013
 6.607 	-1.925 	-0.130
 7.504 	-0.865 	-0.234
 6.319 	-0.978 	0.421
 6.734 	-0.507 	-0.248
 6.772 	0.149 	-0.342
 6.770 	-0.962 	0.022
 5.917 	-0.710 	-0.196
 5.982 	-0.853 	-0.067
 7.712 	-0.044 	0.094
 7.307 	-0.667 	-0.164
 6.769 	-0.580 	0.163
 6.690 	0.484 	-0.281
 6.523 	0.820 	-0.401
 6.091 	0.764 	-0.047
 6.054 	0.390 	-0.298
 6.014 	0.433 	-0.282
 6.005 	0.266 	-0.213
 5.922 	0.020 	0.084
 5.948 	-0.014 	0.312
 5.823 	-0.226 	0.070
 6.372 	-0.107 	-0.556
 6.344 	-0.437 	-0.240
 6.706 	-0.451 	0.011
 6.960 	-0.134 	0.160
 7.415 	-0.522 	-0.132
 7.833 	0.167 	-0.359
 8.008 	0.299 	-0.023
 7.527 	0.814 	0.052
 7.074 	0.665 	-0.199
 6.533 	0.904 	-0.556
 6.163 	0.529 	-0.347
 6.455 	-0.005 	-0.578
 6.832 	-0.212 	-0.394
 6.958 	-0.212 	-0.271
 6.449 	-0.317 	0.091
 6.422 	0.207 	0.315
 6.685 	-0.370 	-0.330
 6.811 	-0.225 	-0.475
 6.374 	-0.460 	0.029
 6.401 	0.307 	0.255
 7.906 	-0.129 	-0.367
 7.727 	0.180 	-0.429
 7.307 	1.123 	0.036
 7.590 	0.958 	-0.197
 7.377 	0.812 	-0.546
 7.301 	0.787 	-0.360
 7.622 	0.077 	-0.657
 7.218 	-0.087 	-0.351
 7.756 	-0.307 	-0.401
 7.832 	-0.121 	0.130
 7.279 	-0.421 	-0.087
 7.430 	-0.140 	-0.286
 7.426 	-0.607 	-0.154
 7.193 	-0.047 	-0.151
 6.817 	0.172 	-0.265
 6.502 	0.653 	0.400
 7.158 	0.158 	0.431
 6.968 	0.303 	-0.353
 7.424 	0.928 	-0.755
 7.773 	0.932 	-0.339
 7.549 	0.499 	-0.080
 7.325 	0.487 	-0.338
 7.042 	0.014 	-0.424
 7.049 	-0.630 	-0.543
 7.362 	-1.020 	-0.397
 7.948 	-0.802 	-0.477
 7.983 	-0.356 	-0.961
 8.054 	-0.125 	-0.822
 7.724 	-0.022 	-0.368
 7.154 	-0.009 	-0.066
 5.983 	0.841 	0.246
 6.106 	1.051 	0.194
 6.803 	0.499 	0.531
 6.640 	0.671 	0.069
 7.393 	0.733 	-0.065
 7.419 	0.647 	-0.175
 7.275 	0.449 	-0.099
 7.224 	0.545 	-0.388
 6.895 	-0.298 	-0.665
 6.286 	-0.625 	-0.440
 6.597 	-0.621 	-0.125
 6.812 	-0.711 	-0.164
 6.941 	-0.289 	-0.747
 6.784 	-0.286 	-0.749
 6.825 	0.312 	-0.277
 6.122 	0.859 	0.380
 6.159 	0.963 	0.096
 6.255 	0.922 	-0.014
 6.912 	0.922 	0.584
 7.094 	0.973 	-0.113
 7.410 	0.613 	-0.484
 7.959 	0.907 	-0.327
 7.517 	0.711 	-0.268
 7.629 	0.670 	-0.807
 6.201 	-0.303 	-0.558
 6.075 	-0.429 	-0.379
 6.194 	-0.506 	0.155
 6.634 	-0.459 	0.193
 6.684 	-0.421 	-0.068
 6.724 	-0.242 	-0.195
 6.421 	0.547 	-0.084
 6.307 	0.954 	0.113
 6.277 	0.679 	0.234
 6.557 	0.591 	0.625
 6.861 	1.154 	0.223
 7.015 	0.940 	-0.333
 7.080 	0.442 	-0.428
 7.152 	0.754 	-0.589
 7.645 	0.757 	-0.205
 7.247 	0.891 	-0.796
 6.203 	-0.088 	-0.320
 6.416 	-0.002 	0.029
 6.471 	-0.117 	0.542
 6.491 	-0.331 	0.032
 6.276 	-0.552 	-0.338
 6.369 	-0.317 	-0.103
 6.476 	0.223 	-0.016
 6.655 	0.466 	-0.172
 6.954 	0.555 	-0.204
 7.196 	0.064 	-0.147
 6.295 	0.053 	0.293
 6.658 	0.189 	0.187
 6.464 	0.333 	0.031
 6.806 	0.477 	0.328
 7.023 	1.042 	-0.369
 7.216 	0.961 	-0.498
 6.743 	0.379 	0.502
 5.929 	-0.001 	0.536
 6.007 	-0.469 	0.199
 6.065 	-0.692 	-0.108
 5.977 	-0.508 	-0.450
 6.140 	-0.182 	-0.451
 5.982 	-0.058 	-0.280
 6.195 	-0.013 	-0.284
 6.390 	-0.015 	-0.183
 6.654 	0.040 	-0.345
 6.190 	-0.093 	-0.022
 5.994 	-0.189 	0.060
 6.104 	-0.140 	-0.121
 6.296 	0.095 	-0.546
 6.258 	0.654 	-0.647
 6.307 	0.560 	0.200
 6.284 	0.481 	0.721
 6.561 	0.250 	0.539
 6.062 	-0.531 	-0.074
 5.560 	-0.478 	-0.174
 5.706 	-0.158 	-0.222
 5.736 	-0.003 	-0.058
 5.751 	0.209 	-0.184
 5.953 	0.148 	0.075
 6.098 	0.001 	0.135
 6.452 	0.033 	0.250
 5.906 	0.146 	0.292
 5.805 	0.084 	0.230
 5.915 	0.190 	0.193
 5.928 	0.088 	0.064
 6.206 	0.414 	0.175
 6.396 	0.508 	0.479
 6.218 	0.372 	0.459
 5.504 	-0.122 	0.308
 5.477 	-0.664 	0.445
 5.398 	-0.678 	0.313
 5.472 	-0.292 	0.177
 5.518 	0.094 	0.620
 5.557 	0.122 	0.614
 5.887 	-0.329 	0.724
 6.521 	-0.517 	0.694
 6.934 	-0.615 	0.380
 4.852 	0.297 	0.129
 4.905 	0.105 	-0.135
 4.902 	0.252 	-0.147
 4.701 	-0.116 	0.108
 5.160 	0.233 	0.359
 5.352 	0.600 	0.236
 5.422 	0.301 	0.079
 5.567 	-0.295 	-0.089
 5.878 	-0.881 	-0.145
 6.115 	-1.163 	0.517
 5.643 	-0.415 	1.105
 5.872 	0.164 	0.756
 6.375 	-0.220 	0.309
 6.863 	-0.662 	0.336
 7.067 	-0.933 	0.274
 6.806 	-0.550 	-0.120
 4.338 	0.218 	0.017
 4.224 	0.127 	0.263
 4.492 	0.198 	0.437
 4.908 	0.059 	0.353
 5.260 	-0.182 	0.257
 5.319 	0.225 	0.590
 5.523 	0.272 	0.443
 6.097 	-0.496 	0.153
 6.402 	-1.052 	-0.054
 6.584 	-0.825 	-0.206
 6.483 	-0.458 	-0.018
 6.685 	-0.683 	0.214
 6.915 	-0.976 	0.088
 6.813 	-1.062 	-0.007
 6.724 	-0.731 	-0.160
 6.755 	-0.730 	-0.165
 5.914 	0.655 	-0.466
 5.697 	0.616 	-0.508
 6.010 	0.329 	-0.682
 6.376 	0.227 	-0.831
 6.420 	0.032 	-0.595
 6.187 	0.069 	-0.478
 5.970 	-0.156 	-0.160
 6.325 	-0.902 	0.184
 6.589 	-1.202 	0.116
 6.688 	-1.046 	-0.099
 6.708 	-0.791 	-0.193
 6.852 	-0.872 	-0.203
 7.227 	-0.991 	-0.357
 6.713 	-0.990 	-0.291
 6.431 	-1.021 	-0.048
 6.469 	-1.012 	0.030
 5.540 	0.496 	-0.217
 6.044 	0.335 	-0.351
 6.119 	0.293 	-0.298
 5.990 	0.340 	-0.091
 5.870 	0.427 	-0.284
 6.048 	0.539 	-0.100
 6.204 	-0.026 	0.251
 6.037 	-1.021 	0.595
 6.290 	-1.199 	0.536
 6.559 	-1.504 	0.351
 7.039 	-1.099 	-0.085
 7.193 	-0.912 	-0.236
 7.244 	-0.989 	-0.349
 6.542 	-0.521 	-0.142
 6.354 	-0.325 	-0.479
 6.644 	-1.112 	-0.035
 6.005 	0.449 	-0.239
 6.145 	0.509 	-0.082
 6.316 	0.408 	-0.160
 6.320 	0.675 	0.018
 6.312 	0.711 	-0.101
 6.436 	0.590 	-0.059
 6.504 	0.197 	-0.122
 6.404 	-0.662 	0.298
 6.737 	-1.305 	-0.035
 7.218 	-1.613 	-0.182
 7.646 	-1.321 	-0.255
 7.449 	-1.397 	0.249
 7.559 	-0.446 	-0.332
 7.661 	-0.757 	-0.201
 7.536 	-0.611 	-0.799
 6.903 	-1.306 	0.028
 5.835 	0.909 	0.323
 5.875 	0.948 	-0.100
 6.188 	1.030 	-0.327
 6.290 	0.497 	-0.755
 6.391 	0.445 	-0.817
 6.613 	0.427 	-0.645
 6.690 	0.478 	-0.841
 7.093 	-0.596 	-0.884
 7.196 	-1.270 	-0.292
 7.166 	-1.385 	0.181
 7.569 	-0.963 	-0.092
 8.046 	-0.716 	-0.742
 7.624 	-0.527 	-0.082
 7.899 	-0.665 	-0.002
 7.637 	-1.565 	-0.409
 7.695 	-0.491 	-0.137
 8.751 	0.511 	0.077
 8.918 	0.696 	-0.369
 7.927 	-0.143 	-0.255
 8.747 	-0.417 	-0.140
 7.249 	0.548 	0.123
 7.481 	0.934 	-0.395
 6.819 	0.973 	-0.106
 6.421 	0.187 	-0.113
 6.359 	0.090 	-0.082
 6.694 	-0.208 	0.249
 6.339 	0.073 	0.439
 6.698 	-0.218 	0.117
 7.237 	-0.871 	-0.280
 7.633 	-0.309 	-0.312
 7.105 	-0.907 	0.355
 7.472 	0.094 	0.328
 9.017 	0.725 	-0.572
 8.487 	0.111 	-0.014
 8.000 	-0.205 	-0.436
 7.875 	0.290 	0.349
 7.499 	0.972 	0.346
 7.817 	0.912 	-0.804
 7.264 	1.123 	0.048
 7.444 	0.281 	-0.538
 8.258 	0.210 	-0.463
 7.449 	0.069 	-0.118
 6.575 	-0.213 	0.487
 7.291 	-0.582 	0.028
 7.725 	-0.695 	-0.496
 7.814 	-0.340 	-0.275
 7.722 	-0.497 	-0.216
 6.338 	-0.124 	0.721
 8.200 	0.437 	0.116
 7.942 	0.213 	-0.172
 7.959 	-0.301 	-0.472
 8.422 	0.420 	-0.176
 7.918 	0.501 	0.272
 7.200 	1.294 	-0.091
 7.918 	0.807 	-0.574
 7.850 	-0.196 	-0.468
 7.633 	0.335 	-0.300
 7.528 	0.623 	0.064
 7.925 	-0.006 	-0.063
 7.602 	-0.540 	-0.474
 7.494 	-0.563 	-0.201
 7.739 	-0.361 	-0.373
 8.371 	0.136 	-0.644
 7.903 	0.308 	0.314
 7.400 	-0.144 	-0.217
 7.876 	0.174 	-0.777
 7.926 	-0.034 	-0.624
 8.158 	0.637 	-0.307
 7.517 	0.832 	0.136
 7.654 	0.506 	-0.260
 7.724 	0.234 	-0.290
 7.795 	0.324 	-0.424
 8.156 	0.123 	-0.150
 8.407 	0.357 	-0.055
 8.018 	-0.176 	-0.387
 7.223 	-0.558 	-0.370
 7.247 	-0.341 	-0.829
 7.040 	0.156 	0.203
 7.232 	0.091 	0.170
 7.500 	0.896 	0.365
 7.214 	-0.090 	-0.127
 7.666 	0.339 	-0.303