# vtk DataFile Version 3.0
HighT1
ASCII
DATASET STRUCTURED_POINTS
DIMENSIONS 16 16 19
ORIGIN 929.001000000000 929.001000000000 5.001000000000
SPACING 10.000000000000 10.000000000000 10.000000000000
POINT_DATA 4864
FIELD attributes 1
U 3 4864 float
2.844 	-0.889 	0.079
 3.089 	-0.748 	0.142
 3.100 	-0.695 	0.226
 3.141 	-0.596 	0.121
 3.380 	-0.672 	0.032
 3.604 	-0.558 	-0.064
 3.669 	-0.157 	-0.006
 3.524 	0.099 	-0.040
 3.660 	-0.066 	0.145
 3.659 	-0.026 	0.181
 3.476 	-0.255 	0.198
 3.291 	0.003 	0.056
 3.736 	0.246 	-0.285
 4.462 	0.334 	-0.582
 5.095 	0.203 	-0.562
 5.499 	-0.071 	-0.315
 3.535 	-0.552 	-0.089
 3.046 	-0.668 	-0.012
 3.040 	-0.251 	-0.266
 2.776 	-0.185 	-0.099
 2.754 	-0.231 	-0.082
 2.922 	-0.377 	-0.001
 3.234 	-0.503 	0.019
 3.754 	-0.400 	0.051
 3.977 	-0.200 	0.121
 4.025 	-0.152 	0.078
 3.951 	-0.322 	0.081
 3.728 	-0.324 	0.025
 4.177 	-0.121 	0.105
 4.796 	0.616 	0.009
 4.627 	0.746 	-0.309
 5.108 	0.618 	-0.472
 4.518 	0.179 	-0.209
 4.262 	-0.219 	0.245
 3.481 	0.040 	0.289
 3.362 	-0.455 	0.368
 3.470 	-0.825 	0.298
 3.924 	-0.744 	0.139
 4.501 	-1.161 	-0.255
 4.684 	-1.086 	-0.014
 4.333 	-0.669 	0.088
 3.497 	-0.083 	0.252
 3.125 	-0.054 	0.330
 3.592 	-0.651 	0.039
 3.823 	-0.774 	-0.236
 4.161 	-0.732 	0.254
 4.812 	0.820 	0.385
 4.763 	1.267 	-0.028
 4.790 	0.498 	-0.156
 5.066 	0.083 	0.020
 5.346 	-0.528 	-0.085
 5.121 	-0.946 	-0.146
 4.770 	-0.591 	0.113
 4.184 	-0.911 	0.103
 4.139 	-1.146 	0.064
 4.290 	-1.129 	0.060
 4.017 	-0.817 	0.068
 4.461 	-0.160 	0.092
 4.671 	-0.817 	0.165
 4.578 	-0.634 	0.095
 4.329 	-0.774 	0.168
 5.079 	-0.879 	-0.408
 4.708 	0.331 	0.270
 3.973 	0.981 	0.157
 4.824 	0.307 	-0.105
 4.996 	-0.083 	-0.134
 4.920 	-0.173 	-0.185
 4.810 	-0.115 	-0.187
 4.435 	-0.202 	-0.044
 4.022 	-0.508 	-0.010
 4.056 	-0.694 	0.044
 3.586 	-1.176 	0.341
 3.038 	-1.392 	0.359
 3.437 	-1.662 	0.508
 3.618 	-2.083 	0.133
 4.381 	-1.834 	-0.172
 5.465 	-1.921 	-0.426
 6.082 	-0.379 	0.037
 5.265 	0.929 	0.098
 3.870 	0.916 	0.311
 4.366 	0.421 	0.113
 4.061 	0.315 	0.100
 3.943 	0.191 	0.061
 3.992 	0.274 	0.015
 4.052 	0.128 	-0.067
 4.027 	-0.244 	-0.079
 4.172 	-0.851 	0.012
 3.797 	-0.467 	0.228
 3.997 	-1.171 	0.135
 4.445 	-2.058 	0.153
 5.111 	-2.346 	-0.074
 5.986 	-1.163 	-0.733
 4.976 	-1.140 	-0.259
 4.163 	0.154 	0.390
 3.274 	1.325 	0.310
 3.359 	0.436 	-0.006
 4.021 	-0.031 	0.254
 3.950 	-0.190 	0.172
 4.157 	-0.379 	0.097
 4.455 	-0.362 	0.090
 4.530 	0.087 	0.002
 5.102 	0.277 	-0.359
 5.080 	0.029 	-0.324
 4.044 	-0.371 	0.155
 4.826 	-0.645 	-0.438
 5.386 	-1.091 	-0.885
 5.073 	-1.330 	-0.029
 5.501 	-0.078 	-0.278
 5.392 	0.765 	-0.640
 4.872 	1.002 	-0.012
 3.877 	0.644 	0.153
 3.124 	0.070 	0.150
 4.685 	-0.307 	-0.046
 4.689 	-0.594 	0.065
 4.629 	-0.740 	-0.100
 4.886 	-0.789 	-0.199
 5.183 	-0.436 	-0.250
 5.501 	0.104 	-0.303
 5.642 	0.628 	-0.251
 5.062 	0.263 	-0.166
 4.533 	-0.649 	-0.757
 5.374 	-0.537 	-0.460
 4.624 	-0.759 	0.238
 4.130 	-0.460 	0.303
 3.748 	1.357 	0.286
 4.221 	1.091 	0.089
 4.140 	0.828 	0.129
 3.033 	0.647 	0.351
 4.469 	-0.111 	0.016
 4.168 	-0.241 	-0.057
 4.256 	-0.479 	-0.200
 4.377 	-0.397 	-0.168
 4.619 	-0.179 	-0.150
 5.035 	0.265 	-0.031
 5.345 	1.515 	-0.196
 5.546 	0.601 	-0.499
 5.020 	0.398 	-0.371
 5.048 	-0.141 	0.027
 4.900 	-0.102 	-0.044
 4.205 	-0.477 	0.409
 3.766 	0.435 	0.120
 4.280 	1.247 	-0.058
 2.986 	1.416 	0.258
 2.781 	0.585 	0.151
 4.859 	0.007 	0.049
 4.677 	-0.043 	0.116
 4.221 	-0.330 	-0.046
 4.135 	-0.378 	-0.024
 4.345 	-0.387 	0.079
 4.808 	0.325 	-0.124
 5.134 	0.786 	0.087
 5.404 	0.704 	0.048
 5.069 	0.686 	-0.111
 5.390 	0.155 	-0.517
 5.899 	0.075 	-0.816
 4.758 	0.372 	0.564
 3.153 	0.191 	0.196
 3.018 	1.134 	0.111
 3.420 	1.130 	0.146
 3.164 	0.345 	0.249
 4.293 	-0.673 	0.092
 4.392 	-0.102 	0.157
 4.220 	0.178 	0.002
 4.794 	-0.127 	-0.052
 5.449 	-0.436 	-0.175
 4.790 	-0.243 	0.135
 4.776 	0.333 	-0.218
 5.005 	0.676 	-0.111
 5.255 	0.570 	-0.232
 6.235 	0.496 	-0.387
 5.644 	1.451 	-0.043
 5.624 	0.770 	-0.139
 4.818 	1.124 	0.305
 3.149 	0.904 	0.334
 2.849 	0.155 	0.568
 3.278 	-0.958 	0.128
 2.441 	-1.488 	0.569
 3.133 	-1.201 	-0.280
 4.370 	-0.344 	-0.752
 4.988 	-0.129 	-0.629
 5.451 	0.377 	-0.159
 4.713 	0.377 	0.093
 4.608 	0.444 	-0.217
 4.929 	0.958 	-0.043
 4.302 	0.906 	0.234
 4.736 	1.514 	0.294
 5.006 	1.639 	-0.106
 5.416 	1.673 	-0.095
 5.319 	1.092 	0.410
 4.849 	0.856 	0.347
 4.459 	-0.593 	0.018
 4.878 	-0.951 	-0.498
 2.810 	-0.945 	-0.256
 2.741 	-1.437 	-0.073
 3.368 	-0.235 	0.185
 4.007 	0.373 	0.106
 4.293 	0.387 	0.114
 4.260 	0.462 	0.150
 3.948 	0.881 	0.255
 3.654 	1.084 	0.416
 3.483 	1.251 	0.267
 3.793 	0.632 	-0.116
 4.257 	0.434 	0.075
 4.825 	1.018 	0.149
 5.202 	1.013 	0.135
 5.344 	0.578 	-0.175
 5.354 	0.019 	-0.848
 4.362 	0.171 	-0.334
 3.330 	-0.411 	-0.252
 3.734 	-0.507 	-0.184
 3.099 	-0.882 	-0.005
 3.096 	-0.381 	0.112
 3.185 	0.318 	0.214
 2.598 	0.408 	0.434
 3.048 	0.470 	0.184
 3.024 	0.856 	0.250
 3.379 	0.503 	0.068
 3.815 	0.538 	-0.350
 3.958 	0.283 	-0.022
 3.833 	-0.042 	0.254
 3.765 	0.126 	0.211
 3.925 	0.234 	0.172
 4.686 	0.941 	-0.310
 5.578 	1.610 	-0.688
 3.510 	-0.092 	-0.177
 3.450 	-0.346 	0.163
 3.552 	-0.477 	-0.163
 3.465 	-0.728 	0.025
 4.444 	0.255 	-0.157
 4.106 	0.007 	0.209
 4.047 	-0.515 	-0.123
 4.106 	-0.084 	0.022
 4.326 	0.341 	-0.098
 3.968 	0.660 	0.085
 3.618 	0.339 	0.530
 3.441 	0.076 	0.252
 3.578 	-0.032 	0.209
 3.203 	0.450 	0.196
 2.251 	0.861 	0.505
 2.372 	1.688 	0.453
 4.059 	-0.280 	-0.036
 4.465 	-0.261 	-0.235
 4.693 	0.004 	-0.280
 5.211 	-0.209 	-0.864
 4.946 	-0.094 	0.374
 3.814 	0.614 	-0.109
 3.226 	0.234 	-0.139
 2.238 	0.066 	0.400
 2.231 	0.338 	0.112
 2.963 	0.357 	-0.089
 3.783 	0.010 	-0.059
 3.844 	-0.271 	0.030
 3.287 	-0.466 	0.161
 2.912 	-0.006 	0.171
 3.179 	0.274 	0.023
 3.434 	0.325 	-0.117
 4.346 	0.948 	0.127
 4.393 	0.756 	0.077
 3.739 	0.761 	0.142
 3.941 	0.601 	-0.097
 4.355 	0.496 	-0.442
 4.631 	0.185 	-0.393
 4.937 	-0.181 	-0.210
 5.447 	-0.889 	0.075
 4.986 	-0.091 	0.343
 4.336 	0.047 	0.479
 4.528 	0.127 	0.274
 4.929 	-0.323 	-0.108
 5.036 	-0.363 	-0.620
 5.222 	-0.044 	-0.505
 5.192 	0.154 	-0.095
 5.361 	0.204 	-0.201
 5.104 	0.549 	-0.226
 4.575 	0.632 	0.095
 4.032 	0.677 	0.009
 3.879 	0.635 	-0.212
 3.923 	0.342 	-0.071
 3.952 	-0.139 	0.101
 3.937 	-0.103 	0.313
 4.435 	-0.455 	0.522
 4.753 	-0.431 	0.486
 5.077 	-0.106 	0.163
 5.418 	0.272 	-0.033
 4.917 	-0.077 	0.176
 4.593 	-0.292 	0.262
 5.268 	-0.727 	-0.182
 5.863 	-0.929 	-0.515
 5.563 	-0.462 	-0.482
 4.325 	1.221 	0.027
 3.721 	0.874 	0.470
 3.782 	0.837 	0.633
 4.093 	0.712 	0.663
 4.890 	0.131 	0.423
 6.079 	-0.483 	-0.049
 5.308 	-0.358 	-0.176
 5.382 	-0.802 	0.918
 4.588 	-1.039 	0.991
 4.887 	-0.082 	0.316
 4.794 	0.373 	0.030
 5.305 	0.267 	-0.294
 5.289 	-0.524 	-0.331
 5.523 	-1.061 	-0.003
 6.400 	-1.361 	0.194
 6.668 	-0.818 	-0.863
 5.058 	1.044 	-0.088
 5.562 	0.587 	-0.061
 5.915 	0.259 	-0.127
 6.038 	-0.259 	-0.112
 6.299 	-0.760 	-0.035
 6.661 	-0.417 	-0.112
 6.134 	-0.806 	-0.177
 6.372 	-0.162 	0.053
 6.767 	-0.522 	0.609
 4.873 	-0.340 	1.286
 4.968 	-0.044 	0.698
 5.070 	-0.322 	0.535
 5.895 	-0.282 	-0.321
 6.586 	-1.308 	-0.204
 7.123 	-1.033 	0.317
 6.884 	-0.737 	-0.082
 5.770 	0.825 	-0.073
 6.263 	0.506 	-0.266
 6.506 	-0.134 	-0.174
 6.502 	-0.723 	-0.136
 6.456 	-0.596 	-0.233
 6.296 	-0.383 	-0.325
 6.168 	-0.184 	-0.349
 6.699 	-0.482 	-0.110
 6.861 	0.134 	0.389
 6.093 	0.483 	0.337
 5.428 	0.581 	-0.241
 5.861 	-0.174 	-0.774
 6.329 	-1.181 	-0.369
 6.557 	-2.321 	-0.218
 6.042 	-0.254 	0.226
 6.139 	-0.206 	0.169
 6.233 	0.418 	0.120
 6.403 	0.167 	-0.039
 6.539 	-0.062 	-0.081
 6.930 	-0.641 	-0.222
 6.848 	-0.738 	-0.200
 6.452 	-0.265 	-0.374
 6.390 	-0.029 	-0.466
 6.826 	-0.224 	-0.417
 6.970 	0.235 	-0.206
 6.845 	0.756 	-0.520
 6.977 	-0.035 	-0.337
 7.073 	-0.639 	-0.414
 6.638 	-0.688 	-0.886
 5.613 	-1.014 	0.571
 4.828 	0.287 	0.576
 5.344 	0.427 	-0.052
 4.929 	0.474 	0.664
 5.882 	0.460 	0.169
 6.415 	0.427 	-0.365
 7.295 	-0.378 	-0.457
 7.165 	-0.547 	-0.130
 6.299 	-0.466 	-0.371
 6.460 	-0.440 	-0.355
 6.958 	-0.078 	-0.695
 7.055 	-0.019 	-0.953
 7.146 	0.108 	-0.473
 6.848 	-0.661 	-0.309
 7.520 	-1.019 	-0.740
 7.977 	-0.053 	-0.862
 5.294 	0.884 	0.950
 4.952 	0.122 	0.674
 5.545 	-0.043 	0.434
 6.498 	0.484 	-0.327
 6.472 	0.987 	-0.610
 6.260 	0.234 	-0.514
 6.502 	-0.348 	-0.112
 6.473 	0.034 	0.060
 6.939 	-0.299 	-0.952
 6.780 	-0.256 	-0.137
 6.732 	0.241 	-0.289
 6.696 	0.118 	-1.207
 5.958 	0.243 	-0.412
 4.637 	-0.293 	0.338
 4.619 	-1.239 	0.547
 4.946 	0.141 	-0.156
 5.228 	0.952 	0.217
 5.193 	0.348 	0.544
 3.457 	0.667 	1.314
 6.642 	0.324 	-0.249
 6.962 	0.625 	-0.416
 7.518 	0.272 	-0.237
 6.267 	-0.093 	0.028
 6.233 	-0.564 	-0.058
 6.567 	-0.341 	-0.345
 6.284 	-0.002 	-0.061
 5.803 	0.677 	-0.243
 5.409 	0.311 	-0.061
 5.773 	-0.050 	-0.046
 5.522 	0.049 	0.181
 3.553 	-0.119 	0.790
 3.248 	0.323 	0.884
 4.161 	0.221 	-0.628
 3.330 	1.139 	0.722
 3.085 	0.763 	0.618
 6.808 	0.500 	0.078
 7.331 	0.121 	0.130
 7.376 	0.514 	-0.197
 6.646 	0.474 	-0.140
 6.226 	-0.175 	0.147
 6.343 	-0.310 	-0.321
 6.305 	0.508 	0.356
 6.454 	0.336 	0.062
 6.829 	0.402 	-0.588
 6.297 	0.269 	-0.301
 5.963 	0.792 	0.186
 4.318 	0.218 	0.977
 3.976 	0.008 	0.828
 3.761 	0.720 	-0.141
 3.797 	1.422 	0.535
 4.128 	0.565 	0.751
 6.566 	0.544 	0.433
 6.796 	0.589 	0.266
 7.107 	0.773 	-0.333
 6.877 	0.776 	-0.100
 6.511 	0.152 	-0.050
 6.184 	-0.106 	-0.100
 6.090 	0.070 	-0.090
 6.474 	0.030 	-0.090
 6.735 	0.603 	-0.154
 6.516 	0.320 	-0.074
 5.964 	0.950 	-0.150
 5.835 	0.590 	0.030
 4.649 	1.090 	0.807
 4.266 	1.501 	0.290
 4.732 	1.833 	0.588
 5.117 	0.977 	-0.309
 6.140 	1.108 	0.442
 6.811 	1.118 	-0.672
 6.219 	0.411 	-0.291
 5.287 	0.068 	-0.439
 5.111 	-0.161 	-0.438
 5.239 	0.223 	0.011
 4.841 	0.099 	-0.196
 4.027 	-0.593 	-0.211
 4.177 	-0.014 	-0.052
 4.305 	-0.084 	0.212
 4.777 	0.388 	-0.038
 5.710 	1.592 	-0.530
 5.566 	1.515 	0.004
 4.840 	1.212 	0.823
 5.706 	1.407 	0.088
 6.259 	1.192 	-1.004
 6.181 	0.320 	0.238
 5.694 	1.007 	-0.381
 4.261 	-0.144 	0.256
 4.087 	-0.114 	-0.148
 4.292 	-0.084 	0.185
 4.260 	-0.020 	0.249
 3.619 	0.218 	0.439
 4.059 	-0.397 	0.138
 4.269 	-0.715 	0.107
 4.369 	-0.297 	0.269
 4.857 	-0.523 	0.583
 4.991 	-0.143 	1.047
 5.763 	0.679 	0.938
 5.983 	1.186 	0.601
 6.569 	1.202 	-1.079
 7.149 	0.576 	-1.088
 5.807 	-0.262 	-0.392
 4.812 	1.087 	0.192
 4.200 	0.357 	-0.114
 5.249 	-0.319 	-0.271
 4.747 	-0.703 	0.370
 3.477 	0.785 	0.925
 3.667 	0.305 	0.635
 5.494 	-0.220 	-0.160
 5.839 	-0.876 	-0.046
 4.866 	-1.150 	-0.188
 4.702 	-0.272 	-0.253
 5.303 	0.177 	-0.106
 5.946 	0.109 	-0.310
 6.541 	0.875 	-0.490
 6.877 	0.592 	-0.442
 6.643 	0.496 	-0.877
 5.944 	0.917 	-0.020
 5.204 	0.657 	0.082
 5.603 	-0.178 	-0.197
 6.195 	-0.071 	-0.384
 5.455 	0.780 	0.076
 5.164 	0.459 	0.530
 5.314 	-0.004 	0.221
 6.064 	0.316 	-0.628
 5.276 	-0.286 	0.167
 3.581 	-0.472 	0.447
 2.995 	-0.310 	0.789
 3.552 	-0.195 	0.795
 4.427 	0.184 	0.681
 4.976 	0.382 	0.352
 5.402 	0.228 	0.106
 5.976 	0.384 	-0.322
 5.854 	1.152 	-0.367
 6.433 	1.064 	-0.181
 5.336 	0.072 	-0.310
 5.322 	-0.238 	-0.286
 5.509 	0.387 	0.409
 6.077 	0.463 	-0.201
 5.438 	0.097 	-0.107
 6.196 	0.269 	-0.133
 6.074 	0.815 	0.143
 4.687 	0.521 	-0.361
 5.066 	-0.385 	0.021
 4.619 	-0.360 	0.313
 4.504 	-0.353 	0.482
 4.610 	0.215 	0.415
 4.901 	0.660 	0.208
 5.560 	0.463 	-0.135
 5.534 	1.237 	0.985
 5.347 	0.930 	0.785
 5.223 	0.711 	0.028
 5.342 	0.975 	-0.186
 5.800 	1.145 	-0.279
 5.850 	0.847 	-0.399
 5.623 	0.462 	-0.336
 5.390 	0.674 	-0.223
 4.960 	0.355 	0.754
 4.749 	0.304 	0.959
 5.212 	0.119 	0.502
 5.942 	-0.203 	-0.256
 6.095 	0.134 	-0.245
 5.551 	0.317 	-0.238
 5.552 	-0.126 	0.226
 5.350 	-0.132 	0.620
 5.623 	1.305 	-0.059
 5.750 	1.222 	0.123
 5.709 	0.657 	-0.077
 4.878 	0.539 	-0.089
 4.391 	0.479 	0.103
 4.666 	0.376 	0.453
 5.231 	0.236 	0.543
 5.878 	0.555 	0.279
 6.261 	0.398 	0.166
 6.011 	0.412 	0.182
 5.937 	-0.111 	-0.166
 5.413 	-0.348 	0.167
 5.566 	0.061 	0.044
 6.050 	0.423 	-0.518
 5.605 	-0.007 	0.042
 5.925 	-0.077 	0.232
 4.985 	1.091 	0.122
 4.746 	1.097 	0.321
 4.687 	0.935 	0.413
 5.115 	0.612 	0.234
 5.433 	0.333 	0.217
 4.920 	-0.511 	-0.265
 5.044 	-0.204 	0.550
 4.878 	0.351 	0.859
 5.091 	0.061 	0.929
 5.893 	0.137 	0.429
 6.321 	0.266 	-0.164
 5.949 	0.404 	-0.010
 5.347 	-0.032 	-0.174
 5.951 	-0.651 	-0.301
 6.730 	-1.059 	-0.098
 6.830 	-0.834 	0.206
 5.031 	1.104 	0.096
 5.450 	0.985 	0.071
 5.876 	0.470 	0.062
 6.099 	0.294 	0.112
 6.101 	0.088 	0.252
 5.541 	0.022 	-0.196
 5.122 	-0.091 	-0.218
 5.094 	0.360 	0.326
 5.091 	0.134 	0.633
 5.403 	0.170 	0.571
 5.399 	0.406 	0.415
 5.431 	0.244 	-0.244
 5.851 	-0.424 	-0.649
 6.173 	-1.335 	-0.114
 6.866 	-1.058 	-0.350
 7.006 	-0.547 	-0.541
 6.300 	0.823 	-0.055
 6.729 	0.859 	-0.507
 6.836 	0.751 	-0.532
 6.745 	0.503 	-0.398
 6.673 	0.160 	-0.151
 6.395 	-0.271 	0.058
 6.120 	-0.460 	-0.297
 6.231 	0.170 	-0.141
 6.228 	0.355 	0.126
 6.736 	0.551 	0.259
 6.152 	0.591 	-0.082
 6.613 	-0.377 	-0.734
 6.999 	-0.918 	-0.680
 6.740 	-1.856 	0.384
 6.755 	-0.851 	0.276
 6.678 	-0.226 	-0.115
 6.428 	0.762 	0.127
 6.405 	0.670 	-0.260
 6.693 	0.603 	-0.590
 6.860 	0.593 	-0.576
 7.001 	0.221 	-0.217
 6.874 	-0.278 	0.092
 6.799 	-0.767 	-0.031
 6.678 	-0.394 	-0.436
 6.787 	0.304 	-0.273
 7.005 	0.472 	-0.034
 7.446 	-0.033 	-0.006
 7.720 	-0.288 	-0.405
 7.928 	-1.046 	-0.814
 6.322 	-1.288 	0.772
 5.810 	-1.132 	0.598
 5.855 	-0.419 	-0.135
 6.822 	1.125 	-0.096
 6.883 	0.789 	-0.490
 6.850 	0.587 	-0.539
 6.641 	0.762 	-0.263
 6.770 	0.028 	-0.019
 6.858 	-0.301 	-0.203
 6.941 	-0.868 	-0.477
 6.990 	-0.759 	-0.696
 6.978 	-0.176 	-0.842
 7.163 	0.019 	-0.466
 7.181 	-0.328 	-0.475
 7.102 	-0.634 	-0.314
 7.240 	-0.812 	-0.584
 6.630 	-0.005 	0.701
 5.271 	-0.503 	1.041
 4.608 	-0.377 	-0.004
 6.719 	1.243 	-0.120
 6.652 	0.689 	-0.098
 6.675 	0.553 	-0.013
 6.512 	0.293 	-0.220
 6.758 	-0.095 	-0.452
 6.859 	-0.697 	-0.856
 6.845 	-0.835 	-0.622
 6.912 	-0.556 	-0.449
 6.693 	-0.172 	-0.778
 6.443 	0.368 	-0.294
 5.584 	0.196 	0.270
 4.723 	-0.427 	0.571
 3.738 	-1.209 	0.304
 4.210 	0.112 	1.362
 3.750 	0.134 	0.827
 3.154 	0.230 	0.824
 6.651 	0.375 	0.161
 6.660 	0.092 	-0.210
 6.671 	0.069 	0.338
 6.775 	0.442 	0.229
 6.851 	-0.094 	-0.282
 6.839 	-0.565 	-0.409
 6.734 	-0.623 	-0.224
 7.138 	-0.131 	-0.285
 6.569 	0.432 	-0.133
 6.436 	0.586 	0.084
 6.241 	0.445 	-0.187
 6.532 	0.477 	0.607
 5.407 	-0.132 	0.252
 4.424 	0.069 	0.220
 2.930 	0.959 	1.592
 3.122 	0.787 	0.679
 6.281 	0.069 	-0.046
 6.801 	-0.051 	-0.338
 6.739 	0.222 	-0.544
 6.626 	0.251 	-0.413
 6.389 	-0.147 	-0.012
 6.184 	-0.423 	-0.117
 6.447 	-0.171 	0.066
 6.775 	-0.000 	-0.170
 6.668 	0.618 	-0.132
 6.634 	0.811 	-0.082
 6.303 	0.840 	0.258
 6.329 	1.296 	-0.022
 6.355 	0.416 	-0.604
 5.055 	0.505 	0.220
 3.831 	1.040 	1.084
 4.639 	0.276 	0.386
 6.264 	-0.231 	-0.164
 6.666 	-0.041 	-0.529
 6.185 	0.644 	-0.356
 5.930 	0.256 	0.243
 5.949 	-0.088 	0.176
 5.982 	-0.280 	-0.091
 5.870 	-0.343 	-0.011
 5.992 	-0.400 	0.179
 6.078 	-0.155 	0.292
 6.531 	0.020 	0.313
 7.074 	0.593 	0.185
 6.734 	0.963 	0.337
 6.477 	0.818 	0.499
 6.356 	0.900 	-0.297
 6.929 	1.118 	0.215
 7.145 	0.319 	-0.618
 6.053 	-0.003 	-0.061
 6.191 	0.494 	-0.413
 5.925 	0.764 	0.619
 5.639 	0.314 	0.684
 5.017 	-0.193 	0.382
 4.181 	-0.240 	0.287
 4.515 	-0.561 	0.261
 4.220 	-0.770 	-0.055
 4.392 	-1.173 	0.481
 5.278 	-0.612 	0.197
 5.775 	0.163 	0.017
 6.211 	0.629 	0.035
 6.078 	0.526 	0.160
 6.506 	0.807 	0.488
 6.820 	0.793 	-0.107
 6.820 	0.276 	-0.569
 6.166 	0.162 	-0.029
 6.143 	1.016 	0.038
 5.762 	1.098 	0.968
 5.100 	-0.202 	0.228
 5.032 	-0.286 	0.325
 5.158 	-0.008 	0.068
 5.246 	-0.384 	-0.224
 5.164 	-0.319 	-0.165
 4.732 	-0.839 	0.261
 4.568 	-0.751 	0.985
 4.854 	0.164 	1.125
 5.280 	0.814 	0.834
 5.748 	0.260 	0.564
 6.489 	-0.356 	0.108
 6.920 	-0.351 	-0.316
 7.112 	-0.010 	-0.296
 5.662 	-0.304 	0.115
 6.384 	0.827 	0.265
 6.387 	1.319 	0.332
 5.144 	0.227 	-0.194
 4.677 	0.050 	0.702
 5.653 	-0.144 	0.563
 6.145 	-0.337 	-0.095
 6.102 	-0.396 	-0.409
 5.147 	-0.583 	-0.103
 5.217 	-0.743 	0.281
 5.081 	-0.976 	0.342
 5.456 	-0.890 	0.385
 6.359 	-1.157 	0.137
 6.921 	-0.872 	-0.190
 7.109 	-0.825 	-0.681
 6.939 	-0.629 	-0.591
 6.601 	0.347 	-0.165
 6.619 	0.496 	-0.007
 6.875 	0.781 	-0.259
 7.097 	0.085 	-0.093
 6.816 	0.490 	0.029
 6.795 	0.331 	0.151
 6.426 	-0.054 	0.023
 6.042 	0.090 	-0.472
 5.464 	-0.224 	-0.131
 5.329 	-0.309 	0.563
 5.265 	-0.800 	0.233
 5.444 	-1.255 	0.274
 6.137 	-1.313 	0.316
 6.488 	-1.087 	-0.093
 6.462 	-0.508 	-0.315
 6.583 	-0.135 	-0.638
 6.542 	0.497 	-0.650
 6.632 	0.570 	-0.119
 6.673 	0.690 	0.078
 6.131 	-0.111 	0.053
 5.956 	-0.090 	0.193
 6.116 	0.334 	0.081
 5.989 	0.288 	-0.010
 5.881 	0.309 	-0.298
 5.685 	0.333 	-0.146
 6.245 	0.264 	-0.029
 6.737 	-0.274 	-0.621
 6.711 	-0.514 	-0.472
 6.661 	-0.550 	-0.022
 6.677 	-0.625 	0.422
 6.240 	-0.428 	-0.024
 5.589 	0.137 	-0.062
 5.719 	1.300 	1.001
 5.595 	0.973 	0.718
 5.316 	1.148 	0.517
 5.493 	1.311 	0.272
 5.606 	1.020 	0.071
 5.547 	0.805 	-0.170
 5.677 	0.742 	-0.206
 5.788 	0.412 	-0.224
 6.069 	0.264 	0.129
 6.296 	0.542 	0.418
 6.290 	0.504 	0.211
 6.337 	0.774 	0.188
 6.397 	0.583 	-0.149
 6.227 	0.114 	-0.319
 6.398 	0.245 	0.005
 6.747 	-0.161 	0.238
 5.384 	0.674 	0.097
 5.636 	1.076 	0.036
 5.462 	0.973 	0.174
 5.223 	0.841 	0.317
 4.919 	0.596 	0.352
 4.871 	0.281 	0.919
 5.464 	0.172 	1.065
 5.561 	0.405 	1.107
 5.600 	0.202 	0.359
 6.202 	0.222 	0.073
 6.239 	0.289 	0.070
 6.187 	0.147 	0.142
 6.493 	-0.082 	0.100
 6.489 	0.249 	-0.087
 6.382 	0.379 	-0.085
 6.341 	0.189 	0.665
 5.315 	0.319 	0.149
 5.228 	0.848 	0.417
 5.445 	0.818 	0.456
 5.593 	0.581 	0.512
 5.417 	0.805 	0.335
 5.562 	-0.017 	-0.034
 5.936 	-0.677 	0.396
 5.995 	-0.362 	0.790
 6.265 	-0.105 	0.878
 6.588 	-0.065 	0.364
 6.526 	0.270 	-0.048
 5.928 	0.077 	0.064
 5.792 	-0.203 	0.106
 5.932 	0.081 	0.230
 5.900 	0.889 	-0.152
 5.626 	0.201 	0.328
 6.779 	0.479 	-0.419
 6.407 	0.781 	0.332
 6.021 	0.811 	-0.047
 6.171 	0.628 	-0.121
 6.343 	0.579 	-0.165
 6.593 	-0.301 	-0.091
 6.602 	-0.716 	0.128
 6.802 	-0.205 	0.242
 6.510 	-0.063 	0.545
 5.948 	0.279 	0.476
 5.389 	0.587 	0.364
 5.711 	0.055 	-0.170
 5.690 	-0.393 	-0.272
 5.950 	-1.127 	0.328
 6.673 	-0.452 	-0.019
 6.566 	-0.048 	-0.276
 6.884 	0.413 	-0.055
 7.103 	0.468 	-0.416
 7.234 	0.775 	-0.294
 6.879 	1.029 	-0.220
 7.091 	0.462 	-0.071
 7.435 	-0.086 	0.110
 6.829 	-0.570 	-0.007
 6.328 	-0.542 	0.468
 6.509 	0.046 	0.307
 6.186 	0.814 	0.448
 6.739 	0.536 	-0.134
 6.820 	-0.009 	-0.624
 6.621 	-0.488 	-0.494
 6.947 	-1.660 	0.259
 7.134 	-1.165 	0.522
 7.226 	-0.347 	0.171
 6.278 	0.364 	0.059
 6.519 	0.326 	-0.225
 6.825 	0.621 	-0.284
 7.072 	0.554 	-0.257
 7.370 	0.118 	-0.258
 7.622 	0.135 	-0.030
 7.647 	-0.448 	0.087
 7.167 	-0.353 	0.057
 6.674 	-0.118 	-0.068
 6.989 	0.153 	-0.093
 7.290 	0.199 	-0.239
 7.339 	-0.057 	-0.342
 7.560 	-0.688 	-0.268
 7.491 	-1.259 	0.130
 7.058 	-0.920 	0.740
 7.116 	-0.146 	-0.037
 6.440 	0.254 	-0.087
 6.537 	-0.364 	-0.113
 6.744 	-0.296 	-0.260
 7.008 	-0.153 	-0.200
 7.279 	0.012 	0.085
 7.551 	0.089 	0.046
 7.347 	-0.332 	-0.199
 7.228 	-0.103 	-0.424
 7.278 	-0.426 	-0.512
 7.375 	-0.221 	-0.466
 7.368 	0.116 	-0.192
 6.996 	-0.429 	-0.015
 6.207 	-0.806 	0.375
 5.338 	-0.505 	1.503
 5.534 	-0.617 	1.235
 6.461 	-0.517 	-0.264
 6.710 	-0.371 	0.106
 6.843 	-0.801 	0.212
 6.591 	-0.911 	-0.083
 6.598 	-0.555 	-0.333
 6.934 	-0.303 	-0.413
 7.095 	-0.265 	-0.430
 6.986 	-0.761 	-0.446
 7.203 	-0.735 	-0.657
 7.101 	-0.636 	-0.920
 6.623 	-0.083 	-0.124
 6.570 	0.489 	0.168
 6.045 	0.141 	0.671
 4.849 	-0.568 	0.961
 4.730 	-0.983 	1.479
 5.136 	-0.535 	0.293
 4.566 	-0.069 	0.166
 6.879 	-0.112 	0.016
 7.047 	-0.435 	-0.347
 6.947 	-0.459 	0.094
 6.937 	-0.470 	0.149
 7.218 	-0.574 	-0.207
 7.364 	-0.559 	-0.423
 7.011 	-0.848 	-0.520
 6.612 	-0.903 	-0.455
 6.362 	-0.380 	-0.167
 6.622 	0.477 	0.133
 6.460 	-0.083 	0.119
 6.073 	-0.070 	0.454
 5.649 	0.117 	0.422
 6.216 	-0.773 	0.568
 5.956 	-0.519 	1.363
 6.069 	0.098 	0.106
 6.923 	-0.204 	-0.042
 7.153 	-0.334 	-0.322
 7.495 	-0.305 	-0.547
 7.669 	-0.237 	-0.505
 7.372 	-0.270 	-0.319
 6.763 	-0.250 	-0.164
 6.568 	-0.501 	-0.338
 6.514 	-0.947 	-0.143
 6.697 	-0.751 	0.003
 6.791 	-0.410 	-0.008
 6.798 	-0.244 	0.301
 6.955 	-0.372 	0.099
 6.873 	-0.283 	0.070
 6.103 	0.020 	0.461
 6.746 	0.115 	0.574
 6.956 	-0.369 	0.261
 6.239 	-0.534 	-0.313
 6.297 	-0.673 	-0.311
 6.031 	-0.412 	-0.138
 6.054 	0.081 	0.256
 6.014 	-0.056 	0.274
 6.142 	-0.137 	0.171
 6.376 	-0.441 	-0.036
 6.698 	-0.569 	-0.161
 6.819 	-0.606 	-0.052
 6.839 	-0.544 	0.030
 6.843 	-0.253 	0.052
 6.849 	-0.170 	0.294
 6.613 	-0.352 	0.029
 6.640 	-0.403 	-0.052
 6.880 	-0.083 	-0.067
 7.190 	-0.273 	-0.243
 6.953 	-0.633 	-0.236
 6.153 	-0.378 	-0.280
 5.242 	0.203 	0.544
 5.185 	0.070 	0.941
 5.597 	-0.002 	0.748
 6.193 	0.004 	0.003
 6.338 	-0.334 	0.097
 5.864 	-0.270 	0.171
 5.671 	-0.500 	0.232
 6.027 	-0.832 	0.275
 6.024 	-0.252 	0.337
 6.244 	-0.044 	0.801
 6.276 	-0.288 	1.015
 6.668 	-0.611 	0.744
 6.984 	-1.229 	0.185
 7.075 	-1.094 	0.070
 6.007 	-0.326 	-0.214
 5.231 	0.235 	0.122
 5.353 	0.469 	0.651
 6.089 	0.097 	0.065
 6.669 	-0.242 	0.064
 6.983 	-0.233 	-0.063
 6.757 	0.124 	0.152
 6.245 	0.175 	0.211
 6.400 	-0.091 	0.103
 5.319 	-0.498 	0.656
 5.330 	-0.530 	1.180
 5.609 	-0.758 	1.027
 6.575 	-0.778 	0.582
 7.232 	-0.976 	0.289
 7.385 	-1.184 	-0.066
 7.095 	-1.244 	0.037
 5.922 	-0.248 	0.259
 5.709 	0.157 	0.223
 6.410 	0.241 	0.143
 6.824 	0.038 	-0.227
 6.858 	-0.147 	0.107
 6.900 	-0.470 	-0.059
 7.125 	-0.329 	-0.185
 7.496 	0.191 	-0.028
 7.542 	0.333 	-0.133
 7.449 	-0.227 	-0.062
 7.530 	-0.386 	0.073
 7.644 	-0.458 	-0.121
 7.777 	-0.736 	-0.191
 7.777 	-1.002 	-0.292
 7.947 	-0.975 	-0.535
 7.749 	-1.045 	-0.389
 6.998 	0.327 	-0.180
 6.652 	0.378 	-0.173
 6.802 	0.339 	-0.124
 6.572 	-0.148 	0.187
 6.237 	-0.342 	0.323
 6.155 	-0.403 	0.175
 6.348 	-0.504 	-0.314
 6.586 	-0.310 	-0.560
 7.051 	-0.151 	-0.468
 7.433 	-0.125 	-0.116
 7.718 	-0.252 	-0.329
 7.645 	-0.635 	-0.416
 7.634 	-0.969 	-0.374
 7.781 	-1.172 	-0.418
 7.980 	-0.976 	-0.640
 7.620 	-0.672 	-0.600
 6.231 	0.088 	-0.406
 6.552 	0.190 	-0.228
 6.194 	0.171 	0.128
 6.080 	-0.212 	0.684
 6.004 	-0.382 	0.457
 6.145 	-0.310 	0.262
 6.344 	-0.398 	-0.162
 6.498 	-0.483 	-0.466
 6.929 	-0.136 	-0.642
 7.435 	0.028 	-0.809
 7.540 	-0.018 	-0.822
 7.681 	0.011 	-0.804
 7.789 	-0.217 	-0.774
 7.667 	-0.463 	-0.182
 7.468 	-0.639 	0.054
 7.586 	-0.392 	-0.378
 5.780 	1.116 	1.046
 5.983 	1.513 	0.892
 5.535 	1.805 	0.812
 5.518 	1.444 	0.783
 5.817 	1.080 	0.299
 5.550 	0.657 	0.304
 5.731 	0.441 	0.455
 5.989 	0.207 	0.367
 6.225 	0.097 	0.266
 6.596 	-0.086 	0.285
 6.843 	0.341 	0.428
 6.919 	0.451 	0.334
 6.937 	-0.057 	-0.188
 7.003 	-0.209 	-0.346
 6.854 	-0.215 	-0.346
 6.811 	0.139 	-0.074
 4.839 	0.150 	0.553
 5.394 	1.145 	0.516
 5.680 	1.186 	0.573
 5.633 	1.194 	0.401
 5.354 	0.875 	0.753
 5.331 	0.447 	0.720
 5.459 	0.119 	0.672
 5.856 	-0.386 	0.673
 6.407 	-0.569 	0.444
 6.702 	-0.131 	0.147
 6.497 	0.111 	0.246
 6.605 	0.428 	0.498
 6.618 	-0.080 	0.632
 6.751 	-0.469 	0.284
 6.496 	-0.063 	-0.075
 6.237 	0.344 	0.310
 5.964 	0.246 	0.121
 5.686 	0.541 	0.476
 5.355 	0.852 	0.664
 5.460 	1.195 	0.755
 5.533 	1.018 	0.343
 5.600 	0.775 	0.130
 5.682 	0.291 	0.146
 6.277 	-0.414 	0.487
 6.665 	-0.868 	0.544
 6.598 	-0.224 	0.666
 6.793 	0.422 	0.196
 6.657 	0.458 	0.263
 6.594 	-0.242 	0.146
 6.607 	-0.503 	0.361
 6.528 	-0.329 	0.027
 6.481 	0.333 	0.263
 6.859 	0.627 	-0.130
 6.227 	0.677 	0.163
 6.165 	1.000 	0.079
 6.025 	1.253 	-0.098
 5.845 	1.047 	-0.286
 6.077 	0.545 	-0.147
 6.566 	-0.280 	0.141
 6.869 	-0.765 	0.254
 6.862 	-0.683 	0.249
 6.207 	0.117 	0.817
 6.401 	0.168 	0.259
 6.772 	0.095 	-0.233
 6.543 	-0.086 	-0.076
 6.319 	-0.447 	0.498
 6.505 	-0.572 	0.694
 6.514 	-0.247 	0.424
 7.177 	0.740 	0.001
 7.138 	0.991 	-0.225
 6.590 	1.054 	-0.003
 6.490 	1.134 	-0.076
 6.580 	0.826 	-0.017
 6.657 	0.058 	-0.037
 6.595 	-0.314 	0.219
 6.633 	-0.668 	0.445
 6.608 	-0.874 	0.436
 6.855 	-0.297 	0.581
 7.246 	-0.473 	0.305
 6.995 	-0.311 	-0.135
 6.708 	-0.069 	-0.087
 6.576 	-0.513 	0.360
 7.000 	-0.790 	0.736
 7.291 	-0.373 	0.420
 6.678 	0.624 	0.145
 6.681 	0.906 	0.088
 6.663 	1.043 	-0.032
 6.780 	1.103 	0.059
 7.021 	0.515 	-0.212
 7.009 	0.109 	-0.256
 7.027 	-0.233 	0.012
 7.088 	-0.491 	-0.015
 7.131 	-0.663 	-0.221
 7.167 	-0.800 	-0.143
 7.566 	-0.457 	-0.117
 7.383 	-0.280 	-0.157
 7.314 	-0.216 	-0.201
 7.559 	-0.671 	-0.238
 7.708 	-0.711 	-0.037
 7.796 	-0.424 	-0.227
 6.459 	0.677 	0.155
 6.501 	1.009 	0.069
 6.666 	1.169 	-0.067
 6.959 	0.941 	-0.100
 7.341 	0.556 	0.003
 7.290 	0.264 	0.035
 7.368 	-0.044 	-0.312
 7.282 	-0.154 	-0.566
 7.265 	-0.597 	-0.419
 7.241 	-0.627 	-0.257
 6.937 	-0.628 	-0.112
 6.838 	-0.616 	0.274
 7.166 	-0.678 	0.499
 7.040 	-0.543 	1.138
 7.481 	-0.536 	0.782
 7.677 	-0.283 	0.048
 6.651 	0.704 	0.134
 6.675 	0.836 	-0.003
 6.803 	0.450 	-0.051
 7.057 	0.056 	-0.069
 7.274 	-0.030 	0.009
 7.438 	0.076 	0.069
 7.402 	-0.095 	-0.024
 7.300 	-0.294 	-0.276
 7.001 	-0.417 	-0.193
 6.687 	-0.631 	-0.048
 6.202 	-0.873 	0.096
 5.967 	-0.044 	1.023
 6.189 	-0.640 	1.045
 6.545 	-0.837 	0.934
 6.293 	-0.958 	0.575
 6.314 	-0.416 	0.385
 6.865 	0.241 	0.092
 6.923 	0.248 	-0.084
 7.073 	0.041 	-0.161
 7.513 	-0.298 	-0.271
 7.597 	-0.543 	-0.313
 7.544 	-0.502 	-0.173
 7.515 	-0.413 	-0.071
 7.296 	-0.260 	-0.302
 7.452 	-0.667 	0.117
 6.915 	-0.862 	0.441
 6.610 	-0.758 	0.735
 6.635 	-0.390 	0.846
 6.753 	-0.266 	0.724
 7.070 	-0.654 	0.230
 7.229 	-0.812 	0.728
 7.430 	-0.566 	0.709
 7.050 	-0.240 	0.045
 7.346 	-0.370 	-0.150
 7.587 	-0.544 	-0.211
 7.556 	-0.599 	-0.348
 7.358 	-0.597 	-0.428
 7.296 	-0.466 	-0.279
 7.530 	-0.252 	-0.315
 7.725 	-0.033 	-0.453
 7.855 	-0.446 	-0.026
 7.663 	-0.714 	0.275
 7.449 	-0.716 	0.432
 7.144 	-0.748 	0.521
 7.197 	-0.807 	0.542
 7.270 	-1.059 	0.298
 7.479 	-1.000 	0.187
 7.881 	-0.923 	0.064
 7.437 	-0.647 	-0.011
 7.340 	-0.856 	-0.002
 7.205 	-0.539 	0.123
 6.721 	-0.583 	0.199
 6.763 	-0.533 	0.079
 6.973 	-0.454 	-0.125
 7.120 	-0.395 	-0.077
 7.320 	-0.261 	0.035
 7.666 	-0.269 	0.134
 7.884 	-0.398 	0.208
 7.677 	-0.567 	0.307
 7.184 	-0.737 	0.298
 7.137 	-0.891 	0.274
 7.227 	-1.205 	0.191
 7.122 	-1.542 	0.187
 7.762 	-1.310 	-0.442
 7.403 	-0.483 	0.051
 6.990 	-0.614 	0.123
 6.477 	-0.536 	0.461
 6.466 	-0.371 	0.550
 6.907 	-0.729 	0.296
 7.104 	-0.718 	0.075
 7.293 	-0.333 	-0.086
 7.353 	-0.293 	-0.160
 7.163 	-0.189 	0.382
 6.774 	-0.419 	0.478
 6.611 	-0.893 	0.530
 6.716 	-0.940 	0.535
 6.975 	-1.009 	0.431
 7.116 	-1.083 	0.358
 7.169 	-1.290 	0.290
 7.312 	-1.425 	-0.047
 6.703 	-0.270 	0.219
 6.550 	-0.354 	0.296
 6.661 	-0.459 	0.339
 6.912 	-0.772 	0.280
 6.828 	-0.961 	0.120
 6.802 	-0.972 	0.115
 6.911 	-0.710 	0.090
 7.124 	-0.354 	0.085
 7.368 	-0.004 	0.111
 7.364 	-0.011 	0.376
 7.181 	-0.303 	0.591
 7.328 	-0.567 	0.447
 7.523 	-0.719 	0.271
 7.680 	-0.763 	-0.139
 7.703 	-0.923 	0.051
 7.466 	-1.292 	0.122
 6.599 	-0.064 	0.183
 6.603 	-0.302 	0.199
 6.651 	-0.570 	0.062
 6.367 	-0.894 	-0.059
 6.156 	-1.169 	0.091
 6.387 	-0.975 	-0.112
 6.576 	-0.748 	-0.177
 6.806 	-0.560 	0.049
 7.166 	-0.311 	0.222
 7.709 	-0.194 	0.222
 8.089 	-0.309 	-0.164
 7.938 	-0.442 	-0.646
 7.885 	-0.462 	-0.689
 7.946 	-0.517 	-0.436
 7.654 	-0.653 	-0.384
 7.487 	-0.844 	-0.555
 6.308 	-0.077 	0.016
 6.468 	-0.504 	-0.057
 6.453 	-0.831 	-0.107
 6.166 	-0.696 	0.251
 6.209 	-1.146 	0.285
 6.365 	-1.224 	0.022
 6.691 	-1.235 	-0.286
 7.033 	-1.165 	-0.588
 7.482 	-0.503 	-0.585
 7.797 	-0.065 	-0.612
 7.945 	0.171 	-0.696
 7.966 	0.217 	-0.820
 7.838 	0.048 	-0.912
 7.631 	-0.142 	-0.933
 7.767 	-0.542 	-0.735
 7.804 	-0.768 	-0.517
 6.502 	-0.789 	0.043
 6.164 	-0.873 	0.156
 5.921 	-0.683 	0.659
 6.066 	-0.596 	0.846
 6.396 	-0.997 	0.556
 6.655 	-1.381 	0.039
 6.871 	-1.115 	-0.436
 6.884 	-1.132 	-0.532
 6.977 	-1.287 	-0.723
 7.552 	-0.364 	-0.928
 8.004 	0.196 	-1.121
 8.071 	0.198 	-1.238
 7.790 	0.059 	-1.156
 8.160 	-0.281 	-0.383
 8.128 	-0.573 	-0.313
 7.946 	-0.977 	-0.547
 5.230 	0.492 	1.184
 5.399 	1.107 	1.117
 5.760 	1.212 	0.716
 6.294 	1.274 	0.351
 6.539 	1.202 	0.209
 6.511 	0.946 	0.247
 6.263 	0.745 	0.243
 6.177 	0.629 	0.172
 6.349 	0.581 	0.233
 6.576 	0.411 	0.301
 6.811 	0.304 	0.414
 6.910 	0.205 	0.262
 6.862 	-0.022 	0.034
 6.966 	-0.260 	-0.071
 7.064 	-0.297 	-0.301
 7.073 	-0.326 	-0.259
 5.188 	0.557 	0.459
 5.411 	0.908 	0.870
 5.788 	1.055 	0.918
 5.901 	1.089 	0.703
 5.645 	1.255 	0.720
 5.519 	1.251 	0.535
 5.712 	1.121 	0.547
 5.856 	0.672 	0.352
 6.188 	0.386 	0.190
 6.632 	0.079 	0.193
 6.784 	0.093 	0.367
 6.948 	-0.049 	0.367
 7.077 	-0.153 	0.482
 7.018 	-0.419 	0.369
 7.092 	-0.493 	0.402
 6.997 	-0.142 	0.133
 6.351 	0.291 	0.330
 6.187 	0.528 	0.328
 6.069 	0.747 	0.502
 5.872 	1.258 	0.689
 5.672 	1.396 	0.505
 5.699 	1.329 	0.187
 5.809 	1.073 	0.096
 6.028 	0.580 	0.401
 6.490 	-0.158 	0.857
 6.769 	-0.678 	0.821
 7.060 	-0.397 	0.473
 7.178 	-0.078 	0.323
 7.225 	-0.032 	0.242
 7.286 	-0.290 	0.203
 7.056 	-0.497 	0.208
 7.137 	-0.158 	0.398
 7.064 	0.702 	0.103
 6.679 	0.678 	0.289
 6.475 	0.893 	0.157
 6.248 	1.289 	0.162
 6.079 	1.160 	-0.042
 6.026 	1.103 	0.009
 6.256 	0.713 	0.144
 6.564 	0.344 	0.199
 6.817 	-0.286 	0.157
 7.133 	-0.602 	0.484
 7.323 	-0.534 	0.375
 7.316 	-0.377 	0.169
 6.960 	-0.312 	0.232
 6.804 	-0.278 	0.326
 6.663 	-0.332 	0.363
 6.600 	-0.113 	0.432
 6.856 	0.646 	0.075
 7.176 	1.075 	0.026
 7.028 	1.098 	0.096
 6.775 	1.057 	0.076
 6.708 	0.961 	0.135
 6.647 	0.799 	0.069
 6.732 	0.450 	0.040
 6.994 	0.020 	0.177