# vtk DataFile Version 3.0
HighT1
ASCII
DATASET STRUCTURED_POINTS
DIMENSIONS 16 16 19
ORIGIN 929.001000000000 929.001000000000 5.001000000000
SPACING 10.000000000000 10.000000000000 10.000000000000
POINT_DATA 4864
 FIELD attributes 1
U 3 4864 float
2.624 	0.594 	0.621
 3.059 	-0.036 	0.044
 3.244 	-0.953 	-0.095
 2.878 	-0.718 	0.149
 3.011 	-0.339 	0.171
 3.177 	-0.386 	0.353
 3.092 	-0.262 	0.271
 3.231 	-0.211 	0.212
 3.209 	-0.566 	0.066
 3.303 	-0.707 	-0.095
 3.561 	-0.356 	-0.118
 3.431 	-0.465 	0.144
 3.750 	-0.293 	0.130
 3.956 	-0.244 	0.152
 3.760 	-0.302 	0.020
 3.559 	-0.043 	-0.101
 3.464 	-0.047 	-0.567
 4.209 	-0.193 	-0.539
 4.633 	-0.081 	-0.349
 4.940 	0.665 	-0.626
 4.627 	-0.048 	0.038
 3.989 	-0.646 	0.149
 3.345 	-0.157 	-0.062
 2.904 	0.012 	-0.015
 2.815 	-0.220 	-0.037
 3.160 	-0.450 	-0.048
 3.529 	-0.555 	0.166
 4.461 	-0.855 	-0.180
 4.748 	-1.075 	0.062
 4.672 	-0.477 	0.048
 3.873 	-0.357 	0.111
 3.155 	-0.468 	0.089
 3.811 	0.382 	-0.378
 3.960 	0.351 	-0.245
 4.187 	0.278 	-0.042
 4.260 	0.300 	0.100
 5.256 	1.198 	-0.170
 4.194 	0.326 	0.394
 3.302 	0.378 	0.308
 3.727 	-0.378 	0.474
 4.416 	-1.177 	0.394
 4.596 	-1.003 	0.112
 4.367 	-0.830 	0.044
 3.573 	-1.605 	0.022
 3.265 	-0.473 	0.326
 3.167 	-0.265 	0.253
 3.593 	-0.544 	0.018
 4.230 	-1.087 	0.088
 3.226 	0.135 	0.081
 3.902 	0.334 	-0.109
 4.523 	0.534 	-0.501
 4.688 	0.542 	-0.405
 4.702 	0.668 	0.038
 5.012 	1.204 	0.026
 5.045 	0.471 	-0.034
 5.304 	-0.457 	0.047
 4.861 	-0.652 	0.138
 4.974 	-1.124 	0.035
 4.718 	-1.137 	0.061
 3.869 	-1.066 	-0.151
 3.872 	-0.521 	-0.029
 3.507 	-0.479 	0.273
 3.509 	-1.289 	0.297
 4.280 	-1.857 	0.335
 3.319 	-0.207 	0.136
 3.283 	0.042 	0.120
 3.506 	0.553 	0.013
 4.195 	0.813 	-0.200
 4.829 	0.851 	-0.077
 5.046 	0.631 	-0.009
 5.321 	0.005 	0.068
 5.212 	-0.425 	-0.206
 4.390 	-0.283 	-0.049
 3.910 	-0.193 	0.049
 3.503 	-1.050 	0.131
 3.050 	-1.048 	0.037
 2.389 	-0.578 	0.704
 3.271 	-0.679 	0.572
 4.945 	-1.631 	-0.206
 6.003 	-1.415 	-0.923
 3.636 	-0.059 	-0.141
 3.666 	0.045 	-0.176
 3.877 	0.107 	-0.054
 4.160 	0.369 	-0.019
 4.423 	0.568 	-0.013
 4.702 	0.517 	-0.057
 4.588 	0.091 	-0.062
 4.378 	0.031 	-0.069
 4.330 	0.234 	0.154
 4.189 	0.235 	-0.103
 4.189 	0.089 	-0.171
 4.656 	-0.196 	-0.260
 5.402 	-0.754 	-0.197
 5.840 	-0.906 	-0.436
 6.514 	-0.613 	-1.221
 6.642 	-0.970 	-0.319
 3.068 	-0.224 	0.328
 3.371 	-0.385 	0.339
 3.759 	-0.513 	0.372
 3.612 	-0.405 	0.517
 3.960 	0.022 	0.181
 4.274 	0.241 	0.103
 4.573 	-0.061 	0.087
 4.652 	-0.264 	0.094
 4.618 	-0.751 	0.201
 4.828 	-0.654 	0.112
 5.021 	-0.171 	0.130
 5.619 	0.067 	-0.336
 5.628 	-0.386 	-0.286
 5.459 	-0.583 	-0.328
 5.833 	-0.465 	-0.944
 6.236 	-0.555 	-0.194
 4.520 	-0.042 	-0.306
 4.751 	-0.123 	-0.318
 4.999 	-0.137 	-0.211
 5.276 	-0.054 	-0.202
 5.699 	-0.100 	-0.085
 5.601 	-0.303 	0.124
 5.006 	-0.344 	0.140
 5.136 	-0.742 	-0.071
 5.555 	-0.622 	-0.366
 5.890 	-0.450 	-0.336
 5.837 	-0.365 	-0.171
 5.350 	-0.081 	-0.156
 6.302 	0.157 	-0.532
 5.632 	-0.557 	-0.207
 5.019 	0.114 	-0.032
 4.471 	-0.236 	0.269
 4.336 	-0.002 	-0.207
 4.499 	-0.155 	-0.130
 4.760 	0.007 	-0.100
 5.085 	-0.120 	-0.138
 5.373 	0.023 	0.039
 4.921 	0.015 	0.070
 4.632 	-0.402 	-0.048
 4.804 	-0.263 	-0.383
 4.915 	-0.292 	-0.297
 5.051 	-0.212 	-0.024
 5.215 	-0.037 	-0.018
 5.696 	-0.338 	-0.363
 5.715 	0.652 	-0.006
 4.759 	0.579 	0.181
 4.033 	0.161 	0.162
 4.671 	0.041 	0.100
 4.421 	0.090 	-0.359
 4.747 	0.336 	-0.344
 4.449 	0.349 	-0.036
 5.158 	-0.071 	-0.113
 5.597 	-0.368 	0.105
 5.243 	-0.033 	0.119
 4.582 	-0.276 	0.082
 4.083 	0.053 	-0.012
 4.066 	-0.057 	-0.097
 4.161 	-0.341 	0.067
 5.030 	0.071 	-0.047
 5.121 	0.694 	-0.121
 5.248 	0.793 	-0.085
 5.329 	1.119 	0.314
 5.090 	0.926 	-0.265
 4.984 	0.758 	0.079
 3.719 	-0.067 	-0.022
 4.770 	0.432 	-0.078
 4.874 	0.449 	-0.247
 4.486 	-0.105 	0.501
 4.836 	-0.006 	0.171
 4.096 	-0.300 	0.302
 4.115 	-0.047 	0.240
 3.930 	-0.463 	0.350
 4.483 	-0.445 	0.098
 5.387 	-0.259 	-0.289
 5.867 	-0.379 	-0.124
 4.902 	0.382 	-0.013
 5.317 	-0.127 	0.008
 5.208 	0.804 	0.207
 5.335 	0.879 	-0.089
 6.135 	0.862 	-0.245
 4.043 	0.396 	-0.277
 3.707 	0.271 	0.077
 3.375 	-0.081 	0.160
 3.544 	-0.243 	0.347
 2.937 	-1.189 	0.116
 3.540 	-1.359 	-0.253
 4.012 	-1.358 	-0.567
 5.314 	-0.431 	-0.990
 5.361 	-0.392 	-0.708
 5.717 	0.077 	-0.747
 5.900 	0.434 	-0.171
 5.132 	0.530 	0.053
 5.192 	0.649 	0.056
 5.429 	0.766 	0.098
 5.536 	0.416 	-0.253
 5.344 	1.191 	0.266
 3.854 	0.555 	-0.106
 3.772 	0.819 	0.278
 4.084 	0.152 	-0.363
 5.243 	-0.206 	0.153
 4.771 	-1.270 	0.338
 3.140 	-0.723 	-0.124
 3.274 	-1.003 	0.072
 3.502 	-0.124 	-0.185
 4.183 	0.448 	-0.003
 4.398 	0.663 	0.253
 4.270 	0.955 	0.357
 4.044 	1.240 	-0.055
 3.273 	1.135 	0.030
 3.733 	0.505 	-0.259
 4.394 	0.340 	-0.023
 4.967 	1.466 	0.341
 5.213 	0.528 	-0.551
 5.241 	0.333 	0.137
 6.052 	0.156 	-0.535
 5.427 	0.058 	-0.005
 4.878 	-0.396 	0.105
 3.936 	-0.128 	-0.081
 3.746 	-0.098 	-0.164
 2.904 	-0.317 	0.005
 3.053 	-0.008 	0.451
 3.096 	0.731 	0.164
 3.322 	0.349 	0.081
 3.714 	1.079 	0.062
 3.950 	1.121 	-0.054
 3.933 	0.093 	-0.177
 4.074 	0.447 	0.135
 4.199 	0.142 	-0.087
 4.841 	0.063 	-0.337
 5.344 	0.159 	-0.171
 5.748 	0.651 	-0.182
 6.041 	0.594 	-0.108
 4.481 	0.224 	0.126
 3.070 	-0.488 	0.212
 3.935 	0.078 	-0.214
 3.921 	-0.262 	0.004
 3.962 	0.027 	0.173
 4.481 	-0.676 	0.172
 4.031 	0.018 	0.386
 3.765 	1.035 	0.034
 3.420 	0.079 	-0.027
 3.407 	0.139 	0.370
 3.162 	-0.075 	0.427
 3.257 	0.031 	0.197
 3.338 	0.620 	0.828
 4.232 	1.107 	0.486
 4.834 	1.137 	0.299
 5.355 	1.785 	-0.643
 5.174 	0.962 	0.237
 4.247 	-0.191 	0.100
 5.028 	0.251 	0.018
 4.830 	-0.459 	-0.090
 5.076 	-0.000 	-0.691
 5.395 	0.344 	0.293
 4.355 	-0.143 	-0.046
 2.997 	0.221 	0.520
 2.846 	1.081 	-0.036
 3.867 	0.280 	-0.353
 3.745 	-0.311 	0.019
 3.355 	-0.444 	0.033
 3.222 	1.364 	0.650
 3.927 	1.034 	0.519
 4.667 	0.029 	-0.678
 4.994 	-0.086 	-0.195
 5.132 	1.453 	-0.007
 4.132 	0.772 	0.714
 3.816 	0.463 	0.590
 3.739 	0.685 	0.472
 3.803 	0.764 	0.130
 4.109 	0.516 	-0.092
 4.478 	0.029 	-0.162
 5.059 	-0.401 	-0.098
 5.052 	-0.847 	-0.156
 4.969 	-0.433 	0.091
 4.195 	-0.140 	0.127
 4.248 	0.371 	0.194
 4.518 	0.867 	-0.437
 5.202 	0.594 	-0.829
 4.604 	-0.056 	-0.281
 4.616 	-0.515 	-0.692
 4.888 	1.475 	0.062
 4.692 	0.653 	0.075
 4.915 	0.492 	0.118
 4.429 	0.599 	0.050
 4.675 	0.269 	-0.428
 4.793 	0.055 	-0.374
 4.796 	0.364 	-0.179
 4.551 	0.411 	0.262
 4.993 	-1.142 	0.876
 5.442 	-0.843 	0.514
 5.078 	-0.014 	0.495
 5.387 	0.396 	0.124
 5.769 	-0.015 	-0.405
 4.851 	0.215 	-0.313
 4.516 	0.276 	0.120
 4.588 	-0.441 	-0.233
 4.957 	0.704 	-0.450
 5.525 	0.836 	-0.360
 4.870 	0.805 	0.235
 4.151 	0.707 	-0.029
 4.224 	0.918 	-0.216
 4.504 	0.192 	0.087
 5.118 	-0.264 	-0.083
 5.501 	-0.305 	0.027
 6.165 	-1.277 	0.029
 5.270 	-0.728 	1.001
 4.168 	-0.261 	0.662
 4.407 	0.488 	0.253
 6.269 	0.753 	-0.574
 6.441 	0.690 	-0.605
 6.126 	0.519 	-1.043
 5.212 	0.066 	0.128
 4.951 	0.332 	-0.458
 4.875 	1.035 	-0.158
 4.402 	1.234 	0.391
 4.348 	0.897 	-0.042
 5.142 	0.647 	-0.415
 5.764 	-0.611 	0.116
 6.279 	-0.880 	-0.024
 6.062 	-0.857 	0.150
 5.816 	-0.550 	0.286
 6.173 	-0.532 	0.307
 5.587 	-0.337 	0.413
 5.543 	0.434 	0.282
 5.330 	1.087 	-0.049
 5.740 	1.016 	-0.142
 6.188 	0.764 	-0.391
 5.995 	0.681 	-0.043
 4.905 	0.712 	-0.175
 5.056 	1.098 	-0.508
 5.673 	0.913 	-0.247
 6.329 	0.412 	-0.294
 6.377 	-0.040 	-0.374
 6.663 	-0.143 	-0.369
 6.698 	-0.446 	-0.212
 6.337 	-0.804 	0.270
 6.209 	-0.356 	0.269
 6.458 	0.073 	-0.347
 6.487 	-0.368 	-0.707
 6.608 	-0.171 	-0.560
 5.806 	0.944 	-0.280
 5.943 	0.872 	-0.269
 5.812 	0.712 	-0.112
 5.906 	0.675 	-0.167
 5.954 	0.557 	-0.076
 5.857 	0.781 	0.167
 6.148 	0.751 	0.221
 6.385 	0.486 	0.060
 6.588 	0.290 	-0.087
 6.740 	0.361 	-0.292
 6.799 	0.263 	-0.736
 6.826 	-0.202 	-0.056
 6.543 	-0.563 	-0.043
 6.605 	-0.604 	-0.394
 6.536 	-0.741 	-0.926
 6.616 	-0.215 	-0.343
 4.283 	0.778 	0.146
 4.013 	0.771 	0.170
 4.166 	0.685 	0.068
 4.109 	0.350 	0.234
 4.275 	0.466 	0.429
 4.319 	0.619 	0.563
 4.753 	0.511 	0.641
 5.343 	0.628 	0.550
 6.139 	0.746 	-0.097
 6.606 	1.051 	-0.643
 6.736 	0.352 	-0.650
 6.734 	-0.054 	-0.287
 6.418 	-0.773 	-0.430
 7.030 	-0.870 	-0.650
 6.942 	-0.992 	-0.815
 6.473 	-0.722 	-0.582
 5.366 	0.370 	-0.070
 5.659 	0.357 	-0.418
 5.866 	0.339 	-0.507
 6.348 	-0.121 	-0.544
 6.551 	0.369 	-0.562
 6.190 	0.725 	-0.326
 6.045 	0.379 	-0.109
 6.157 	0.507 	-0.241
 6.400 	0.612 	-0.519
 6.295 	0.994 	-0.488
 6.641 	0.132 	-0.249
 6.422 	-0.321 	-0.199
 6.807 	-0.369 	-0.846
 7.189 	-0.391 	-0.262
 6.845 	-0.590 	-0.278
 6.497 	-0.147 	-0.061
 5.666 	0.129 	-0.281
 5.520 	0.283 	-0.059
 5.730 	-0.129 	0.195
 5.898 	-0.240 	0.305
 6.161 	0.049 	0.185
 6.544 	0.473 	0.042
 6.551 	0.438 	-0.423
 6.652 	0.278 	-0.670
 6.834 	0.778 	-0.846
 6.827 	0.940 	-0.546
 6.620 	-0.373 	-0.096
 6.578 	-0.329 	-0.174
 7.100 	-0.372 	-0.453
 6.271 	0.088 	0.152
 5.486 	0.076 	-0.055
 5.428 	0.490 	-0.090
 6.330 	0.397 	-0.493
 5.651 	-0.449 	0.055
 5.823 	-0.067 	0.001
 5.695 	-0.125 	-0.103
 6.220 	0.273 	0.143
 6.328 	0.631 	0.190
 6.790 	0.511 	-0.098
 6.655 	0.602 	0.046
 6.673 	0.286 	-0.199
 7.344 	0.400 	-0.189
 6.598 	0.230 	0.274
 6.130 	-0.533 	-0.163
 5.781 	-0.404 	-0.063
 5.862 	0.424 	0.287
 6.028 	0.453 	-0.248
 5.627 	0.074 	-0.329
 6.072 	0.292 	0.097
 6.175 	-0.507 	-0.308
 5.507 	-0.433 	-0.109
 4.640 	-0.259 	0.663
 4.039 	-0.693 	1.338
 5.546 	0.525 	0.444
 6.244 	0.698 	-0.006
 6.565 	0.907 	-0.034
 6.808 	0.412 	-0.508
 6.573 	0.767 	-0.721
 6.483 	0.496 	0.126
 6.134 	0.045 	-0.138
 5.747 	0.059 	-0.072
 6.447 	0.160 	0.218
 6.818 	0.428 	-0.023
 5.925 	1.149 	-0.293
 6.553 	-0.431 	-0.200
 6.446 	-0.775 	0.243
 5.639 	0.184 	-0.047
 5.774 	-0.377 	0.155
 7.010 	0.194 	-0.023
 5.313 	0.118 	0.353
 5.845 	0.896 	-0.633
 6.176 	0.310 	-0.832
 6.170 	0.090 	-0.635
 5.507 	-0.208 	-0.316
 5.304 	0.288 	-0.210
 4.720 	0.483 	0.105
 3.882 	-0.559 	-0.083
 4.509 	-0.384 	0.158
 4.996 	0.067 	0.290
 5.393 	0.871 	-0.100
 6.538 	-0.487 	-0.392
 6.658 	-0.560 	0.337
 6.708 	-0.012 	-0.788
 6.437 	0.362 	-0.003
 5.300 	-0.510 	0.966
 6.255 	-0.249 	-0.242
 5.824 	-0.532 	0.197
 6.014 	-0.422 	-0.247
 4.959 	-0.120 	0.051
 4.829 	-0.243 	0.073
 4.609 	0.463 	0.201
 3.906 	0.586 	0.484
 4.527 	0.071 	-0.526
 5.093 	-0.247 	-0.335
 5.062 	-0.599 	-0.032
 5.035 	-0.355 	0.366
 6.072 	-0.419 	-0.019
 6.408 	-0.519 	-0.323
 6.487 	0.057 	-0.562
 7.018 	0.291 	-0.358
 6.140 	0.061 	0.428
 6.683 	0.310 	0.292
 6.091 	0.236 	-0.208
 5.901 	0.418 	-0.336
 5.324 	-0.494 	0.564
 5.363 	-1.266 	-0.425
 5.208 	0.129 	0.634
 3.891 	0.927 	1.083
 4.304 	-0.050 	-0.096
 5.032 	-0.778 	-0.556
 5.235 	-0.521 	-0.130
 4.814 	0.105 	0.442
 5.807 	-0.200 	-0.345
 5.906 	-0.570 	-0.386
 6.013 	-0.148 	-0.198
 5.784 	0.760 	-0.526
 5.912 	0.490 	0.964
 6.350 	0.226 	-0.064
 6.156 	0.685 	-0.389
 5.342 	0.554 	0.482
 5.194 	-0.347 	0.274
 5.428 	-0.183 	-0.420
 4.466 	0.527 	0.514
 4.088 	0.692 	1.297
 4.507 	-0.109 	-0.009
 3.872 	-0.044 	-0.363
 3.675 	-0.229 	0.485
 3.375 	-0.918 	0.572
 5.260 	-0.633 	0.037
 5.313 	-0.219 	-0.459
 4.983 	-0.573 	-0.132
 4.872 	1.093 	-0.390
 5.669 	1.470 	0.122
 6.110 	0.508 	-0.940
 5.912 	1.041 	-0.535
 6.159 	0.641 	-0.162
 5.635 	0.092 	-0.450
 5.009 	0.527 	0.413
 5.296 	0.325 	0.312
 5.552 	-0.201 	0.424
 5.599 	0.308 	-0.724
 4.667 	1.111 	-0.605
 4.972 	0.195 	0.572
 4.956 	-0.411 	0.208
 6.199 	-0.337 	-0.596
 6.113 	0.207 	0.378
 5.523 	-0.125 	0.039
 5.780 	0.265 	0.333
 5.169 	0.956 	0.415
 5.424 	1.853 	1.035
 4.937 	1.164 	0.848
 4.736 	0.791 	0.570
 4.638 	0.787 	0.224
 4.751 	1.589 	0.312
 5.171 	1.135 	-0.342
 5.354 	0.472 	-0.461
 5.650 	0.116 	-0.476
 5.494 	0.090 	0.389
 5.336 	-0.241 	0.709
 4.484 	0.670 	0.460
 5.680 	0.295 	-0.371
 5.896 	0.279 	-0.217
 5.216 	0.199 	-0.277
 4.609 	-0.221 	-0.479
 5.259 	0.701 	0.285
 5.378 	1.185 	0.686
 5.346 	1.307 	0.618
 5.158 	0.685 	-0.011
 4.936 	0.495 	-0.170
 5.236 	0.896 	-0.056
 5.549 	0.724 	-0.209
 5.584 	0.496 	0.047
 5.118 	0.516 	0.395
 5.189 	-0.183 	0.923
 6.289 	-0.214 	0.214
 6.300 	0.453 	0.483
 6.735 	0.096 	-0.338
 5.859 	0.904 	-0.310
 5.661 	0.399 	-0.127
 5.198 	-0.023 	0.040
 4.895 	0.074 	0.174
 5.483 	0.775 	-0.484
 5.511 	1.127 	0.091
 6.080 	1.004 	-0.358
 5.429 	0.778 	-0.248
 4.477 	0.987 	0.102
 4.592 	0.262 	0.077
 5.152 	0.063 	0.429
 4.962 	0.324 	0.021
 5.079 	0.116 	0.819
 5.234 	-0.476 	1.099
 5.558 	-0.213 	0.378
 7.023 	0.247 	-0.396
 6.330 	0.858 	-0.363
 5.890 	0.465 	-0.449
 5.997 	-0.135 	-0.254
 6.018 	-0.347 	-0.417
 5.307 	0.603 	0.278
 5.206 	1.069 	-0.048
 4.837 	1.109 	0.026
 4.980 	1.010 	-0.037
 5.623 	0.758 	-0.192
 6.003 	0.119 	0.150
 5.324 	-0.066 	0.120
 5.366 	0.054 	0.033
 5.381 	-0.008 	-0.413
 5.576 	-0.370 	0.255
 5.685 	-0.296 	1.030
 6.557 	0.514 	-0.164
 6.568 	0.466 	-0.199
 6.584 	0.461 	0.034
 6.005 	0.260 	0.015
 6.159 	0.156 	-0.356
 5.912 	0.544 	0.017
 5.408 	1.152 	-0.027
 5.891 	1.146 	-0.595
 6.496 	0.711 	-0.862
 7.361 	0.079 	-0.822
 7.350 	0.276 	-0.484
 6.782 	-0.039 	-0.014
 6.488 	-0.257 	0.291
 6.286 	-0.638 	-0.049
 6.080 	-0.218 	-0.336
 6.262 	-0.135 	-0.138
 6.861 	0.678 	-0.264
 6.397 	0.176 	0.026
 6.083 	0.127 	0.152
 6.009 	0.078 	0.140
 6.185 	0.131 	-0.188
 6.531 	0.288 	-0.143
 6.848 	0.702 	0.025
 6.713 	0.607 	-0.054
 6.719 	0.036 	-0.398
 7.013 	-0.288 	-0.538
 7.102 	0.298 	-0.575
 7.230 	0.180 	-0.375
 6.952 	-0.114 	0.177
 6.973 	-0.778 	-0.133
 6.902 	-0.877 	-0.565
 6.539 	-0.529 	-0.249
 5.902 	0.408 	0.090
 5.971 	0.610 	0.162
 6.008 	0.363 	0.030
 6.130 	0.133 	-0.068
 6.222 	0.085 	0.148
 6.681 	0.447 	0.179
 6.843 	0.633 	0.226
 6.613 	0.920 	-0.119
 6.434 	0.015 	-0.684
 6.196 	-0.373 	-1.039
 6.462 	-0.080 	-0.836
 6.656 	0.052 	-0.048
 6.833 	-0.330 	-0.222
 6.531 	-1.164 	-0.447
 6.888 	-0.833 	-0.740
 7.011 	-0.721 	-0.689
 5.832 	-0.112 	-0.080
 6.227 	0.248 	-0.073
 6.199 	0.183 	-0.146
 6.471 	-0.148 	-0.174
 6.427 	0.298 	0.012
 6.687 	0.634 	0.017
 7.098 	0.789 	-0.033
 7.164 	1.059 	-0.334
 6.921 	0.251 	-0.297
 6.431 	0.134 	0.021
 6.276 	-0.010 	-0.104
 6.486 	-0.262 	-0.362
 6.786 	-0.684 	-0.557
 6.537 	-1.078 	-0.422
 6.282 	-0.838 	-0.527
 6.479 	-0.447 	-0.405
 5.862 	-0.072 	-0.203
 6.001 	-0.326 	-0.014
 6.399 	-0.239 	-0.032
 6.687 	-0.598 	0.013
 6.731 	-0.050 	-0.007
 6.521 	0.311 	0.012
 6.445 	0.763 	-0.174
 6.774 	0.957 	0.021
 6.809 	0.137 	-0.188
 6.855 	-0.138 	0.092
 6.658 	0.333 	0.296
 6.614 	-0.592 	-0.169
 6.665 	-0.579 	-0.076
 6.426 	-0.767 	-0.361
 6.436 	-0.455 	0.131
 6.385 	0.458 	0.114
 5.173 	-0.256 	-0.046
 5.300 	-0.495 	0.305
 5.420 	-0.365 	0.196
 5.887 	-0.291 	0.226
 6.051 	-0.080 	0.060
 6.169 	0.232 	0.095
 6.171 	0.481 	0.075
 6.270 	-0.272 	-0.258
 6.953 	-0.489 	-0.483
 7.144 	0.137 	-0.502
 6.748 	0.028 	-0.311
 6.209 	-0.244 	-0.203
 5.938 	-0.522 	0.164
 6.234 	-0.384 	0.284
 6.348 	-0.154 	-0.258
 6.360 	0.807 	0.160
 5.797 	-0.548 	0.422
 5.973 	-0.809 	0.104
 5.771 	-0.621 	0.148
 5.873 	-0.504 	0.117
 6.028 	-0.535 	0.962
 6.401 	-0.717 	0.663
 6.366 	0.039 	0.239
 6.555 	-0.617 	-0.426
 6.726 	-0.538 	-0.764
 5.942 	0.214 	-0.203
 6.032 	0.156 	0.277
 5.538 	0.014 	0.379
 4.787 	-0.652 	0.142
 5.014 	-0.358 	-0.211
 5.371 	-0.436 	-0.207
 6.389 	0.629 	0.092
 6.658 	-0.854 	-0.179
 6.626 	-0.532 	0.089
 6.414 	-0.796 	0.151
 6.559 	0.000 	-0.288
 5.580 	-0.461 	0.099
 6.292 	-0.513 	0.514
 6.066 	-0.270 	0.194
 6.593 	-0.312 	-0.476
 6.243 	0.221 	-0.343
 5.640 	0.055 	0.664
 4.702 	0.139 	0.499
 4.822 	-0.055 	0.279
 5.463 	-0.111 	-0.509
 4.866 	-0.912 	0.335
 4.729 	-1.257 	0.852
 5.247 	-0.434 	0.646
 6.495 	-0.783 	-0.435
 6.954 	-0.346 	-0.407
 6.510 	0.007 	-0.150
 5.868 	0.378 	0.091
 5.918 	-0.035 	0.315
 6.013 	0.014 	0.202
 5.960 	-0.243 	-0.266
 6.011 	-0.321 	0.269
 5.691 	0.428 	0.343
 4.875 	0.090 	0.705
 5.236 	0.100 	0.408
 5.395 	0.325 	-0.030
 5.067 	0.088 	-0.553
 5.033 	-0.336 	-0.276
 5.034 	-1.127 	0.101
 5.281 	-1.216 	-0.383
 5.728 	-0.979 	-0.459
 6.069 	-0.933 	-0.170
 6.411 	-0.031 	-0.362
 6.501 	0.313 	0.035
 6.443 	0.219 	0.150
 5.920 	0.386 	0.159
 6.103 	-0.594 	-0.102
 5.923 	0.241 	0.588
 5.487 	0.857 	0.126
 4.616 	-0.355 	-0.007
 4.642 	0.208 	0.967
 5.567 	0.092 	0.178
 5.663 	-0.313 	-0.266
 6.158 	-0.121 	-0.562
 6.485 	-0.510 	-0.339
 5.122 	-0.960 	0.050
 5.631 	-0.811 	-0.160
 5.109 	-1.018 	-0.358
 5.711 	-0.456 	-0.145
 5.966 	-0.050 	-0.445
 6.243 	0.039 	-0.244
 6.746 	0.205 	-0.275
 6.731 	0.308 	-0.129
 6.404 	0.565 	0.043
 6.571 	0.810 	0.113
 6.126 	0.071 	-0.099
 5.753 	0.705 	0.771
 6.534 	0.181 	0.647
 6.459 	-0.011 	-0.171
 6.080 	0.035 	-0.058
 5.028 	0.369 	0.320
 4.877 	0.024 	0.416
 4.862 	-0.749 	0.021
 5.092 	-0.669 	-0.422
 5.102 	-0.572 	0.004
 4.904 	-0.577 	-0.307
 5.200 	-0.339 	-0.606
 5.681 	0.025 	-0.777
 6.073 	0.543 	-0.577
 6.479 	0.734 	-0.325
 6.583 	0.656 	-0.183
 6.772 	0.445 	0.054
 6.721 	-0.012 	0.356
 6.686 	-0.040 	0.207
 6.275 	0.092 	-0.065
 6.021 	0.349 	-0.192
 5.992 	0.850 	-0.110
 6.099 	0.401 	-0.054
 6.105 	-0.141 	-0.003
 5.890 	-0.184 	0.181
 5.907 	0.100 	0.103
 5.303 	-0.016 	-0.192
 5.880 	0.210 	0.457
 5.636 	0.566 	0.847
 5.875 	1.733 	0.865
 5.964 	0.660 	0.897
 5.840 	0.860 	0.673
 5.905 	1.688 	0.041
 6.028 	1.339 	0.012
 5.789 	0.633 	-0.270
 5.673 	0.645 	-0.417
 5.690 	0.618 	-0.247
 5.724 	0.332 	0.270
 5.657 	0.153 	0.295
 6.745 	-0.321 	-0.491
 6.292 	0.293 	-0.212
 5.594 	0.248 	-0.103
 5.237 	0.383 	-0.090
 4.787 	0.045 	0.180
 5.589 	0.536 	0.786
 5.920 	1.000 	1.195
 6.114 	0.937 	0.631
 5.272 	0.711 	0.326
 5.435 	1.483 	0.298
 5.401 	0.948 	0.059
 5.196 	0.197 	0.395
 5.656 	0.449 	0.529
 5.803 	0.604 	0.638
 5.396 	1.096 	0.663
 5.599 	0.947 	0.315
 6.362 	0.010 	-0.026
 6.006 	0.987 	-0.120
 5.182 	0.287 	0.230
 5.255 	0.394 	0.264
 5.562 	0.050 	0.230
 5.573 	0.060 	0.198
 5.585 	0.457 	0.060
 5.606 	0.807 	-0.134
 5.474 	0.661 	0.041
 5.130 	1.070 	0.049
 5.106 	0.958 	0.642
 5.334 	-0.155 	0.563
 5.245 	-0.296 	0.653
 5.260 	0.123 	0.716
 5.598 	0.577 	0.747
 5.955 	0.602 	0.826
 6.272 	0.607 	0.075
 5.902 	0.750 	0.020
 5.800 	0.209 	-0.212
 6.298 	0.501 	-0.575
 6.469 	0.434 	-0.620
 6.435 	-0.234 	0.386
 6.333 	0.173 	-0.211
 5.710 	0.624 	0.198
 5.909 	0.709 	0.148
 5.805 	0.741 	0.068
 5.923 	0.573 	0.188
 6.175 	0.182 	0.030
 6.400 	-0.286 	0.417
 6.060 	-0.308 	0.274
 6.154 	-0.079 	0.373
 6.121 	-0.131 	0.514
 6.684 	0.494 	-0.049
 6.626 	0.552 	0.270
 6.556 	0.101 	0.329
 6.581 	-0.054 	0.093
 6.589 	-0.014 	-0.186
 6.727 	0.166 	-0.068
 7.105 	0.138 	0.106
 7.084 	0.514 	-0.296
 6.852 	0.977 	-0.289
 7.139 	0.356 	-0.412
 6.506 	0.739 	-0.524
 6.618 	0.313 	-0.070
 7.031 	-0.005 	0.364
 7.286 	-0.107 	0.120
 6.918 	-0.857 	0.244
 5.960 	0.138 	0.217
 6.658 	0.572 	-0.258
 6.780 	0.388 	0.278
 6.795 	-0.045 	0.411
 7.081 	-0.300 	-0.063
 7.503 	-0.029 	-0.273
 7.337 	0.171 	-0.265
 6.863 	0.212 	0.037
 6.608 	0.265 	0.024
 6.740 	0.247 	-0.482
 7.075 	0.223 	-0.591
 7.088 	0.695 	-0.363
 7.218 	0.235 	-0.100
 7.265 	-0.075 	-0.132
 7.624 	-0.135 	0.006
 7.139 	-0.333 	0.057
 6.580 	-0.059 	-0.041
 6.461 	0.882 	0.138
 6.976 	0.488 	0.060
 6.989 	-0.006 	-0.132
 7.219 	-0.054 	-0.311
 7.258 	0.105 	-0.087
 6.836 	0.473 	-0.163
 6.489 	0.645 	0.038
 6.550 	0.341 	-0.068
 6.509 	-0.396 	-0.079
 6.568 	-0.578 	-0.078
 6.747 	-0.265 	-0.120
 7.021 	-0.276 	-0.047
 7.367 	-0.050 	0.003
 7.360 	-0.436 	0.071
 7.241 	-0.205 	-0.447
 7.240 	-0.018 	-0.510
 6.600 	0.573 	-0.323
 6.868 	0.381 	-0.195
 7.018 	0.091 	-0.378
 6.652 	0.047 	0.051
 6.346 	0.390 	0.353
 6.297 	0.606 	0.063
 6.583 	0.519 	-0.119
 7.043 	-0.171 	-0.163
 6.814 	-0.586 	-0.232
 6.877 	-0.778 	-0.066
 6.957 	-0.577 	-0.242
 7.096 	-0.453 	-0.392
 7.192 	-0.515 	-0.416
 7.413 	-0.645 	-0.348
 7.145 	-0.780 	-0.401
 7.392 	-0.677 	-0.544
 6.447 	0.571 	-0.160
 6.607 	0.363 	0.005
 6.585 	0.425 	0.000
 6.787 	0.325 	0.172
 6.920 	0.064 	0.054
 6.962 	0.130 	0.190
 6.761 	0.052 	0.070
 6.799 	-0.123 	-0.068
 6.931 	-0.203 	-0.550
 6.948 	-0.368 	-0.278
 7.098 	-0.390 	0.014
 7.438 	-0.301 	-0.332
 7.687 	-0.542 	-0.361
 7.597 	-0.474 	-0.201
 6.767 	-0.732 	-0.241
 6.060 	-0.578 	0.048
 6.133 	0.284 	0.492
 6.150 	0.107 	0.395
 5.898 	-0.268 	0.512
 5.977 	-0.290 	0.515
 6.117 	-0.042 	0.314
 6.264 	-0.057 	0.155
 6.430 	-0.026 	0.060
 6.607 	-0.228 	-0.097
 6.918 	-0.527 	-0.363
 7.248 	-0.442 	-0.656
 7.535 	-0.138 	-0.427
 7.432 	-0.080 	-0.185
 6.840 	-0.160 	0.094
 6.491 	-0.282 	-0.020
 6.470 	-0.489 	-0.156
 6.692 	-0.354 	-0.096
 5.385 	0.073 	0.305
 6.006 	-0.308 	0.001
 6.642 	-0.609 	-0.153
 6.349 	-0.663 	0.085
 5.728 	-0.262 	0.565
 6.149 	-0.077 	0.575
 6.536 	-0.199 	0.088
 6.848 	-0.632 	-0.334
 6.809 	-0.810 	-0.734
 6.070 	-0.220 	0.095
 6.067 	0.136 	0.642
 5.599 	0.064 	0.480
 5.681 	-0.306 	0.195
 5.952 	-0.462 	-0.009
 6.216 	-0.880 	-0.151
 6.640 	-0.457 	-0.110
 6.534 	-0.687 	-0.008
 6.765 	-1.013 	-0.118
 7.062 	-0.753 	-0.204
 7.204 	-0.453 	-0.380
 7.254 	-0.015 	0.163
 6.985 	-0.044 	0.159
 7.574 	-0.215 	0.003
 6.661 	-0.598 	-0.376
 5.794 	0.119 	-0.254
 5.503 	-0.035 	0.955
 5.383 	-0.079 	0.641
 5.669 	0.062 	0.096
 5.896 	-0.060 	-0.068
 4.736 	-0.068 	0.125
 4.378 	-0.685 	1.010
 5.300 	-0.526 	0.459
 6.811 	-0.956 	-0.292
 6.875 	-0.991 	-0.409
 6.720 	-0.616 	-0.214
 6.783 	-0.131 	0.240
 7.170 	0.042 	0.004
 6.805 	-0.084 	0.461
 6.168 	-0.231 	-0.097
 5.679 	0.018 	-0.283
 5.568 	0.556 	0.825
 5.672 	0.154 	0.392
 6.418 	-0.233 	0.011
 6.921 	-0.138 	-0.312
 6.690 	-0.202 	-0.234
 6.259 	0.112 	-0.188
 6.217 	0.039 	-0.441
 6.367 	-0.251 	0.028
 6.703 	-0.756 	-0.418
 6.503 	-1.002 	-0.142
 6.241 	-0.634 	-0.191
 6.269 	-0.239 	0.161
 7.137 	-0.131 	0.207
 6.465 	0.282 	0.549
 6.033 	0.014 	0.008
 5.808 	-0.198 	-0.238
 6.021 	0.982 	0.604
 6.443 	0.247 	-0.192
 6.275 	-0.039 	0.677
 6.824 	0.031 	0.021
 6.431 	-0.347 	-0.149
 6.012 	-0.527 	-0.458
 6.588 	-0.453 	-0.373
 7.370 	-0.049 	-0.113
 6.311 	-0.469 	-0.133
 6.222 	-1.150 	0.109
 5.953 	-0.456 	-0.252
 5.743 	-0.250 	-0.558
 5.631 	-0.232 	-0.425
 6.105 	0.233 	-0.173
 6.570 	-0.114 	-0.532
 6.640 	0.308 	-0.226
 6.757 	0.564 	0.070
 6.988 	0.370 	0.018
 7.033 	0.039 	0.398
 6.973 	0.030 	0.307
 6.438 	-0.331 	0.331
 6.201 	-0.785 	-0.109
 6.310 	-0.711 	-0.228
 6.844 	-0.473 	-0.408
 6.960 	-0.316 	-0.288
 6.839 	-0.568 	-0.252
 5.962 	-1.143 	0.220
 5.801 	-0.075 	-0.108
 5.979 	-0.175 	-0.644
 6.140 	-0.247 	-0.635
 6.151 	-0.546 	-0.595
 6.118 	-0.465 	-0.406
 6.863 	0.395 	-0.135
 6.668 	0.406 	0.460
 6.235 	-0.179 	0.506
 6.095 	-0.333 	0.375
 6.317 	-0.412 	0.161
 6.494 	-0.536 	0.153
 6.327 	-0.628 	-0.481
 6.792 	-0.693 	-0.551
 6.826 	0.209 	0.066
 6.746 	0.508 	0.233
 7.065 	0.439 	-0.211
 5.817 	0.073 	0.090
 5.611 	-0.236 	-0.234
 5.945 	-0.035 	0.375
 6.153 	0.914 	0.485
 6.151 	0.988 	1.124
 6.429 	1.014 	0.812
 6.462 	1.467 	0.319
 6.501 	1.550 	0.415
 6.449 	1.136 	0.012
 6.084 	0.674 	-0.099
 5.995 	0.333 	0.048
 6.093 	0.002 	0.005
 6.204 	-0.118 	0.112
 6.625 	-0.389 	0.072
 6.922 	0.268 	-0.144
 6.378 	0.526 	0.306
 5.821 	0.610 	0.067
 5.623 	0.081 	0.118
 5.280 	0.264 	0.645
 5.667 	0.879 	1.046
 5.936 	0.527 	1.026
 5.436 	0.796 	0.638
 5.590 	1.498 	0.626
 5.607 	1.290 	0.183
 5.395 	0.538 	0.523
 5.576 	0.151 	0.855
 5.844 	-0.197 	1.102
 6.283 	-0.630 	0.232
 6.574 	-0.734 	0.115
 6.687 	-0.121 	0.122
 6.624 	0.384 	-0.062
 6.759 	1.126 	0.154
 5.957 	0.682 	-0.044
 5.313 	0.884 	-0.098
 5.584 	0.143 	0.297
 5.798 	0.141 	0.308
 5.684 	0.181 	0.265
 5.813 	0.739 	0.279
 5.415 	1.142 	0.322
 5.046 	1.247 	0.798
 5.245 	0.667 	0.225
 5.403 	-0.134 	0.611
 5.847 	-0.453 	0.998
 6.199 	-0.496 	1.034
 6.941 	-0.809 	0.353
 6.385 	0.368 	0.473
 6.092 	0.429 	0.064
 6.269 	0.697 	0.174
 6.502 	0.699 	-0.112
 6.412 	0.740 	-0.169
 6.646 	0.426 	0.150
 6.717 	0.292 	-0.024
 6.388 	0.298 	0.164
 5.977 	0.828 	0.204
 5.999 	1.026 	0.409
 6.202 	0.807 	0.317
 5.719 	0.891 	-0.208
 5.818 	0.006 	0.058
 6.210 	-0.440 	0.349
 6.124 	-0.545 	0.624
 6.754 	-0.883 	0.398
 6.628 	0.647 	0.400
 6.673 	0.513 	0.423
 6.595 	0.313 	0.439
 6.673 	0.323 	0.338
 6.837 	0.294 	0.067
 6.900 	0.205 	-0.045
 6.848 	0.083 	0.167
 7.229 	0.685 	-0.043
 6.818 	0.810 	-0.035
 6.590 	0.875 	-0.111
 6.280 	1.053 	-0.367
 6.207 	0.802 	-0.432
 6.539 	-0.014 	-0.123
 6.609 	-0.458 	-0.018
 6.562 	-0.607 	0.651
 6.525 	-0.906 	0.550
 7.120 	0.403 	-0.027
 7.184 	0.515 	0.263
 7.377 	0.277 	0.226
 7.284 	0.158 	-0.350
 7.432 	0.218 	-0.258
 7.267 	0.233 	-0.018
 7.019 	0.110 	0.032
 6.884 	0.465 	0.223
 7.138 	0.876 	-0.092
 6.930 	0.994 	-0.065
 6.660 	1.117 	-0.269
 6.965 	0.586 	-0.093
 6.985 	0.101 	-0.221
 6.996 	-0.312 	-0.128
 7.185 	-0.509 	0.043
 7.074 	-0.575 	-0.135
 6.857 	0.179 	-0.290
 7.290 	0.292 	-0.224
 7.399 	0.322 	-0.475
 7.365 	0.051 	-0.359
 7.338 	0.102 	-0.219
 7.202 	0.379 	-0.077
 6.936 	0.439 	0.085
 6.778 	0.538 	0.015
 6.743 	0.877 	-0.176
 6.700 	1.032 	-0.150
 6.889 	0.957 	-0.094
 7.156 	0.584 	-0.461
 7.261 	0.240 	-0.206
 7.276 	-0.032 	-0.072
 7.356 	-0.065 	-0.236
 7.169 	-0.099 	-0.464
 6.637 	0.075 	-0.248
 6.734 	0.187 	-0.335
 6.899 	0.296 	-0.328
 6.617 	0.071 	0.063
 6.353 	0.178 	0.429
 6.542 	0.110 	0.233
 6.754 	0.454 	0.016
 6.725 	0.524 	0.064
 6.510 	0.919 	-0.040
 6.565 	0.860 	-0.138
 6.810 	0.582 	-0.164
 7.232 	-0.014 	-0.200
 7.418 	-0.101 	0.001
 7.412 	-0.280 	0.127
 7.263 	-0.185 	-0.025
 7.183 	0.106 	-0.229
 6.257 	0.125 	-0.085
 6.245 	0.416 	-0.082
 6.128 	0.259 	0.003
 6.472 	0.183 	0.262
 6.780 	-0.348 	0.524
 6.978 	-0.283 	0.465
 6.857 	0.134 	0.338
 6.794 	0.165 	0.046
 6.855 	0.201 	-0.033
 6.928 	0.274 	-0.015
 7.302 	-0.027 	-0.071
 7.512 	-0.384 	-0.224
 7.436 	-0.634 	-0.248
 7.439 	-0.671 	-0.254
 7.381 	-0.195 	-0.074
 7.381 	-0.183 	0.204
 5.915 	0.276 	0.741
 6.053 	0.170 	0.863
 6.229 	0.017 	0.921
 6.209 	-0.563 	0.969
 6.568 	-0.833 	0.601
 6.870 	-0.585 	0.221
 6.940 	-0.193 	0.113
 6.994 	-0.163 	0.004
 7.314 	-0.570 	-0.094
 7.568 	-0.627 	-0.119
 7.575 	-0.540 	-0.152
 7.114 	-0.487 	-0.178
 7.036 	-0.570 	-0.286
 7.106 	-0.674 	-0.127
 7.228 	-0.446 	-0.180
 7.578 	-0.136 	-0.236
 6.029 	-0.192 	0.209
 6.631 	-0.252 	0.159
 6.966 	-0.409 	-0.038
 6.919 	-0.451 	0.080
 7.045 	-0.581 	0.277
 7.196 	-0.745 	0.199
 7.372 	-0.584 	-0.002
 7.487 	-0.489 	-0.280
 7.037 	-0.987 	0.101
 6.718 	-0.548 	0.235
 6.343 	-0.360 	0.383
 6.501 	-0.450 	0.089
 6.800 	-0.509 	-0.007
 7.140 	-0.326 	-0.145
 7.106 	-0.301 	-0.052
 7.288 	-0.308 	0.201
 6.967 	-1.042 	0.074
 6.962 	-0.724 	-0.181
 6.845 	-0.222 	-0.352
 6.808 	-0.110 	-0.437
 6.974 	-0.284 	-0.199
 7.174 	-0.424 	-0.083
 7.189 	-0.525 	-0.077
 7.124 	-0.596 	0.078
 6.865 	-0.289 	0.021
 5.908 	-0.016 	0.656
 6.141 	-0.074 	0.544
 6.881 	-0.686 	0.215
 6.707 	-0.892 	-0.046
 6.705 	-0.687 	0.110
 7.115 	-0.399 	0.025
 7.073 	-0.106 	0.236
 7.101 	-0.907 	-0.115
 6.860 	-0.925 	-0.241
 6.755 	-0.677 	-0.211
 6.759 	-0.539 	-0.114
 6.873 	-0.305 	-0.240
 7.039 	-0.204 	0.283
 6.877 	-0.119 	0.296
 6.509 	-0.387 	0.330
 6.229 	-0.103 	0.353
 6.795 	-0.098 	0.138
 6.868 	-0.609 	-0.033
 6.499 	-0.855 	-0.067
 6.265 	-0.793 	-0.066
 6.441 	-0.786 	0.052
 6.669 	-0.549 	0.258
 7.071 	-0.046 	0.102
 6.708 	-0.716 	-0.261
 6.568 	-0.876 	0.157
 6.482 	-0.803 	-0.037
 6.365 	-0.687 	0.031
 6.446 	-0.302 	0.067
 6.650 	-0.123 	0.483
 6.788 	0.040 	0.123
 6.504 	-0.093 	0.235
 6.858 	-0.212 	0.372
 6.886 	-0.505 	-0.090
 6.729 	-0.553 	-0.058
 6.415 	-0.729 	0.152
 6.346 	-0.947 	0.144
 6.585 	-1.241 	-0.170
 6.793 	-1.097 	-0.175
 6.992 	-0.652 	-0.094
 6.374 	-0.400 	-0.026
 6.101 	-0.901 	0.364
 6.666 	-1.072 	-0.001
 6.612 	-0.560 	-0.268
 6.361 	-0.646 	-0.534
 6.231 	-0.356 	-0.297
 6.189 	-0.067 	-0.183
 6.430 	-0.329 	-0.013
 6.653 	-0.707 	-0.130
 6.393 	-0.480 	0.230
 6.515 	-0.300 	0.718
 6.546 	-0.435 	0.793
 6.623 	-1.309 	0.358
 6.983 	-1.297 	-0.139
 7.196 	-1.159 	-0.560
 7.123 	-1.001 	-0.566
 6.992 	-0.761 	-0.203
 7.295 	-0.528 	-0.402
 7.171 	-1.174 	0.348
 7.515 	-0.620 	-0.271
 7.428 	-0.538 	-0.526
 7.438 	-0.539 	-0.421
 7.090 	-0.045 	-0.554
 6.453 	-0.625 	0.074
 5.754 	-0.996 	0.043
 5.871 	-0.725 	0.559
 6.101 	-0.522 	0.583
 6.621 	-0.773 	0.541
 7.410 	-1.117 	-0.107
 7.508 	-1.374 	-0.078
 7.626 	-1.307 	-0.357
 8.036 	-0.882 	-0.566
 6.848 	0.023 	0.306
 7.161 	0.506 	0.143
 7.213 	0.728 	0.604
 7.239 	0.768 	0.228
 6.594 	0.168 	-0.040
 6.602 	-0.124 	0.035
 6.306 	0.237 	0.489
 6.300 	1.023 	1.158
 6.557 	1.170 	0.841
 6.748 	1.225 	0.339
 6.788 	1.286 	0.200
 6.470 	1.063 	0.309
 6.356 	0.825 	0.487
 6.473 	0.450 	0.341
 6.367 	0.299 	0.149
 6.423 	0.258 	0.095
 7.072 	0.232 	0.157
 7.269 	0.282 	0.291
 6.700 	0.353 	0.550
 6.756 	0.816 	0.269
 5.489 	0.518 	0.155
 5.330 	-0.021 	0.416
 5.559 	0.306 	0.912
 6.002 	0.658 	0.988
 5.664 	1.034 	0.901
 5.428 	1.199 	0.862
 5.703 	1.286 	0.727
 5.772 	1.067 	0.664
 5.581 	0.887 	0.673
 5.770 	0.526 	0.743
 5.906 	0.347 	0.439
 6.255 	0.112 	0.171
 7.526 	0.405 	0.147
 6.739 	-0.132 	0.011
 6.891 	0.522 	0.385
 6.937 	0.439 	0.048
 6.039 	1.007 	0.271
 5.204 	0.709 	0.232
 5.226 	0.190 	0.425
 5.390 	0.206 	0.585
 5.896 	0.756 	0.538
 5.832 	0.981 	0.619
 5.638 	1.298 	0.768
 5.501 	1.306 	0.585
 5.438 	1.056 	0.487
 5.390 	0.765 	0.313
 6.162 	0.133 	0.444
 6.641 	-0.409 	0.615
 7.363 	0.435 	0.337
 7.126 	0.337 	0.335
 6.531 	0.281 	0.289
 6.313 	0.264 	0.360
 6.520 	0.896 	0.187
 6.740 	0.702 	0.004
 6.897 	0.516 	-0.116
 6.500 	0.403 	0.284
 6.000 	0.679 	0.377
 5.926 	0.961 	0.329
 5.845 	1.585 	0.372
 5.809 	0.962 	0.103
 5.578 	1.184 	-0.215
 5.987 	0.612 	0.200
 6.564 	-0.082 	0.259
 6.515 	-0.473 	0.532
 7.010 	0.535 	0.290
 6.642 	0.667 	0.534
 6.570 	0.540 	0.435
 6.820 	0.128 	0.199
 6.938 	0.233 	0.286
 6.860 	0.245 	0.252
 6.840 	0.275 	0.129
 7.194 	0.721 	0.017
 6.948 	0.754 	0.203
 6.500 	1.179 	0.082