# vtk DataFile Version 3.0
HighT1
ASCII
DATASET STRUCTURED_POINTS
DIMENSIONS 16 16 19
ORIGIN 929.001000000000 929.001000000000 5.001000000000
SPACING 10.000000000000 10.000000000000 10.000000000000
POINT_DATA 4864
 FIELD attributes 1
U 3 4864 float
2.049 	0.009 	0.939
 2.255 	1.084 	0.973
 2.355 	0.280 	1.074
 2.801 	0.426 	0.273
 3.765 	-0.865 	-0.129
 3.494 	-0.910 	0.164
 3.023 	-0.404 	0.046
 3.035 	-0.138 	0.225
 3.341 	0.238 	0.211
 3.444 	0.215 	0.201
 3.400 	-0.208 	0.227
 3.320 	-0.650 	0.094
 3.457 	-0.430 	-0.034
 3.612 	-0.467 	0.005
 3.868 	-0.592 	0.163
 4.049 	-0.409 	0.074
 4.419 	-0.181 	-0.189
 3.758 	0.264 	-0.156
 3.049 	0.171 	-0.371
 4.032 	-0.192 	-0.755
 4.331 	-0.542 	-0.474
 4.655 	-0.038 	-0.413
 4.504 	0.421 	0.037
 4.616 	-0.590 	0.193
 3.841 	-0.127 	0.050
 3.225 	-0.001 	0.026
 3.132 	-0.112 	-0.006
 3.250 	-0.351 	-0.188
 3.704 	-0.587 	-0.078
 3.587 	-1.503 	0.026
 4.539 	-0.851 	-0.136
 5.056 	-0.342 	-0.446
 4.288 	0.177 	0.028
 3.733 	0.275 	-0.082
 3.969 	0.563 	-0.274
 4.030 	0.310 	-0.286
 4.037 	0.362 	-0.053
 3.694 	0.033 	0.201
 4.653 	0.711 	-0.205
 3.416 	0.364 	0.374
 2.749 	0.122 	0.423
 3.498 	-0.073 	0.328
 3.852 	-0.919 	0.455
 3.926 	-0.917 	0.035
 4.167 	-1.008 	0.152
 4.696 	-1.137 	-0.112
 4.392 	-0.772 	-0.061
 3.078 	-0.480 	0.199
 5.676 	1.100 	0.013
 3.717 	0.214 	0.264
 3.357 	0.237 	0.191
 3.639 	0.490 	-0.118
 4.573 	0.493 	-0.339
 5.134 	0.291 	-0.495
 5.096 	0.019 	-0.154
 4.972 	0.766 	0.059
 5.335 	0.746 	-0.007
 5.115 	0.424 	-0.281
 5.276 	-0.371 	0.086
 5.469 	-1.158 	-0.300
 4.137 	-1.338 	0.330
 3.617 	-0.989 	-0.204
 3.530 	-0.748 	-0.181
 3.147 	0.045 	0.502
 3.603 	1.088 	0.393
 3.429 	0.376 	0.269
 3.252 	-0.158 	0.232
 2.937 	-0.074 	0.192
 3.339 	0.349 	0.088
 3.790 	0.652 	-0.266
 4.669 	0.816 	-0.479
 4.966 	0.737 	-0.074
 5.183 	0.663 	0.024
 5.241 	0.102 	0.096
 5.253 	-0.024 	-0.062
 4.410 	-0.246 	-0.001
 3.794 	-0.885 	0.154
 2.565 	-0.310 	-0.223
 2.217 	0.300 	0.463
 4.090 	-0.898 	0.139
 3.513 	0.039 	0.096
 3.671 	-0.329 	-0.052
 3.551 	-0.258 	-0.008
 3.570 	-0.156 	-0.234
 3.718 	-0.069 	-0.133
 3.777 	0.260 	0.062
 4.203 	0.536 	-0.005
 4.652 	0.801 	-0.019
 4.849 	0.543 	0.067
 4.928 	0.053 	0.017
 4.763 	-0.187 	-0.199
 4.495 	0.166 	-0.013
 4.494 	0.230 	0.079
 4.561 	0.353 	-0.192
 5.559 	-0.224 	-0.561
 5.520 	-1.333 	-0.370
 2.447 	0.089 	0.080
 2.512 	-0.078 	0.258
 2.718 	-0.121 	0.249
 3.131 	-0.328 	0.280
 3.724 	-0.501 	0.288
 3.983 	-0.486 	0.343
 4.001 	-0.062 	0.307
 4.290 	0.261 	0.122
 4.520 	0.197 	0.140
 4.624 	0.085 	0.081
 4.685 	-0.036 	0.069
 4.634 	-0.600 	0.229
 4.940 	-0.764 	0.230
 5.024 	-0.637 	0.150
 5.431 	-0.375 	-0.144
 5.724 	-0.264 	-0.423
 3.693 	0.343 	-0.132
 3.963 	0.291 	-0.377
 4.255 	-0.045 	-0.317
 4.473 	-0.424 	-0.164
 4.702 	-0.252 	-0.241
 4.972 	-0.129 	-0.155
 5.161 	-0.143 	0.010
 5.501 	0.262 	-0.251
 5.716 	-0.033 	0.079
 5.450 	-0.238 	0.190
 5.470 	-0.439 	-0.077
 5.707 	-0.771 	-0.352
 5.822 	-0.619 	-0.361
 6.393 	-0.269 	-0.269
 5.967 	-0.480 	-0.070
 5.615 	-0.684 	-0.054
 3.988 	0.030 	0.305
 4.235 	0.545 	-0.102
 4.483 	0.475 	-0.219
 4.537 	0.006 	-0.116
 4.560 	-0.285 	-0.048
 4.749 	-0.298 	0.042
 5.158 	-0.022 	-0.126
 5.501 	-0.070 	-0.012
 5.353 	0.255 	0.060
 5.037 	-0.291 	0.118
 5.197 	-0.353 	-0.395
 5.273 	-0.201 	-0.311
 5.482 	-0.123 	-0.215
 5.482 	-0.154 	-0.199
 5.869 	0.095 	-0.096
 5.844 	-0.145 	-0.411
 3.256 	-0.267 	0.227
 3.452 	-0.000 	0.187
 3.906 	0.238 	-0.243
 4.743 	0.183 	-0.266
 4.753 	0.093 	-0.127
 4.688 	-0.127 	-0.034
 5.294 	-0.494 	0.086
 5.460 	-0.070 	-0.094
 5.488 	-0.007 	0.121
 4.693 	-0.334 	0.121
 4.036 	0.058 	0.067
 4.227 	0.426 	-0.073
 4.384 	-0.047 	-0.121
 4.687 	-0.494 	0.205
 5.526 	0.025 	-0.124
 5.592 	0.549 	-0.373
 5.873 	-0.058 	-0.228
 3.699 	-0.396 	0.496
 3.518 	0.008 	-0.042
 4.345 	-0.307 	-0.302
 5.023 	0.530 	-0.187
 4.368 	0.089 	0.305
 4.165 	-0.819 	0.207
 3.970 	0.313 	0.165
 3.469 	-0.720 	0.331
 3.918 	-0.529 	0.238
 4.008 	-0.555 	0.300
 4.522 	-0.311 	0.001
 5.067 	-0.040 	-0.164
 5.850 	0.022 	0.031
 4.875 	0.194 	0.242
 5.114 	0.106 	-0.015
 5.281 	0.580 	0.206
 4.343 	-0.022 	0.271
 4.775 	-0.190 	-0.107
 3.955 	0.299 	0.009
 3.364 	0.057 	0.144
 3.829 	0.656 	0.116
 3.434 	-0.921 	0.335
 3.509 	-0.841 	-0.251
 4.327 	-0.801 	-0.459
 4.371 	-1.401 	-0.613
 5.250 	-0.379 	-1.020
 5.487 	-0.219 	-0.661
 5.933 	-0.222 	-0.673
 6.343 	0.690 	-0.376
 5.820 	0.390 	0.088
 5.535 	0.677 	0.046
 3.952 	0.388 	-0.032
 3.707 	-0.386 	-0.075
 3.989 	-0.018 	0.236
 3.284 	0.568 	0.252
 3.337 	0.774 	-0.027
 4.206 	0.659 	-0.135
 5.170 	-0.238 	-0.505
 3.994 	-1.292 	0.254
 3.235 	-0.672 	-0.090
 3.314 	-0.884 	-0.146
 3.712 	-0.107 	-0.264
 4.061 	0.604 	0.096
 4.981 	0.956 	0.126
 4.791 	1.153 	0.114
 3.695 	1.093 	0.466
 3.604 	0.419 	-0.134
 5.135 	0.134 	-0.615
 6.040 	0.272 	-0.727
 5.966 	0.536 	-0.010
 5.152 	0.575 	-0.257
 4.590 	0.377 	0.148
 5.204 	0.408 	-0.371
 5.672 	0.201 	-0.080
 5.080 	-0.134 	0.158
 3.953 	-0.232 	0.073
 3.477 	0.157 	-0.155
 3.274 	-0.314 	-0.037
 3.197 	0.270 	0.423
 3.602 	0.410 	-0.005
 3.545 	0.861 	0.033
 4.060 	1.400 	-0.327
 4.154 	0.396 	-0.123
 4.599 	0.277 	-0.025
 4.785 	0.131 	-0.340
 5.456 	1.068 	0.189
 5.401 	0.388 	-0.166
 5.708 	0.607 	-0.558
 4.669 	0.584 	0.754
 4.324 	0.121 	0.219
 3.740 	0.171 	0.002
 3.401 	-0.121 	0.165
 3.854 	0.509 	-0.313
 3.959 	-0.264 	0.314
 4.289 	-0.495 	0.009
 3.534 	0.129 	0.420
 3.561 	0.629 	0.020
 3.314 	0.840 	0.212
 2.934 	0.507 	0.339
 2.617 	0.024 	0.335
 3.337 	0.502 	0.175
 3.829 	0.397 	0.392
 4.109 	1.055 	0.716
 4.651 	0.458 	-0.227
 5.500 	0.921 	-0.259
 5.534 	1.163 	-0.033
 5.648 	0.930 	-0.201
 4.743 	0.125 	-0.093
 5.134 	0.390 	-0.219
 4.530 	0.102 	-0.041
 4.563 	0.247 	0.281
 4.798 	-0.451 	0.335
 4.456 	0.177 	-0.036
 2.999 	0.871 	0.463
 3.597 	0.538 	-0.472
 4.641 	-0.270 	0.624
 4.396 	0.077 	0.035
 5.114 	0.548 	-0.331
 4.176 	1.924 	-0.619
 4.157 	-0.212 	0.290
 4.478 	-0.292 	-0.788
 5.023 	-0.093 	-0.094
 4.773 	0.937 	0.305
 4.233 	0.624 	0.788
 4.114 	0.599 	1.038
 3.945 	0.582 	0.828
 3.820 	0.624 	0.319
 3.973 	0.545 	-0.009
 4.498 	-0.118 	0.071
 4.773 	-0.713 	0.123
 5.036 	-0.833 	-0.240
 4.144 	0.413 	0.881
 3.786 	0.375 	-0.046
 3.559 	0.876 	-0.283
 4.153 	0.740 	0.200
 5.326 	0.387 	-0.938
 4.554 	0.003 	-0.437
 4.794 	-0.707 	-0.524
 4.983 	1.152 	0.205
 4.784 	0.627 	0.330
 4.602 	0.337 	0.256
 4.371 	0.566 	-0.077
 4.533 	0.606 	-0.559
 4.777 	-0.138 	-0.337
 5.245 	0.143 	-0.373
 4.958 	0.179 	0.130
 5.726 	-0.955 	0.302
 4.987 	0.872 	1.229
 5.695 	0.611 	-0.010
 5.073 	0.508 	0.045
 5.242 	0.434 	-0.621
 5.142 	0.107 	-0.486
 4.748 	0.382 	-0.092
 4.568 	-0.402 	0.077
 4.963 	0.633 	-0.163
 5.408 	0.554 	-0.088
 5.158 	0.421 	0.245
 4.421 	0.544 	0.177
 4.610 	0.532 	-0.663
 4.646 	0.444 	-0.071
 4.843 	0.002 	-0.036
 5.576 	-0.400 	-0.266
 5.745 	-1.307 	0.360
 5.301 	1.219 	0.793
 4.616 	0.964 	0.934
 5.381 	0.324 	0.236
 6.200 	-0.036 	-0.577
 6.077 	0.676 	-0.878
 6.080 	0.610 	-0.781
 5.418 	0.218 	-0.133
 5.156 	0.116 	-0.168
 5.766 	0.766 	-0.404
 5.115 	1.034 	0.004
 4.454 	0.720 	-0.206
 4.613 	1.359 	-0.540
 5.380 	0.076 	-0.024
 6.115 	-0.577 	0.165
 6.132 	-1.155 	0.618
 5.759 	-0.277 	0.638
 4.656 	1.891 	1.078
 5.458 	1.071 	0.044
 5.266 	0.718 	0.178
 5.428 	0.596 	-0.081
 5.826 	0.690 	-0.332
 6.573 	0.848 	-0.498
 6.437 	0.623 	-0.278
 5.430 	0.504 	0.006
 4.806 	0.872 	-0.451
 5.072 	1.143 	0.008
 5.421 	0.802 	0.141
 5.907 	0.333 	-0.106
 6.453 	-0.119 	-0.315
 6.804 	-0.253 	-0.572
 6.604 	-0.287 	-0.226
 6.573 	-0.260 	0.138
 4.881 	0.986 	0.521
 4.787 	0.989 	0.303
 5.114 	1.122 	-0.059
 5.674 	0.699 	-0.522
 6.006 	0.856 	-0.616
 6.175 	0.750 	-0.399
 6.031 	0.923 	-0.139
 6.046 	0.710 	0.040
 5.592 	0.777 	0.047
 5.764 	0.875 	-0.219
 6.207 	0.666 	-0.334
 6.341 	0.284 	-0.033
 6.582 	0.225 	-0.161
 6.933 	0.341 	-0.409
 6.713 	0.560 	-0.739
 6.505 	-0.115 	-0.566
 4.637 	0.351 	0.023
 4.649 	0.378 	0.256
 4.574 	0.415 	0.120
 4.598 	0.644 	0.137
 4.840 	0.902 	0.082
 4.609 	0.722 	0.369
 4.457 	0.569 	0.325
 4.546 	0.229 	0.443
 4.886 	0.526 	0.417
 5.269 	0.786 	0.251
 5.131 	0.809 	0.522
 5.695 	0.697 	0.539
 6.240 	0.890 	-0.349
 6.636 	0.574 	-0.831
 6.823 	0.461 	-0.863
 6.815 	0.169 	-0.478
 5.181 	0.191 	-0.124
 5.052 	0.245 	-0.333
 5.013 	0.192 	-0.122
 4.987 	0.366 	-0.127
 5.206 	0.301 	-0.293
 5.637 	0.290 	-0.400
 5.841 	0.239 	-0.563
 6.342 	-0.249 	-0.467
 6.061 	0.572 	-0.451
 6.181 	0.368 	0.356
 6.042 	0.315 	-0.112
 5.747 	0.574 	-0.106
 6.418 	0.574 	-0.479
 6.392 	0.762 	-0.341
 6.350 	0.082 	0.005
 6.553 	-0.277 	-0.446
 5.122 	-0.400 	0.315
 5.547 	-0.096 	-0.156
 5.696 	0.258 	-0.562
 5.563 	0.042 	-0.333
 5.467 	0.094 	-0.200
 5.556 	0.025 	0.128
 6.022 	-0.170 	0.290
 5.855 	-0.189 	0.543
 6.137 	0.006 	0.139
 6.850 	0.581 	-0.103
 6.694 	0.345 	-0.297
 6.480 	0.673 	-0.670
 7.038 	0.196 	-0.603
 6.933 	1.039 	-0.483
 6.528 	-0.184 	-0.125
 6.192 	-0.728 	-0.015
 4.476 	-0.117 	0.624
 5.026 	-0.206 	0.232
 5.632 	0.077 	-0.454
 5.889 	0.502 	-0.797
 5.588 	-0.129 	-0.047
 5.741 	-0.339 	0.193
 5.746 	-0.412 	-0.095
 5.953 	0.205 	0.064
 6.239 	0.176 	0.428
 6.305 	0.449 	0.049
 6.588 	0.389 	-0.345
 6.344 	0.627 	-0.319
 6.503 	0.338 	-0.350
 7.011 	0.399 	-0.290
 6.442 	-0.042 	0.134
 6.246 	-0.464 	-0.488
 5.467 	0.429 	0.067
 5.725 	0.125 	-0.332
 5.979 	0.291 	-0.624
 6.064 	0.258 	-0.414
 5.917 	0.019 	0.101
 5.856 	-0.728 	-0.047
 5.440 	-0.070 	0.055
 4.483 	-0.731 	0.873
 4.714 	-0.051 	0.894
 6.038 	0.731 	0.019
 6.361 	0.713 	-0.192
 6.475 	0.644 	-0.541
 6.952 	0.196 	-0.499
 6.494 	0.711 	-0.188
 6.312 	0.748 	0.148
 6.031 	0.228 	0.161
 4.641 	0.859 	0.719
 5.167 	0.338 	0.002
 5.864 	-0.143 	-0.457
 6.415 	-0.643 	-0.121
 6.288 	-0.214 	0.313
 6.139 	-0.442 	-0.240
 5.543 	0.045 	0.462
 6.221 	0.065 	-0.550
 6.523 	0.006 	-0.007
 5.314 	0.582 	-0.335
 5.853 	0.405 	-0.385
 6.104 	-0.119 	-0.556
 5.564 	-0.315 	-0.320
 5.276 	0.242 	-0.139
 5.023 	0.315 	0.037
 4.644 	-0.078 	-0.103
 5.662 	-0.063 	-0.073
 6.074 	-0.209 	-0.471
 6.140 	-0.471 	0.004
 6.656 	-0.289 	0.029
 6.320 	-0.444 	-0.679
 6.775 	-0.060 	-0.206
 6.587 	0.267 	-0.268
 5.935 	0.025 	-0.393
 5.772 	-0.432 	0.575
 6.331 	-0.500 	-0.409
 5.044 	-1.029 	0.522
 5.516 	-0.540 	-0.219
 5.207 	-0.495 	-0.061
 4.756 	0.310 	0.108
 4.178 	0.519 	0.394
 4.382 	0.196 	0.032
 6.006 	-0.174 	-0.594
 6.107 	-0.388 	-0.584
 6.274 	-0.316 	-0.164
 6.211 	-0.251 	0.022
 6.314 	-0.387 	-0.031
 6.428 	-0.652 	-0.029
 6.145 	-0.320 	-0.413
 6.873 	0.007 	-0.423
 6.681 	0.081 	0.567
 5.906 	0.130 	0.349
 6.114 	0.065 	-0.424
 5.662 	-0.706 	0.491
 4.762 	-0.817 	-0.196
 5.608 	-0.375 	0.375
 4.219 	0.371 	0.859
 4.211 	0.063 	-0.175
 5.060 	-1.011 	-0.461
 5.190 	-0.838 	-0.645
 5.550 	-0.284 	0.170
 5.718 	-0.120 	-0.163
 5.763 	0.078 	-0.199
 4.982 	-0.560 	-0.374
 5.927 	-0.063 	-0.142
 6.269 	0.826 	0.440
 5.761 	0.409 	0.264
 6.289 	0.123 	-0.645
 5.802 	0.787 	-0.146
 5.183 	-0.471 	0.557
 5.200 	-0.613 	-0.104
 5.104 	0.044 	0.310
 4.796 	0.497 	1.117
 3.840 	0.176 	-0.099
 4.525 	-0.805 	0.016
 4.702 	-0.783 	0.384
 4.673 	-0.832 	0.230
 4.676 	-0.681 	0.093
 5.315 	-0.014 	-0.411
 5.058 	-0.580 	-0.754
 4.938 	0.801 	-0.641
 5.166 	0.606 	0.508
 5.879 	0.730 	-0.319
 6.384 	0.525 	-0.706
 6.255 	0.883 	0.023
 5.749 	0.565 	-0.467
 4.974 	0.187 	0.148
 4.870 	0.206 	0.349
 5.247 	-0.277 	0.630
 5.823 	0.167 	-0.169
 4.446 	-1.307 	1.224
 4.828 	-1.336 	0.411
 5.266 	-1.214 	-0.779
 5.661 	-0.306 	-1.185
 6.462 	0.102 	-0.249
 5.910 	-0.285 	-0.186
 5.602 	-0.469 	0.079
 5.179 	0.562 	0.450
 4.429 	1.090 	1.165
 4.198 	0.926 	1.098
 3.858 	1.012 	0.982
 4.334 	0.918 	0.349
 5.152 	1.711 	-0.158
 5.070 	1.468 	0.174
 4.937 	0.612 	-0.220
 5.383 	-0.019 	-0.519
 6.948 	-0.921 	-0.044
 5.791 	-0.782 	1.158
 6.198 	-0.744 	-0.269
 5.952 	-0.557 	0.084
 5.918 	-0.130 	-0.395
 5.718 	0.120 	-0.159
 4.894 	-0.280 	-0.513
 5.220 	0.551 	-0.062
 5.491 	1.533 	0.765
 5.479 	0.980 	0.856
 5.072 	0.522 	0.305
 4.696 	0.618 	0.023
 4.879 	1.212 	0.136
 5.390 	0.928 	-0.289
 5.700 	0.450 	-0.327
 5.360 	0.618 	-0.073
 6.808 	-0.643 	0.088
 7.245 	-0.241 	0.248
 7.201 	-0.145 	0.066
 6.976 	-0.148 	-0.381
 6.849 	-0.046 	-0.169
 5.808 	0.585 	-0.249
 5.345 	0.189 	-0.088
 4.775 	0.260 	0.452
 5.689 	0.708 	-0.062
 5.449 	0.802 	0.144
 5.405 	0.827 	0.111
 5.237 	0.453 	-0.403
 4.593 	0.837 	0.005
 4.694 	0.953 	-0.088
 5.251 	0.364 	0.473
 5.125 	0.421 	-0.038
 6.244 	0.001 	0.426
 6.947 	0.111 	0.013
 7.151 	0.121 	-0.407
 7.082 	0.158 	-1.010
 7.213 	0.318 	-0.362
 6.153 	0.649 	-0.306
 5.612 	0.175 	-0.125
 6.224 	-0.152 	-0.453
 5.867 	-0.133 	-0.014
 5.709 	0.929 	0.092
 5.967 	0.966 	-0.325
 5.734 	0.750 	-0.536
 5.352 	1.441 	-0.328
 5.743 	0.490 	-0.007
 5.308 	0.242 	0.133
 5.423 	-0.008 	0.286
 6.283 	0.286 	0.470
 6.616 	0.320 	0.285
 6.897 	0.704 	-0.456
 6.823 	0.268 	-0.854
 6.632 	0.262 	-0.397
 6.587 	0.774 	-0.164
 6.409 	0.399 	-0.015
 6.158 	0.098 	0.087
 5.914 	0.175 	-0.346
 5.476 	0.723 	0.224
 5.182 	1.310 	-0.150
 5.518 	0.926 	-0.544
 6.203 	1.029 	-0.726
 6.822 	0.183 	-0.772
 7.225 	0.163 	-0.533
 7.058 	-0.089 	0.061
 5.584 	0.752 	0.934
 6.079 	0.194 	0.320
 6.761 	0.431 	-0.139
 6.626 	0.546 	-0.724
 6.727 	0.714 	-0.517
 6.536 	0.144 	-0.150
 6.135 	0.248 	0.144
 6.068 	0.179 	0.170
 6.240 	0.075 	-0.092
 6.498 	0.452 	-0.266
 6.434 	0.895 	0.035
 6.541 	0.515 	-0.184
 6.751 	-0.008 	-0.424
 6.933 	-0.469 	-0.433
 7.109 	0.029 	-0.676
 7.299 	0.202 	-0.505
 5.270 	0.395 	0.263
 5.163 	-0.011 	0.135
 5.346 	-0.102 	0.059
 5.612 	0.181 	-0.044
 5.897 	0.601 	0.117
 5.639 	0.512 	0.263
 5.636 	0.293 	0.188
 6.068 	-0.137 	0.204
 6.267 	-0.101 	0.161
 6.514 	0.424 	0.109
 6.918 	0.589 	0.126
 6.735 	0.897 	-0.081
 6.663 	-0.071 	-0.501
 6.304 	-0.608 	-0.953
 6.256 	-0.440 	-0.899
 6.444 	-0.313 	-0.416
 5.954 	0.188 	-0.151
 5.712 	0.139 	-0.116
 5.747 	0.069 	-0.167
 5.612 	-0.268 	-0.101
 5.861 	0.260 	0.051
 6.203 	-0.105 	-0.020
 6.260 	0.040 	-0.097
 6.417 	0.092 	-0.022
 6.583 	0.238 	0.027
 6.356 	0.619 	0.271
 6.891 	0.719 	0.118
 7.158 	1.048 	-0.422
 7.032 	0.106 	-0.473
 6.565 	-0.438 	-0.054
 6.289 	-0.339 	0.074
 6.353 	-0.252 	-0.158
 6.619 	0.045 	0.271
 6.244 	0.484 	-0.221
 6.028 	0.357 	-0.562
 5.872 	0.311 	-0.414
 5.741 	-0.249 	-0.180
 5.770 	-0.519 	-0.046
 6.427 	-0.249 	-0.050
 6.662 	-0.458 	0.010
 6.718 	-0.108 	-0.127
 6.701 	0.311 	0.109
 6.861 	0.742 	-0.369
 7.052 	1.188 	-0.215
 6.738 	0.201 	-0.215
 6.831 	-0.444 	-0.233
 6.723 	0.220 	0.239
 6.494 	-0.755 	0.063
 6.157 	0.358 	-0.203
 6.122 	0.517 	-0.095
 6.237 	0.570 	-0.292
 5.633 	0.178 	-0.375
 5.299 	-0.517 	0.201
 5.217 	-0.393 	0.369
 5.428 	-0.642 	0.365
 6.169 	-0.443 	0.264
 6.228 	0.078 	-0.031
 6.422 	0.240 	0.031
 6.295 	0.603 	-0.021
 6.315 	0.068 	-0.204
 6.637 	-0.535 	-0.671
 7.206 	0.194 	-0.574
 6.971 	0.168 	-0.340
 6.221 	-0.317 	0.224
 4.559 	-0.502 	0.127
 5.418 	0.433 	0.005
 5.580 	0.148 	-0.034
 5.724 	-0.380 	0.249
 6.015 	-0.877 	0.130
 6.366 	-0.910 	0.145
 5.960 	-0.296 	0.354
 5.855 	-0.412 	-0.004
 6.200 	-0.264 	0.467
 6.454 	-0.671 	0.189
 6.387 	0.081 	0.186
 6.637 	-0.699 	-0.404
 6.633 	-0.438 	-0.688
 5.963 	0.202 	-0.210
 5.752 	0.365 	0.108
 4.651 	-0.696 	0.258
 5.513 	-0.287 	-0.013
 5.759 	-0.270 	-0.381
 6.244 	-0.638 	-0.520
 6.633 	-0.745 	-0.116
 6.719 	-0.798 	-0.181
 6.758 	-0.320 	-0.259
 6.845 	-0.392 	0.234
 6.479 	-0.311 	-0.206
 5.891 	-0.191 	0.404
 6.301 	-0.294 	0.260
 6.343 	-0.616 	-0.216
 6.336 	-0.571 	-0.473
 6.624 	0.175 	-0.270
 5.639 	0.072 	0.302
 4.671 	0.327 	0.610
 5.124 	0.260 	-0.276
 6.128 	-0.321 	0.194
 6.079 	-0.658 	0.027
 6.153 	-0.827 	-0.168
 6.064 	-0.764 	-0.077
 5.999 	-0.725 	-0.353
 6.576 	-0.636 	-0.387
 6.690 	0.109 	-0.173
 6.179 	0.212 	0.411
 5.818 	0.190 	0.062
 5.843 	-0.124 	-0.102
 5.912 	-0.851 	0.048
 5.919 	-0.053 	0.156
 5.651 	0.253 	0.401
 5.220 	0.289 	0.625
 5.328 	0.652 	0.311
 5.181 	0.345 	-0.293
 5.670 	-0.650 	0.127
 5.660 	-0.668 	-0.167
 5.598 	-1.006 	-0.082
 5.678 	-0.717 	-0.108
 5.447 	-1.093 	-0.556
 5.682 	-0.835 	-0.393
 6.038 	0.131 	-0.051
 6.285 	0.415 	0.064
 6.374 	-0.219 	0.005
 5.874 	0.433 	-0.266
 6.057 	-0.201 	0.242
 5.416 	0.762 	0.342
 4.632 	-0.237 	-0.146
 4.513 	0.593 	0.892
 5.139 	0.777 	0.582
 5.241 	-0.034 	-0.079
 5.437 	-1.050 	0.031
 5.269 	-1.092 	0.002
 5.067 	-1.036 	-0.284
 5.326 	-0.725 	-0.044
 5.462 	-0.771 	-0.186
 5.300 	-0.787 	-0.353
 5.227 	-0.116 	-0.505
 5.404 	0.054 	-0.350
 6.183 	-0.055 	-0.197
 6.653 	0.175 	-0.387
 6.036 	0.312 	0.190
 5.631 	0.752 	0.224
 5.523 	0.370 	-0.356
 4.478 	0.650 	1.031
 4.520 	0.855 	1.340
 5.907 	0.051 	-0.196
 4.730 	-0.984 	0.272
 4.294 	-1.450 	0.150
 4.374 	-1.179 	0.293
 4.932 	-0.742 	0.123
 5.177 	-0.539 	-0.429
 5.085 	-0.554 	-0.604
 4.968 	-0.578 	-0.389
 4.823 	-0.280 	-0.515
 5.389 	-0.098 	-0.593
 5.632 	0.088 	-0.839
 6.192 	0.500 	-0.453
 6.589 	0.670 	-0.466
 6.757 	0.620 	-0.082
 6.706 	0.720 	0.058
 7.106 	0.179 	0.117
 6.772 	-0.267 	-0.111
 6.492 	-0.724 	0.814
 6.688 	-0.725 	-0.231
 5.832 	-0.394 	0.088
 6.096 	0.531 	-0.404
 6.304 	-0.089 	0.091
 6.101 	-0.295 	0.347
 5.592 	-0.250 	-0.170
 5.703 	-0.080 	0.071
 5.525 	0.467 	1.011
 5.828 	1.294 	0.956
 5.840 	1.200 	0.884
 5.463 	0.752 	0.669
 5.656 	1.856 	0.184
 5.789 	1.796 	0.205
 6.005 	1.030 	0.068
 5.657 	0.448 	-0.229
 6.837 	0.059 	-0.190
 7.075 	-0.364 	0.426
 6.586 	-0.027 	-0.387
 5.986 	-0.308 	-0.137
 6.692 	-0.454 	-0.450
 6.469 	-0.067 	-0.267
 5.658 	0.322 	-0.153
 4.994 	0.055 	-0.046
 5.540 	0.743 	1.039
 6.049 	1.296 	0.587
 6.596 	1.386 	0.699
 5.754 	0.339 	0.399
 5.458 	1.114 	0.452
 5.819 	1.662 	-0.009
 5.651 	0.575 	-0.078
 5.684 	0.591 	-0.126
 7.035 	-0.346 	-0.529
 6.868 	-0.153 	-0.121
 6.902 	-0.047 	0.081
 6.871 	-0.384 	-0.641
 6.622 	-0.035 	-0.131
 5.931 	0.479 	-0.076
 5.346 	0.553 	0.102
 5.294 	0.280 	0.361
 5.603 	0.100 	0.401
 5.628 	0.540 	0.491
 6.141 	0.791 	0.461
 6.239 	0.589 	-0.054
 5.632 	0.791 	0.067
 5.183 	1.244 	0.192
 5.117 	0.316 	0.713
 5.000 	0.179 	0.489
 6.740 	-0.418 	-0.403
 7.089 	0.073 	-0.434
 6.968 	-0.232 	-0.456
 6.685 	-0.119 	-0.770
 6.203 	0.579 	0.031
 5.889 	0.702 	0.130
 5.740 	0.290 	-0.138
 6.504 	0.543 	-0.675
 6.411 	-0.051 	0.037
 6.658 	-0.263 	0.031
 5.757 	0.324 	-0.137
 5.686 	0.566 	-0.174
 5.891 	0.722 	-0.207
 5.699 	0.760 	0.138
 5.726 	0.390 	0.165
 6.154 	0.079 	0.614
 6.879 	-0.196 	-0.126
 7.031 	-0.051 	-0.473
 7.060 	-0.152 	-0.452
 7.012 	-0.061 	-0.630
 6.604 	0.496 	-0.087
 6.589 	0.551 	-0.008
 6.476 	0.086 	0.261
 6.499 	-0.002 	0.151
 6.489 	0.063 	-0.032
 6.832 	0.042 	0.077
 7.002 	0.036 	-0.114
 6.800 	0.605 	-0.351
 6.489 	0.819 	-0.200
 6.966 	0.225 	-0.449
 6.491 	0.542 	-0.388
 6.386 	0.265 	-0.165
 5.794 	-0.224 	0.612
 6.010 	-0.061 	0.432
 6.677 	-0.055 	0.001
 7.162 	-0.104 	-0.668
 6.735 	0.273 	-0.565
 6.660 	0.424 	0.174
 6.660 	0.137 	0.660
 6.926 	-0.217 	0.185
 7.168 	-0.282 	-0.263
 7.614 	0.144 	-0.178
 7.260 	0.045 	-0.079
 6.818 	0.100 	-0.044
 6.649 	0.210 	-0.302
 6.813 	-0.131 	-0.558
 6.850 	0.597 	-0.583
 7.160 	0.316 	-0.168
 6.331 	0.414 	0.403
 6.195 	-0.161 	0.197
 6.023 	-0.098 	0.111
 6.182 	0.121 	-0.067
 6.297 	0.623 	0.019
 6.759 	0.764 	0.163
 6.989 	0.161 	0.084
 7.098 	-0.178 	-0.376
 7.503 	0.005 	-0.073
 7.461 	0.049 	-0.257
 6.882 	0.578 	-0.067
 6.681 	0.473 	-0.034
 6.652 	-0.257 	-0.081
 6.643 	-0.526 	-0.024
 6.762 	-0.299 	0.073
 6.963 	-0.349 	0.043
 6.932 	0.217 	-0.093
 7.097 	0.163 	-0.257
 6.789 	0.241 	-0.349
 6.415 	0.684 	-0.296
 6.454 	0.593 	-0.217
 6.827 	0.350 	-0.034
 7.003 	0.213 	-0.272
 6.861 	0.174 	-0.125
 6.497 	0.252 	0.319
 6.386 	0.398 	0.163
 6.458 	0.745 	-0.070
 6.984 	0.101 	-0.154
 6.912 	-0.216 	-0.409
 6.757 	-0.389 	-0.254
 6.824 	-0.579 	-0.237
 7.122 	-0.331 	-0.362
 7.142 	0.156 	0.352
 6.890 	0.374 	-0.240
 6.291 	0.220 	-0.308
 6.265 	0.433 	-0.511
 6.338 	0.433 	-0.112
 6.649 	0.323 	0.167
 6.638 	0.266 	-0.092
 6.784 	0.478 	0.046
 6.832 	0.260 	0.142
 6.961 	0.223 	0.157
 6.819 	0.162 	0.015
 6.710 	-0.179 	-0.077
 6.792 	-0.123 	-0.520
 6.895 	-0.146 	-0.609
 6.989 	-0.250 	-0.079
 7.536 	-0.231 	-0.239
 6.069 	-0.019 	-0.346
 6.551 	0.702 	-0.408
 6.412 	0.616 	-0.071
 6.085 	0.557 	0.366
 5.922 	0.234 	0.625
 6.146 	0.070 	0.356
 5.965 	-0.311 	0.613
 6.030 	-0.391 	0.613
 6.325 	-0.063 	0.431
 6.335 	0.113 	0.177
 6.342 	0.068 	0.032
 6.545 	-0.110 	-0.052
 6.775 	-0.578 	-0.426
 7.234 	-0.348 	-0.711
 7.373 	-0.038 	-0.473
 7.391 	-0.021 	-0.262
 4.348 	-0.842 	0.564
 4.800 	-0.182 	0.625
 5.290 	0.296 	0.806
 5.429 	0.414 	0.482
 5.685 	0.087 	-0.013
 6.368 	-0.508 	-0.076
 6.948 	-0.775 	-0.078
 7.035 	-0.406 	-0.059
 6.080 	-0.453 	0.183
 6.027 	0.008 	0.485
 6.433 	-0.239 	0.077
 7.204 	-0.609 	-0.146
 7.064 	-0.736 	-0.705
 6.303 	-0.282 	0.105
 5.655 	0.167 	0.603
 5.241 	0.034 	0.580
 6.503 	-0.762 	-0.230
 6.103 	-0.584 	-0.020
 6.229 	-0.304 	0.019
 6.608 	-0.326 	0.059
 6.929 	-0.774 	0.058
 6.859 	-0.993 	-0.332
 6.918 	-0.775 	-0.335
 6.949 	-0.353 	-0.568
 7.316 	-0.111 	-0.240
 6.871 	-0.046 	0.227
 7.446 	-0.249 	0.170
 6.731 	-0.526 	-0.259
 6.230 	0.115 	-0.002
 5.256 	0.172 	0.489
 5.294 	0.080 	0.391
 5.720 	0.037 	-0.073
 6.551 	-0.913 	-0.148
 6.744 	-0.702 	-0.319
 6.720 	-0.651 	-0.200
 6.801 	-0.875 	-0.069
 6.702 	-0.968 	-0.285
 6.708 	-0.937 	-0.304
 6.619 	-0.672 	-0.259
 6.560 	0.084 	0.332
 7.096 	0.094 	-0.181
 6.759 	-0.123 	0.561
 5.952 	-0.287 	-0.362
 5.964 	-0.021 	0.075
 5.562 	0.234 	0.873
 5.792 	-0.178 	0.292
 6.588 	0.018 	-0.032
 6.677 	-0.181 	-0.507
 6.429 	-0.831 	0.188
 6.524 	-0.533 	0.012
 6.740 	-0.429 	-0.065
 6.679 	-0.808 	-0.173
 6.706 	-0.758 	-0.310
 6.470 	-0.893 	-0.218
 5.601 	-0.616 	-0.325
 6.246 	-0.097 	0.098
 6.935 	-0.195 	0.190
 6.617 	0.121 	0.385
 6.344 	-0.292 	-0.215
 6.421 	-0.151 	0.007
 6.175 	0.543 	0.402
 6.002 	-0.099 	0.229
 6.162 	-0.103 	0.632
 6.647 	-0.015 	-0.182
 6.166 	-0.655 	0.301
 6.513 	-0.561 	0.137
 6.627 	-0.616 	0.129
 6.204 	-0.343 	-0.237
 6.442 	-0.312 	-0.240
 6.218 	-1.292 	-0.019
 6.326 	-0.448 	-0.051
 5.860 	-0.134 	-0.520
 5.585 	-0.055 	-0.470
 6.069 	0.319 	-0.125
 6.083 	-0.511 	-0.430
 6.283 	0.240 	-0.202
 6.716 	0.554 	0.051
 6.686 	0.313 	0.396
 7.210 	-0.209 	0.565
 7.175 	-0.119 	-0.007
 6.135 	-0.877 	0.417
 6.520 	-0.495 	-0.025
 6.692 	-0.649 	0.138
 6.527 	-0.231 	-0.134
 6.776 	-0.338 	-0.295
 7.015 	-0.339 	-0.622
 7.173 	-0.674 	-0.192
 6.184 	-0.297 	-0.141
 6.181 	-0.133 	-0.558
 6.363 	-0.147 	-0.620
 7.002 	-0.022 	-0.638
 6.438 	-0.641 	-0.652
 6.851 	0.296 	-0.186
 6.757 	0.435 	0.466
 6.368 	-0.142 	0.458
 6.006 	-0.515 	0.113
 6.076 	0.068 	0.340
 5.973 	0.076 	0.109
 6.165 	0.060 	0.062
 6.354 	-0.437 	-0.011
 6.955 	0.011 	-0.117
 6.915 	0.315 	0.278
 7.427 	0.579 	-0.155
 5.955 	-0.078 	-0.003
 5.923 	-0.394 	0.131
 6.429 	0.191 	0.386
 6.471 	0.875 	0.291
 6.388 	0.802 	1.054
 6.572 	1.016 	0.480
 6.494 	1.581 	0.586
 5.997 	1.328 	0.580
 6.267 	1.125 	-0.082
 6.548 	-0.088 	-0.126
 6.417 	-0.007 	0.202
 6.643 	0.073 	-0.148
 6.815 	0.105 	-0.649
 6.683 	-0.402 	-0.012
 6.805 	-0.067 	-0.026
 6.563 	0.643 	-0.104
 5.847 	0.122 	0.273
 5.744 	0.183 	0.397
 5.983 	0.484 	1.052
 6.182 	1.131 	0.957
 6.111 	0.395 	0.961
 6.072 	0.831 	0.342
 6.137 	1.486 	0.536
 6.044 	1.175 	0.217
 5.826 	0.586 	-0.014
 7.010 	-0.217 	-0.222
 7.124 	-0.068 	-0.320
 6.997 	0.119 	-0.128
 6.920 	0.183 	-0.585
 6.745 	-0.093 	-0.202
 6.687 	0.390 	-0.069
 6.585 	0.751 	0.343
 6.020 	0.790 	-0.059
 5.592 	0.289 	0.156
 5.568 	0.427 	0.429
 5.881 	0.440 	0.561
 6.173 	0.205 	0.387
 5.613 	0.565 	0.444
 5.558 	1.278 	0.063
 5.320 	1.075 	0.687
 5.313 	0.168 	0.903
 7.336 	-0.513 	-0.803
 7.653 	-0.163 	-0.662
 7.392 	0.211 	-0.282
 7.054 	0.298 	-0.496
 6.418 	0.223 	0.203
 6.177 	0.624 	0.216
 6.650 	1.022 	-0.265
 6.302 	0.919 	-0.078
 6.135 	0.826 	-0.005
 6.381 	0.337 	0.242
 6.442 	0.136 	0.114
 6.199 	0.064 	0.001
 5.517 	0.886 	0.203
 5.427 	1.291 	0.557
 6.047 	0.846 	0.060
 5.638 	0.409 	0.010
 6.898 	-0.289 	-0.480
 7.270 	-0.032 	-0.420
 7.190 	0.483 	-0.296
 6.807 	0.569 	-0.221
 6.338 	0.711 	0.444
 6.260 	0.678 	0.330
 6.299 	0.450 	0.320
 6.490 	0.371 	0.233
 6.680 	0.245 	0.121
 6.905 	0.199 	-0.035
 6.728 	0.041 	0.165
 7.083 	0.527 	0.029
 6.655 	0.683 	-0.066
 6.781 	0.761 	0.068
 6.371 	0.964 	-0.062
 6.130 	0.616 	-0.474
 6.543 	-0.154 	0.500
 6.634 	-0.210 	0.125
 6.893 	0.254 	-0.180
 7.205 	0.679 	-0.495
 6.877 	0.520 	-0.068
 6.869 	0.635 	0.306
 7.154 	0.346 	0.584
 7.172 	0.213 	-0.091
 7.230 	0.228 	-0.387
 7.307 	0.339 	-0.080
 7.145 	0.071 	-0.039
 6.856 	0.248 	0.219
 7.269 	0.836 	-0.068
 7.112 	0.775 	-0.074
 6.589 	1.075 	-0.476
 6.633 	0.613 	-0.420
 6.543 	-0.420 	0.205
 6.870 	-0.300 	0.150
 6.978 	-0.121 	0.063
 6.690 	-0.035 	-0.131
 6.890 	0.082 	-0.420
 7.154 	0.227 	-0.304
 7.558 	0.282 	-0.256
 7.503 	0.247 	-0.429
 7.414 	0.026 	-0.335
 7.386 	0.185 	-0.198
 7.094 	0.308 	0.001
 7.006 	0.401 	0.044
 6.844 	0.718 	-0.113
 6.929 	0.924 	-0.215
 6.843 	1.034 	-0.114
 7.026 	0.717 	-0.148
 6.018 	-0.381 	0.091
 6.246 	-0.399 	-0.245
 6.554 	-0.232 	-0.305
 6.376 	-0.235 	-0.308
 6.519 	-0.083 	-0.261
 6.607 	-0.023 	-0.236
 6.824 	0.233 	-0.247
 6.829 	0.185 	-0.151
 6.583 	0.061 	0.391
 6.547 	0.010 	0.207
 6.810 	0.404 	-0.060
 6.790 	0.355 	0.020
 6.665 	0.771 	-0.139
 6.619 	0.900 	-0.360
 6.675 	0.905 	-0.308
 7.097 	0.277 	-0.523
 5.759 	-0.744 	-0.091
 5.535 	-0.710 	-0.341
 5.990 	-0.077 	-0.317
 5.937 	-0.077 	-0.485
 6.091 	0.132 	-0.086
 6.251 	0.263 	0.079
 6.189 	0.259 	-0.003
 6.315 	0.113 	0.231
 6.603 	-0.183 	0.319
 6.866 	-0.356 	0.389
 6.916 	-0.022 	0.337
 6.764 	0.122 	0.068
 6.748 	0.171 	-0.010
 6.862 	0.188 	0.091
 7.203 	0.083 	0.121
 7.427 	-0.208 	-0.061
 5.433 	-0.601 	0.084
 5.473 	-0.457 	0.130
 5.070 	-0.248 	0.354
 5.271 	-0.158 	0.633
 5.618 	-0.074 	0.751
 5.765 	0.098 	0.841
 5.808 	-0.156 	0.884
 6.061 	-0.477 	1.153
 6.354 	-0.830 	0.920
 6.639 	-0.721 	0.454
 6.822 	-0.531 	0.176
 7.053 	-0.139 	-0.059
 7.056 	-0.661 	-0.150
 7.441 	-0.696 	-0.074
 7.424 	-0.469 	-0.148
 6.964 	-0.436 	-0.094
 4.813 	-0.512 	0.682
 4.787 	-0.391 	0.724
 5.042 	-0.088 	0.358
 5.696 	-0.159 	0.111
 6.294 	-0.496 	0.036
 6.841 	-0.470 	0.128
 7.127 	-0.504 	-0.050
 6.829 	-0.544 	-0.007
 6.800 	-0.554 	0.140
 6.839 	-0.725 	0.034
 7.022 	-0.473 	-0.284
 7.084 	-0.650 	-0.426
 7.149 	-0.825 	-0.266
 6.562 	-0.496 	0.456
 5.889 	-0.096 	0.551
 6.219 	-0.208 	0.195
 6.022 	-0.588 	0.110
 5.856 	-0.219 	0.450
 6.054 	-0.295 	0.826
 6.857 	-0.645 	0.678
 7.130 	-1.002 	0.188
 6.935 	-0.795 	-0.240
 6.645 	-0.425 	-0.355
 6.763 	-0.203 	-0.384
 6.896 	-0.190 	-0.277
 7.113 	-0.155 	-0.030
 7.157 	-0.361 	0.009
 7.020 	-0.733 	0.191
 6.543 	-0.078 	0.065
 5.826 	0.136 	0.669
 6.177 	-0.083 	0.459
 6.820 	-0.615 	0.042
 6.596 	-0.723 	-0.059
 6.611 	-0.641 	-0.055
 6.674 	-1.000 	-0.061
 7.114 	-1.070 	-0.009
 6.943 	-0.861 	-0.262
 6.645 	-0.879 	-0.092
 6.655 	-0.647 	-0.138
 6.579 	-0.632 	0.015
 6.609 	-0.372 	-0.229
 6.959 	-0.332 	0.202
 6.940 	-0.028 	0.231
 6.290 	-0.292 	0.416
 6.031 	0.324 	0.303
 6.777 	0.140 	0.079
 6.965 	-0.450 	-0.115
 6.415 	-0.764 	-0.138
 6.740 	-0.927 	-0.105
 6.890 	-0.951 	-0.371
 7.176 	-1.170 	-0.156
 6.994 	-1.348 	-0.390
 6.562 	-0.771 	-0.223
 6.425 	-0.921 	0.110
 6.596 	-0.786 	0.052
 5.983 	-0.704 	-0.233
 5.997 	-0.541 	0.105
 6.476 	-0.388 	0.386
 6.700 	-0.074 	0.094
 6.307 	0.033 	0.528
 6.944 	-0.218 	0.457
 7.055 	-0.388 	-0.113
 7.060 	-0.327 	-0.027
 6.613 	-0.265 	0.197
 7.156 	-1.106 	-0.029
 7.329 	-1.044 	-0.208
 7.138 	-1.286 	-0.090
 7.033 	-1.009 	-0.243
 6.749 	-0.511 	-0.294
 6.567 	-0.566 	-0.128
 6.776 	-1.397 	0.022
 7.434 	-0.665 	-0.188
 7.476 	-0.955 	-0.490
 7.651 	-0.702 	-0.547
 6.842 	-0.253 	-0.344
 6.528 	-0.420 	-0.056
 6.462 	-0.724 	-0.215
 6.474 	-0.535 	0.216
 6.629 	-0.575 	0.540
 6.607 	-0.292 	0.725
 6.910 	-1.489 	0.282
 7.233 	-1.017 	0.098
 7.384 	-0.728 	-0.241
 7.358 	-0.837 	-0.134
 7.005 	-0.995 	-0.376
 7.138 	-1.369 	-0.261
 7.441 	-1.063 	0.175
 7.053 	-0.592 	0.201
 7.013 	-0.935 	-0.422
 7.230 	-0.778 	-0.387
 7.436 	-0.598 	-0.303
 7.279 	0.039 	-0.300
 6.694 	-0.815 	0.021
 6.084 	-0.658 	0.561
 6.205 	-0.339 	0.399
 6.992 	-0.770 	0.014
 6.405 	-0.061 	0.323
 6.354 	-0.067 	0.349
 6.612 	-0.404 	-0.126
 6.804 	-0.387 	-0.083
 6.786 	-0.138 	0.492
 7.227 	0.017 	0.301
 7.665 	0.714 	0.264
 7.428 	0.521 	0.530
 6.625 	0.148 	0.138
 6.994 	-0.077 	-0.142
 6.958 	0.229 	-0.014
 6.544 	0.741 	0.852
 6.504 	1.169 	0.559
 6.368 	1.583 	0.504
 6.761 	1.549 	0.477
 7.177 	1.033 	-0.077
 6.697 	-0.166 	0.425
 6.921 	-0.375 	0.267
 7.583 	-0.365 	-0.385
 7.731 	-0.637 	-0.718
 7.321 	0.048 	-0.081
 6.888 	-0.175 	0.324
 6.773 	0.611 	0.837
 5.978 	0.414 	0.104
 5.642 	0.063 	0.266
 5.754 	0.118 	0.518
 5.870 	0.499 	1.164
 6.217 	0.698 	1.180
 6.177 	0.824 	0.666
 6.071 	1.299 	0.513
 6.075 	1.233 	0.540
 5.846 	1.041 	0.567
 7.673 	-0.289 	-0.074
 7.670 	-0.508 	-0.498
 8.060 	-0.481 	-0.182
 8.074 	-0.415 	-0.763
 8.021 	0.612 	-0.268
 7.314 	0.111 	0.019
 6.667 	0.359 	0.553
 7.107 	0.439 	0.223
 5.683 	0.744 	0.024
 5.210 	0.338 	0.509
 5.307 	0.137 	0.674
 5.735 	0.528 	0.575
 5.789 	0.666 	0.632
 5.536 	1.000 	0.721
 5.313 	1.278 	0.887
 5.191 	1.302 	0.785
 8.353 	-0.182 	-0.619
 7.613 	-0.375 	-0.719
 7.733 	-0.160 	-0.278
 7.342 	0.208 	-0.531
 7.412 	0.248 	0.224
 7.343 	0.292 	0.305
 6.831 	0.545 	0.296
 6.762 	0.265 	0.169
 6.224 	1.033 	0.071
 6.426 	0.793 	-0.197
 6.654 	0.250 	-0.082
 6.147 	0.244 	0.321
 5.728 	0.557 	0.321
 6.022 	1.075 	0.451
 5.871 	1.248 	0.357
 5.846 	1.046 	0.118
 7.456 	-0.067 	-0.588
 7.446 	-0.210 	-0.302
 6.938 	0.122 	-0.441
 7.085 	0.374 	-0.157
 7.178 	0.433 	0.354
 6.974 	0.603 	0.401
 6.452 	0.638 	0.470
 6.485 	0.322 	0.386
 6.755 	0.254 	0.287