# vtk DataFile Version 3.0
HighT1
ASCII
DATASET STRUCTURED_POINTS
DIMENSIONS 16 16 19
ORIGIN 929.001000000000 929.001000000000 5.001000000000
SPACING 10.000000000000 10.000000000000 10.000000000000
POINT_DATA 4864
FIELD attributes 1
U 3 4864 float
2.139 	1.124 	0.936
 2.542 	0.581 	0.437
 3.198 	-0.479 	0.065
 3.389 	-1.030 	-0.065
 2.955 	-0.604 	0.171
 3.063 	-0.304 	0.195
 3.183 	-0.267 	0.324
 3.175 	-0.049 	0.225
 3.328 	-0.253 	0.183
 3.257 	-0.562 	0.050
 3.360 	-0.643 	-0.125
 3.580 	-0.412 	-0.042
 3.537 	-0.435 	0.069
 3.865 	-0.213 	0.124
 3.990 	-0.387 	0.067
 3.731 	-0.214 	-0.040
 3.205 	0.424 	-0.333
 3.667 	-0.194 	-0.690
 4.315 	-0.335 	-0.479
 4.786 	-0.058 	-0.322
 4.852 	0.529 	-0.454
 4.559 	-0.328 	0.177
 3.947 	-0.439 	0.143
 3.241 	-0.003 	-0.060
 2.894 	-0.100 	-0.022
 2.944 	-0.297 	-0.018
 3.371 	-0.383 	-0.134
 3.719 	-0.834 	0.149
 4.896 	-0.942 	-0.291
 4.964 	-0.801 	-0.146
 4.883 	-0.496 	-0.021
 3.594 	-0.329 	0.102
 3.531 	0.388 	-0.213
 3.910 	0.328 	-0.369
 4.027 	0.412 	-0.157
 4.021 	0.101 	0.123
 4.414 	0.336 	0.005
 5.236 	1.199 	-0.119
 3.507 	0.199 	0.473
 3.230 	0.333 	0.330
 3.932 	-0.773 	0.477
 4.329 	-1.149 	0.167
 4.401 	-1.147 	0.081
 4.475 	-0.793 	0.074
 3.655 	-1.292 	0.095
 3.052 	-0.484 	0.246
 3.024 	-0.195 	0.349
 3.929 	-0.854 	-0.022
 3.097 	0.034 	0.143
 3.387 	0.230 	0.022
 4.170 	0.361 	-0.204
 4.772 	0.397 	-0.527
 4.828 	0.365 	-0.288
 4.664 	0.633 	0.052
 5.192 	1.124 	0.008
 5.111 	0.408 	-0.173
 5.284 	-0.426 	-0.039
 5.166 	-0.780 	0.018
 4.958 	-1.259 	0.130
 4.437 	-0.993 	-0.193
 3.552 	-0.980 	-0.035
 3.831 	-0.235 	0.060
 3.250 	-0.615 	0.425
 3.752 	-1.581 	0.428
 3.450 	-0.050 	0.180
 3.200 	-0.168 	0.137
 3.264 	0.132 	0.122
 3.622 	0.671 	-0.069
 4.404 	0.863 	-0.278
 4.877 	0.822 	-0.038
 5.146 	0.674 	-0.013
 5.320 	0.082 	0.059
 5.223 	-0.293 	-0.204
 4.233 	-0.207 	-0.074
 3.957 	-0.373 	-0.044
 3.374 	-1.060 	0.021
 2.471 	-0.571 	0.200
 2.231 	-0.267 	0.861
 3.923 	-0.779 	0.178
 5.652 	-1.394 	-0.829
 3.748 	-0.323 	-0.180
 3.601 	-0.040 	-0.132
 3.718 	-0.012 	-0.151
 3.888 	0.157 	-0.050
 4.150 	0.438 	-0.012
 4.468 	0.659 	-0.028
 4.808 	0.485 	-0.048
 4.718 	0.024 	-0.055
 4.495 	-0.043 	-0.119
 4.445 	0.354 	0.077
 4.149 	0.130 	-0.069
 4.367 	0.112 	-0.191
 4.944 	-0.279 	-0.240
 5.515 	-1.061 	-0.254
 5.854 	-1.001 	-0.432
 6.314 	-0.519 	-1.142
 2.739 	-0.160 	0.344
 3.056 	-0.232 	0.315
 3.527 	-0.364 	0.270
 3.800 	-0.563 	0.419
 3.746 	-0.326 	0.461
 4.110 	0.181 	0.132
 4.359 	0.202 	0.090
 4.594 	-0.032 	0.114
 4.698 	-0.242 	0.107
 4.602 	-0.701 	0.170
 4.885 	-0.760 	0.222
 5.064 	-0.242 	0.095
 5.629 	0.054 	-0.316
 5.793 	-0.407 	-0.339
 5.659 	-0.585 	-0.211
 5.845 	-0.295 	-0.877
 4.170 	-0.044 	-0.259
 4.555 	-0.251 	-0.262
 4.773 	-0.135 	-0.324
 5.019 	-0.128 	-0.209
 5.268 	-0.013 	-0.144
 5.719 	0.056 	-0.123
 5.625 	-0.225 	0.142
 5.160 	-0.290 	0.134
 5.286 	-0.705 	-0.155
 5.602 	-0.613 	-0.418
 6.008 	-0.388 	-0.358
 6.050 	-0.340 	-0.245
 5.395 	-0.152 	-0.022
 6.166 	0.011 	-0.525
 5.946 	-0.452 	-0.203
 4.892 	0.122 	0.162
 4.321 	0.437 	-0.226
 4.440 	-0.014 	-0.181
 4.524 	-0.242 	-0.094
 4.795 	-0.059 	-0.056
 5.133 	-0.097 	-0.123
 5.447 	0.009 	0.025
 5.019 	0.051 	0.104
 4.748 	-0.396 	-0.028
 4.969 	-0.226 	-0.474
 5.047 	-0.170 	-0.317
 5.217 	-0.218 	-0.099
 5.288 	-0.020 	-0.043
 5.742 	-0.447 	-0.231
 5.800 	0.559 	-0.051
 4.192 	0.547 	0.561
 3.959 	0.104 	0.139
 3.786 	0.245 	-0.114
 4.605 	0.034 	-0.270
 4.795 	0.179 	-0.293
 4.487 	0.227 	-0.040
 5.311 	-0.136 	-0.073
 5.615 	-0.207 	0.045
 5.360 	-0.105 	0.168
 4.541 	-0.256 	0.021
 4.086 	0.152 	-0.107
 4.149 	0.008 	-0.128
 4.238 	-0.466 	0.002
 4.936 	-0.166 	0.083
 5.255 	0.634 	-0.102
 5.403 	0.859 	-0.319
 5.307 	1.160 	0.121
 5.022 	0.896 	0.188
 3.270 	0.137 	0.055
 3.995 	-0.223 	-0.057
 4.871 	0.378 	-0.139
 4.806 	0.305 	-0.060
 4.327 	-0.298 	0.457
 4.652 	0.027 	0.077
 3.890 	-0.409 	0.312
 4.052 	-0.161 	0.202
 3.919 	-0.509 	0.338
 4.493 	-0.380 	0.076
 5.360 	-0.200 	-0.217
 5.892 	-0.236 	-0.019
 4.900 	0.358 	-0.017
 5.379 	-0.035 	-0.054
 5.391 	1.008 	0.140
 5.281 	0.934 	0.100
 4.712 	0.172 	0.025
 3.900 	0.102 	-0.038
 3.626 	0.410 	0.028
 3.487 	0.132 	0.219
 3.495 	-0.634 	0.344
 3.153 	-1.068 	-0.079
 3.823 	-1.242 	-0.313
 4.243 	-1.338 	-0.652
 5.447 	-0.377 	-0.982
 5.548 	-0.376 	-0.655
 5.880 	0.061 	-0.721
 6.105 	0.513 	-0.241
 5.199 	0.500 	0.092
 5.238 	0.670 	0.117
 5.520 	0.967 	0.054
 5.675 	0.407 	-0.203
 3.904 	-0.096 	0.240
 3.881 	0.730 	-0.018
 3.672 	0.597 	0.274
 4.170 	0.340 	-0.310
 5.239 	-0.426 	-0.022
 4.253 	-1.259 	0.392
 3.175 	-0.829 	-0.137
 3.346 	-0.874 	0.064
 3.506 	0.041 	-0.184
 4.207 	0.513 	-0.012
 4.266 	0.519 	0.433
 4.438 	1.104 	0.081
 3.899 	1.233 	0.077
 3.356 	0.923 	-0.048
 3.918 	0.526 	-0.160
 4.352 	-0.171 	-0.067
 5.489 	0.487 	-0.056
 5.145 	0.580 	-0.516
 5.130 	0.347 	0.148
 6.022 	0.197 	-0.542
 5.429 	0.125 	-0.021
 5.009 	-0.342 	0.027
 4.067 	0.048 	-0.157
 3.532 	-0.209 	-0.111
 2.952 	-0.101 	0.261
 3.104 	0.008 	0.197
 3.359 	0.698 	0.351
 3.522 	0.395 	-0.089
 4.055 	1.250 	-0.010
 4.066 	0.777 	-0.130
 4.115 	0.309 	-0.152
 4.125 	0.381 	0.231
 5.205 	0.750 	-0.007
 5.024 	0.099 	-0.226
 5.529 	0.255 	-0.174
 5.492 	0.836 	0.179
 5.404 	0.395 	0.030
 4.135 	-0.044 	0.140
 3.241 	-0.313 	0.118
 3.891 	0.151 	-0.265
 4.015 	-0.483 	0.105
 3.878 	0.155 	0.144
 4.369 	-0.472 	0.245
 3.948 	0.390 	0.385
 3.353 	0.999 	0.031
 3.477 	-0.018 	0.097
 3.126 	0.094 	0.322
 3.242 	-0.318 	0.360
 3.511 	0.351 	0.168
 3.598 	0.861 	1.048
 4.521 	0.911 	0.087
 5.010 	1.087 	0.243
 5.526 	1.441 	-0.605
 5.214 	1.005 	0.170
 4.432 	-0.114 	-0.026
 5.100 	0.316 	0.089
 4.707 	-0.390 	0.032
 4.944 	-0.073 	-0.329
 5.095 	-0.072 	0.462
 4.188 	-0.261 	-0.175
 3.057 	0.864 	0.521
 3.115 	0.888 	-0.226
 4.059 	0.133 	-0.319
 3.513 	-0.485 	0.216
 4.130 	0.667 	-0.381
 3.680 	1.519 	0.525
 3.899 	0.505 	0.354
 4.751 	-0.017 	-0.739
 4.905 	-0.126 	-0.141
 4.892 	1.216 	0.287
 4.016 	0.758 	0.748
 3.845 	0.497 	0.745
 3.807 	0.699 	0.566
 3.800 	0.774 	0.096
 4.083 	0.497 	-0.099
 4.511 	-0.120 	-0.140
 5.036 	-0.562 	-0.079
 5.160 	-0.833 	-0.223
 5.013 	-0.465 	-0.019
 4.248 	-0.132 	0.182
 3.820 	1.053 	-0.306
 4.531 	0.853 	-0.444
 5.247 	0.545 	-0.951
 4.464 	-0.059 	-0.315
 4.800 	-0.546 	-0.539
 4.786 	1.415 	0.172
 4.685 	0.569 	0.153
 4.776 	0.404 	0.180
 4.416 	0.626 	-0.048
 4.836 	0.360 	-0.591
 4.803 	-0.041 	-0.301
 4.997 	0.254 	-0.261
 4.718 	0.271 	0.266
 4.976 	-1.244 	0.936
 4.994 	-0.790 	0.580
 5.034 	0.208 	0.550
 5.109 	0.282 	-0.165
 5.692 	0.127 	-0.504
 4.948 	0.275 	-0.295
 4.594 	0.269 	0.088
 4.529 	-0.452 	-0.098
 4.979 	0.758 	-0.342
 5.511 	0.722 	-0.334
 4.949 	0.701 	0.321
 4.262 	0.574 	-0.068
 4.282 	0.864 	-0.292
 4.530 	0.242 	0.060
 5.066 	-0.323 	-0.011
 5.577 	-0.256 	-0.069
 5.900 	-1.548 	0.104
 5.086 	-0.388 	0.669
 4.139 	-0.195 	0.612
 5.786 	0.231 	-0.009
 6.298 	0.615 	-0.718
 6.352 	0.728 	-0.640
 5.920 	0.546 	-0.986
 5.262 	0.062 	0.090
 5.044 	0.256 	-0.345
 5.131 	0.957 	-0.201
 4.434 	1.257 	0.291
 4.176 	0.991 	-0.124
 4.931 	0.873 	-0.520
 5.721 	-0.522 	0.126
 6.242 	-0.830 	0.062
 5.978 	-1.035 	0.209
 5.807 	-0.394 	0.433
 6.128 	-0.360 	0.218
 5.324 	-0.334 	0.359
 5.344 	0.887 	0.300
 5.315 	0.955 	-0.076
 5.804 	0.961 	-0.166
 6.381 	0.700 	-0.542
 6.063 	0.656 	0.060
 4.845 	0.696 	-0.118
 4.893 	1.104 	-0.482
 5.419 	1.007 	-0.089
 6.139 	0.463 	-0.107
 6.297 	-0.027 	-0.294
 6.636 	-0.154 	-0.374
 6.671 	-0.254 	-0.474
 6.410 	-0.729 	0.325
 6.259 	-0.413 	0.226
 6.435 	0.086 	-0.247
 6.085 	-0.397 	-0.934
 5.374 	1.140 	-0.277
 5.754 	0.958 	-0.390
 5.960 	0.948 	-0.361
 5.896 	0.711 	-0.133
 5.895 	0.789 	-0.122
 5.947 	0.589 	-0.086
 5.765 	0.849 	0.074
 6.048 	0.823 	0.097
 6.320 	0.484 	0.003
 6.524 	0.333 	-0.063
 6.761 	0.254 	-0.223
 6.777 	0.441 	-0.740
 6.807 	0.127 	-0.306
 6.614 	-0.538 	-0.024
 6.511 	-0.753 	-0.366
 6.608 	-0.983 	-0.577
 4.529 	0.444 	0.163
 4.189 	0.748 	0.183
 4.202 	0.800 	0.081
 4.150 	0.646 	0.215
 4.169 	0.382 	0.272
 4.337 	0.374 	0.447
 4.432 	0.648 	0.439
 4.811 	0.610 	0.523
 5.247 	0.616 	0.572
 6.040 	0.753 	0.085
 6.578 	0.995 	-0.616
 6.627 	0.621 	-0.726
 6.803 	0.043 	-0.371
 6.384 	-0.567 	-0.459
 6.976 	-0.931 	-0.550
 7.026 	-1.101 	-0.696
 5.101 	0.149 	-0.097
 5.279 	0.344 	-0.059
 5.588 	0.288 	-0.369
 5.803 	0.317 	-0.471
 6.250 	-0.047 	-0.573
 6.551 	0.148 	-0.549
 6.121 	0.702 	-0.402
 6.070 	0.325 	0.009
 6.010 	0.467 	-0.236
 6.304 	0.555 	-0.471
 6.380 	1.046 	-0.417
 6.548 	0.402 	-0.315
 6.445 	-0.312 	-0.113
 6.717 	-0.202 	-0.734
 7.083 	-0.538 	-0.444
 6.908 	-0.600 	-0.027
 5.896 	0.222 	-0.453
 5.624 	0.098 	-0.272
 5.495 	0.245 	-0.118
 5.709 	-0.098 	0.185
 5.883 	-0.237 	0.331
 6.047 	-0.025 	0.263
 6.494 	0.355 	0.078
 6.662 	0.502 	-0.277
 6.532 	0.405 	-0.634
 6.965 	0.397 	-0.809
 6.775 	1.152 	-0.584
 6.745 	-0.168 	-0.243
 6.398 	-0.440 	0.016
 7.070 	-0.418 	-0.397
 6.444 	-0.162 	0.302
 5.725 	-0.093 	-0.022
 5.851 	0.183 	-0.478
 6.305 	0.469 	-0.522
 5.571 	-0.462 	0.027
 5.821 	-0.116 	0.087
 5.706 	-0.192 	-0.085
 6.200 	0.228 	0.137
 6.297 	0.529 	0.242
 6.691 	0.614 	-0.130
 6.662 	0.568 	-0.089
 6.402 	0.308 	-0.221
 7.304 	0.514 	-0.053
 6.701 	0.189 	0.096
 6.175 	-0.388 	-0.038
 5.911 	-0.455 	-0.057
 5.868 	0.620 	0.247
 5.955 	0.647 	-0.262
 6.218 	0.318 	-0.351
 6.125 	0.255 	-0.034
 6.086 	-0.446 	-0.249
 5.643 	-0.345 	-0.188
 4.661 	-0.322 	0.625
 3.812 	-0.716 	1.458
 5.298 	0.486 	0.547
 6.242 	0.724 	-0.044
 6.494 	0.835 	-0.115
 6.729 	0.445 	-0.474
 6.651 	0.792 	-0.869
 6.390 	0.753 	0.167
 6.242 	0.304 	-0.126
 5.726 	-0.021 	-0.022
 6.248 	0.177 	0.309
 6.884 	0.395 	-0.007
 6.095 	-0.433 	-0.164
 6.486 	-0.484 	-0.146
 6.564 	-0.785 	0.182
 5.705 	0.133 	0.040
 5.662 	-0.276 	0.303
 7.088 	0.234 	-0.326
 5.486 	0.101 	0.234
 5.666 	0.790 	-0.546
 6.079 	0.340 	-0.665
 6.129 	-0.017 	-0.621
 5.542 	-0.202 	-0.287
 5.176 	0.276 	-0.199
 4.694 	0.557 	0.061
 4.083 	-0.435 	0.024
 4.611 	-0.357 	0.069
 5.063 	-0.293 	0.234
 6.422 	-0.401 	-0.145
 6.585 	-0.511 	-0.557
 6.608 	-0.441 	0.339
 6.727 	-0.055 	-0.733
 6.580 	0.368 	-0.085
 5.394 	-0.382 	0.717
 6.151 	-0.296 	-0.124
 6.073 	-0.639 	0.090
 5.705 	-0.662 	-0.083
 5.178 	-0.114 	-0.073
 4.927 	-0.305 	0.092
 4.561 	0.591 	0.282
 4.011 	0.556 	0.287
 4.545 	0.035 	-0.418
 5.159 	-0.325 	-0.383
 5.270 	-0.540 	-0.083
 6.299 	-0.271 	-0.349
 6.096 	-0.435 	0.078
 6.297 	-0.634 	-0.213
 6.420 	-0.097 	-0.377
 6.862 	0.151 	-0.321
 6.534 	0.051 	-0.091
 6.487 	0.122 	0.551
 5.937 	0.158 	-0.105
 6.167 	0.257 	-0.297
 5.244 	-0.627 	0.660
 5.225 	-1.118 	-0.438
 5.495 	-0.008 	0.618
 3.957 	0.689 	0.994
 4.310 	-0.002 	-0.264
 4.939 	-0.904 	-0.568
 4.983 	-0.358 	-0.002
 5.982 	-0.209 	0.237
 5.778 	-0.101 	-0.293
 5.675 	-0.564 	-0.451
 5.732 	-0.231 	-0.188
 6.013 	0.736 	-0.491
 5.909 	0.736 	0.956
 6.205 	0.279 	-0.049
 6.390 	0.619 	-0.524
 5.303 	0.687 	0.241
 5.329 	-0.434 	0.424
 5.462 	-0.393 	-0.313
 4.760 	0.565 	0.432
 4.256 	0.617 	1.318
 4.322 	-0.080 	-0.006
 3.938 	-0.047 	-0.157
 3.996 	-0.305 	0.578
 4.916 	-0.449 	-0.034
 5.080 	-0.591 	0.035
 5.355 	-0.201 	-0.463
 5.036 	-0.568 	-0.375
 5.007 	1.153 	-0.462
 5.636 	1.221 	0.163
 6.143 	0.553 	-0.977
 6.086 	0.728 	-0.629
 6.112 	0.656 	-0.014
 5.639 	0.134 	-0.344
 5.000 	0.599 	0.489
 5.080 	0.207 	0.490
 5.556 	-0.278 	0.519
 5.453 	0.280 	-0.435
 4.630 	1.076 	-0.175
 4.932 	-0.161 	0.423
 5.619 	-0.655 	-1.138
 6.091 	-0.281 	-0.689
 6.391 	0.210 	0.234
 5.526 	-0.258 	-0.051
 5.737 	0.087 	0.389
 4.919 	1.056 	0.470
 5.012 	1.651 	1.079
 4.360 	0.974 	1.022
 4.346 	0.772 	0.642
 4.491 	0.766 	0.255
 4.835 	1.685 	0.221
 5.083 	1.156 	-0.107
 5.257 	0.496 	-0.468
 5.582 	0.037 	-0.526
 5.525 	-0.038 	0.309
 5.535 	-0.328 	0.625
 5.767 	-0.724 	0.277
 5.618 	0.168 	-0.300
 5.954 	0.205 	-0.208
 5.363 	0.163 	-0.194
 4.683 	-0.207 	-0.526
 5.294 	0.733 	0.341
 5.557 	1.374 	0.706
 5.611 	1.315 	0.570
 5.173 	0.690 	-0.018
 4.867 	0.632 	-0.130
 5.251 	1.000 	-0.058
 5.564 	0.711 	-0.198
 5.666 	0.522 	-0.078
 5.108 	0.524 	0.369
 5.128 	-0.359 	0.944
 5.947 	-0.399 	0.319
 7.131 	-0.276 	-0.156
 6.867 	-0.160 	-0.326
 5.982 	0.792 	-0.230
 5.628 	0.453 	-0.188
 5.164 	0.018 	0.021
 4.884 	0.191 	0.288
 5.592 	0.803 	-0.516
 5.445 	0.988 	0.228
 5.792 	0.997 	-0.379
 5.381 	0.746 	-0.299
 4.384 	1.044 	0.094
 4.656 	0.551 	0.079
 5.240 	0.242 	0.478
 5.035 	0.294 	-0.051
 5.444 	0.081 	0.793
 5.485 	-0.356 	1.233
 7.506 	0.383 	-0.656
 7.316 	0.116 	-0.364
 6.430 	0.802 	-0.372
 5.822 	0.538 	-0.405
 5.913 	-0.063 	-0.243
 6.099 	-0.439 	-0.474
 5.459 	0.445 	0.338
 5.503 	0.980 	-0.068
 5.102 	0.991 	-0.047
 4.972 	1.078 	-0.226
 5.476 	0.968 	-0.229
 5.944 	0.137 	0.119
 5.288 	-0.024 	0.189
 5.417 	0.017 	0.083
 5.429 	-0.038 	-0.308
 5.576 	-0.530 	-0.016
 6.893 	0.404 	-0.650
 6.644 	0.395 	-0.250
 6.518 	0.513 	-0.264
 6.676 	0.515 	-0.024
 6.033 	0.320 	0.062
 6.115 	0.055 	-0.295
 5.866 	0.477 	-0.004
 5.289 	1.167 	0.105
 5.612 	1.322 	-0.512
 6.263 	0.868 	-0.733
 6.961 	0.176 	-0.782
 7.469 	0.156 	-0.613
 6.973 	0.046 	-0.149
 6.637 	-0.131 	0.312
 6.380 	-0.591 	0.151
 6.157 	-0.404 	-0.215
 6.728 	0.659 	-0.575
 6.918 	0.722 	-0.478
 6.531 	0.266 	-0.084
 6.148 	0.138 	0.065
 6.001 	0.119 	0.213
 6.185 	0.128 	-0.082
 6.401 	0.186 	-0.190
 6.790 	0.651 	-0.071
 6.727 	0.658 	-0.005
 6.676 	0.172 	-0.351
 6.971 	-0.475 	-0.504
 7.064 	0.113 	-0.609
 7.231 	0.277 	-0.374
 7.173 	0.056 	-0.010
 6.878 	-0.706 	-0.046
 7.020 	-0.913 	-0.519
 5.472 	0.130 	0.170
 5.861 	0.389 	0.093
 5.911 	0.611 	0.160
 5.890 	0.388 	0.129
 6.037 	0.126 	-0.030
 6.192 	-0.037 	0.199
 6.558 	0.335 	0.120
 6.855 	0.548 	0.192
 6.670 	0.972 	0.065
 6.511 	0.225 	-0.546
 6.139 	-0.517 	-1.036
 6.277 	-0.259 	-1.016
 6.524 	-0.041 	-0.300
 6.904 	-0.022 	-0.120
 6.397 	-1.111 	-0.361
 6.596 	-1.001 	-0.733
 5.757 	0.169 	-0.133
 5.764 	-0.173 	-0.090
 6.179 	0.236 	-0.032
 6.202 	0.131 	-0.131
 6.444 	-0.179 	-0.177
 6.409 	0.247 	0.019
 6.592 	0.602 	0.039
 7.062 	0.665 	0.026
 7.074 	1.105 	-0.184
 7.108 	0.366 	-0.444
 6.574 	0.053 	-0.016
 6.285 	-0.066 	-0.061
 6.374 	-0.254 	-0.272
 6.749 	-0.660 	-0.308
 6.644 	-0.948 	-0.498
 6.381 	-1.005 	-0.467
 6.030 	0.373 	-0.418
 5.823 	-0.006 	-0.257
 5.905 	-0.324 	-0.020
 6.224 	-0.235 	-0.038
 6.685 	-0.551 	0.036
 6.750 	-0.147 	-0.035
 6.603 	0.225 	0.013
 6.529 	0.555 	-0.214
 6.879 	1.160 	-0.122
 6.785 	0.333 	-0.101
 6.906 	-0.175 	-0.087
 6.629 	0.266 	0.227
 6.646 	-0.363 	0.122
 6.519 	-0.644 	-0.218
 6.669 	-0.758 	-0.123
 6.304 	-0.578 	-0.005
 6.154 	0.304 	-0.410
 5.219 	-0.259 	-0.126
 5.308 	-0.516 	0.301
 5.392 	-0.345 	0.268
 5.861 	-0.348 	0.317
 6.126 	-0.103 	0.053
 6.177 	0.189 	0.037
 6.248 	0.529 	0.056
 6.228 	0.049 	-0.131
 6.673 	-0.648 	-0.585
 7.169 	0.112 	-0.418
 6.963 	0.017 	-0.384
 6.334 	-0.154 	-0.208
 6.002 	-0.509 	0.101
 6.157 	-0.281 	0.290
 6.314 	-0.364 	-0.329
 5.251 	-0.323 	0.281
 5.798 	-0.555 	0.381
 6.089 	-0.886 	0.074
 5.901 	-0.663 	0.240
 5.863 	-0.395 	0.107
 6.041 	-0.437 	0.829
 6.438 	-0.720 	0.586
 6.406 	-0.077 	0.240
 6.435 	-0.392 	-0.245
 6.842 	-0.720 	-0.782
 6.033 	0.102 	-0.391
 6.027 	0.229 	0.166
 5.424 	-0.006 	0.340
 4.622 	-0.849 	0.065
 4.876 	-0.289 	-0.122
 5.191 	-0.405 	-0.183
 6.370 	-0.707 	-0.335
 6.737 	-0.835 	-0.209
 6.743 	-0.416 	-0.078
 6.428 	-0.849 	0.156
 6.740 	-0.010 	-0.193
 5.765 	-0.370 	-0.044
 6.222 	-0.487 	0.514
 6.107 	-0.311 	0.251
 6.532 	-0.449 	-0.371
 6.342 	0.112 	-0.564
 5.901 	0.089 	0.425
 4.829 	0.094 	0.535
 4.791 	-0.012 	0.335
 5.408 	-0.079 	-0.515
 5.061 	-0.898 	0.431
 5.100 	-1.222 	0.583
 5.999 	-0.864 	-0.255
 6.354 	-0.848 	-0.354
 6.697 	-0.477 	-0.369
 6.669 	-0.083 	-0.177
 6.006 	0.473 	-0.094
 5.873 	-0.028 	0.367
 6.000 	0.035 	0.176
 5.882 	-0.318 	-0.215
 5.957 	-0.503 	0.140
 5.805 	0.396 	0.270
 5.051 	0.216 	0.756
 5.198 	0.219 	0.479
 5.370 	0.461 	0.011
 5.104 	0.221 	-0.532
 5.231 	-0.335 	-0.293
 5.213 	-1.085 	0.008
 5.660 	-0.892 	-0.157
 5.686 	-0.941 	-0.483
 5.837 	-1.039 	-0.307
 6.234 	-0.211 	-0.370
 6.423 	0.328 	-0.034
 6.439 	0.254 	0.181
 5.999 	0.312 	0.083
 6.111 	-0.339 	-0.144
 5.837 	0.233 	0.472
 5.520 	0.945 	0.148
 4.551 	-0.448 	0.071
 4.569 	0.408 	0.922
 5.457 	0.303 	0.174
 5.562 	-0.311 	-0.227
 5.909 	-0.274 	-0.389
 6.434 	-0.453 	-0.444
 5.304 	-1.043 	-0.192
 5.696 	-0.743 	-0.092
 5.218 	-0.982 	-0.342
 5.568 	-0.485 	-0.227
 5.729 	-0.017 	-0.462
 6.040 	-0.009 	-0.244
 6.597 	0.160 	-0.308
 6.739 	0.235 	-0.219
 6.206 	0.561 	0.075
 6.284 	0.808 	0.270
 5.924 	0.178 	0.039
 4.860 	0.630 	1.055
 5.950 	0.136 	0.811
 6.428 	0.010 	-0.182
 5.965 	0.021 	0.144
 4.764 	0.420 	0.285
 4.648 	-1.109 	0.096
 4.905 	-0.695 	0.023
 4.990 	-0.611 	-0.559
 5.114 	-0.544 	-0.139
 4.850 	-0.560 	-0.288
 5.038 	-0.305 	-0.618
 5.592 	0.016 	-0.777
 5.977 	0.447 	-0.586
 6.475 	0.715 	-0.429
 6.613 	0.614 	-0.105
 6.727 	0.540 	-0.034
 6.866 	0.199 	0.307
 6.909 	-0.145 	0.176
 6.307 	0.033 	-0.088
 6.037 	0.319 	-0.117
 6.144 	0.798 	-0.184
 6.206 	0.297 	-0.356
 6.147 	0.028 	-0.087
 5.951 	-0.261 	0.203
 5.959 	0.029 	0.121
 5.313 	-0.072 	-0.191
 5.939 	0.176 	0.449
 5.574 	0.534 	0.805
 5.727 	1.690 	1.062
 5.767 	0.792 	0.868
 5.777 	0.799 	0.736
 5.941 	1.690 	0.001
 6.157 	1.501 	0.039
 5.873 	0.633 	-0.222
 5.671 	0.589 	-0.424
 5.653 	0.567 	-0.284
 5.621 	0.269 	0.265
 5.884 	-0.452 	0.013
 6.654 	-0.434 	-0.396
 6.555 	0.145 	-0.299
 5.768 	0.194 	-0.140
 5.243 	0.293 	-0.113
 4.869 	0.094 	0.241
 5.664 	0.597 	0.881
 6.172 	1.075 	0.918
 6.317 	1.061 	0.690
 5.342 	0.564 	0.412
 5.401 	1.442 	0.364
 5.525 	1.096 	-0.043
 5.278 	0.248 	0.193
 5.659 	0.548 	0.359
 5.825 	0.654 	0.518
 5.478 	0.969 	0.691
 6.903 	-0.325 	-0.797
 6.454 	-0.294 	-0.065
 6.246 	0.878 	-0.156
 5.307 	0.377 	0.159
 5.242 	0.489 	0.256
 5.509 	0.117 	0.300
 5.572 	0.126 	0.238
 5.647 	0.522 	0.200
 5.860 	0.765 	-0.096
 5.531 	0.581 	-0.061
 5.173 	1.070 	-0.017
 5.070 	0.979 	0.601
 5.263 	-0.053 	0.657
 5.138 	-0.200 	0.603
 5.155 	0.071 	0.730
 5.445 	0.346 	0.664
 6.695 	0.022 	-0.663
 6.341 	0.407 	-0.105
 5.931 	0.804 	0.140
 5.775 	0.252 	-0.090
 6.211 	0.364 	-0.494
 6.652 	0.545 	-0.728
 6.356 	-0.268 	0.438
 6.390 	0.079 	-0.247
 5.644 	0.591 	0.016
 5.922 	0.634 	0.102
 5.809 	0.828 	-0.008
 5.844 	0.573 	0.231
 6.052 	0.261 	0.053
 6.416 	-0.139 	0.530
 6.106 	-0.259 	0.227
 6.028 	-0.123 	0.336
 7.317 	-0.134 	-0.596
 6.660 	0.406 	-0.219
 6.655 	0.592 	0.131
 6.524 	0.228 	0.316
 6.557 	-0.036 	0.198
 6.574 	-0.040 	-0.109
 6.622 	0.163 	-0.032
 7.108 	-0.009 	0.089
 6.990 	0.445 	-0.250
 6.840 	0.936 	-0.257
 7.026 	0.508 	-0.349
 6.651 	0.527 	-0.533
 6.462 	0.452 	-0.245
 6.836 	-0.001 	0.315
 7.189 	-0.081 	0.221
 7.085 	-0.755 	0.149
 7.023 	-0.061 	-0.533
 6.690 	0.373 	-0.551
 6.730 	0.443 	0.161
 6.730 	0.130 	0.478
 6.960 	-0.239 	0.157
 7.279 	-0.176 	-0.227
 7.631 	0.221 	-0.244
 7.030 	0.071 	-0.128
 6.750 	0.223 	0.099
 6.647 	0.346 	-0.383
 6.979 	-0.015 	-0.599
 7.063 	0.600 	-0.519
 7.187 	0.434 	-0.129
 7.144 	-0.195 	-0.151
 7.563 	0.048 	-0.034
 7.324 	-0.368 	0.085
 6.158 	0.296 	0.027
 6.298 	0.759 	0.135
 6.827 	0.658 	0.100
 6.984 	0.171 	0.002
 7.106 	-0.102 	-0.340
 7.379 	0.025 	-0.067
 7.159 	0.235 	-0.240
 6.612 	0.598 	0.012
 6.584 	0.544 	-0.068
 6.534 	-0.203 	-0.090
 6.591 	-0.669 	-0.073
 6.691 	-0.314 	-0.034
 6.951 	-0.268 	-0.000
 7.196 	-0.226 	-0.017
 7.423 	-0.316 	0.074
 7.216 	-0.377 	-0.219
 6.467 	0.598 	-0.331
 6.473 	0.683 	-0.329
 6.819 	0.414 	-0.199
 7.037 	0.161 	-0.310
 6.806 	-0.023 	-0.102
 6.465 	0.311 	0.324
 6.247 	0.558 	0.164
 6.443 	0.547 	-0.088
 6.961 	0.131 	-0.100
 6.930 	-0.413 	-0.377
 6.849 	-0.621 	-0.074
 6.904 	-0.624 	-0.239
 7.083 	-0.434 	-0.354
 7.171 	-0.626 	-0.420
 7.522 	-0.588 	-0.329
 7.247 	-0.745 	-0.367
 6.136 	0.214 	-0.512
 6.352 	0.564 	-0.262
 6.594 	0.342 	0.017
 6.581 	0.355 	-0.002
 6.723 	0.327 	0.164
 6.902 	0.157 	-0.025
 6.956 	0.183 	0.255
 6.866 	0.151 	0.030
 6.726 	-0.088 	0.016
 6.891 	-0.163 	-0.468
 6.926 	-0.299 	-0.496
 7.009 	-0.322 	-0.031
 7.459 	-0.282 	-0.179
 7.429 	-0.404 	-0.523
 7.856 	-0.466 	-0.219
 7.233 	-0.446 	-0.243
 6.161 	0.563 	0.225
 6.142 	0.316 	0.496
 6.169 	0.144 	0.419
 6.018 	-0.213 	0.507
 5.934 	-0.347 	0.599
 6.134 	-0.051 	0.415
 6.251 	-0.002 	0.210
 6.346 	0.051 	0.090
 6.516 	-0.121 	-0.054
 6.771 	-0.472 	-0.329
 7.183 	-0.503 	-0.645
 7.405 	-0.215 	-0.495
 7.461 	-0.039 	-0.296
 7.024 	-0.052 	0.144
 6.477 	-0.334 	0.028
 6.434 	-0.372 	-0.185
 5.351 	0.425 	0.617
 5.393 	0.176 	0.273
 5.967 	-0.292 	-0.040
 6.727 	-0.584 	-0.106
 6.764 	-0.620 	-0.119
 5.883 	-0.346 	0.356
 6.005 	-0.110 	0.638
 6.416 	-0.090 	0.204
 6.939 	-0.537 	-0.185
 7.017 	-0.860 	-0.763
 6.225 	-0.395 	-0.119
 6.036 	0.060 	0.615
 5.519 	0.096 	0.563
 5.511 	-0.230 	0.295
 5.777 	-0.439 	0.006
 6.093 	-0.897 	-0.143
 6.256 	-0.103 	0.066
 6.589 	-0.627 	0.074
 6.698 	-1.028 	-0.227
 6.916 	-0.865 	-0.197
 7.182 	-0.466 	-0.512
 7.220 	-0.201 	0.053
 7.038 	0.051 	0.085
 7.407 	-0.183 	0.212
 6.887 	-0.640 	-0.426
 6.077 	0.140 	-0.368
 5.631 	0.021 	0.854
 5.306 	-0.004 	0.589
 5.587 	0.042 	0.124
 5.818 	-0.081 	-0.096
 4.661 	0.052 	0.073
 4.210 	-0.520 	1.076
 6.605 	-0.816 	0.008
 6.652 	-0.947 	-0.257
 6.884 	-1.034 	-0.358
 6.722 	-0.769 	-0.160
 6.706 	-0.228 	0.159
 6.935 	0.093 	0.141
 7.041 	-0.072 	0.246
 6.273 	-0.138 	0.112
 5.744 	-0.117 	-0.376
 5.664 	0.487 	0.776
 5.635 	0.175 	0.551
 6.307 	-0.271 	0.019
 6.859 	-0.043 	-0.267
 6.627 	-0.166 	-0.380
 6.350 	-0.000 	-0.190
 6.268 	0.013 	-0.568
 6.902 	-0.880 	-0.144
 6.971 	-0.603 	-0.415
 6.735 	-0.958 	-0.145
 6.119 	-0.732 	-0.288
 5.978 	-0.381 	0.029
 7.123 	-0.027 	0.235
 6.727 	0.106 	0.490
 6.148 	0.135 	0.060
 5.977 	-0.431 	-0.354
 6.152 	0.905 	0.702
 6.300 	0.351 	-0.131
 6.107 	-0.105 	0.699
 6.729 	0.051 	0.123
 6.530 	-0.220 	-0.100
 5.982 	-0.623 	-0.313
 6.264 	-0.578 	-0.416
 6.389 	-0.507 	-0.099
 6.248 	-0.351 	-0.159
 6.310 	-1.015 	0.068
 6.113 	-0.616 	-0.059
 5.891 	-0.112 	-0.516
 5.565 	-0.258 	-0.484
 5.949 	0.273 	-0.141
 6.333 	-0.099 	-0.388
 6.548 	0.110 	-0.379
 6.611 	0.633 	0.109
 6.974 	0.433 	-0.011
 7.036 	0.006 	0.413
 7.258 	0.090 	0.277
 6.628 	-0.210 	0.337
 6.209 	-0.642 	0.131
 6.264 	-0.709 	-0.097
 6.600 	-0.238 	0.003
 6.752 	-0.346 	-0.384
 7.129 	-0.176 	-0.372
 6.654 	-1.131 	-0.102
 5.897 	-0.288 	0.070
 6.064 	-0.104 	-0.610
 6.191 	-0.177 	-0.683
 6.527 	-0.392 	-0.604
 6.080 	-0.655 	-0.559
 6.780 	0.081 	-0.215
 6.837 	0.621 	0.338
 6.360 	-0.122 	0.543
 6.108 	-0.279 	0.358
 6.175 	-0.443 	0.118
 6.587 	-0.480 	0.243
 6.307 	-0.623 	-0.254
 6.339 	-0.384 	0.032
 6.806 	-0.010 	-0.020
 6.826 	0.288 	0.374
 7.201 	0.671 	-0.211
 6.108 	0.117 	0.118
 5.613 	-0.240 	-0.236
 6.066 	-0.115 	0.267
 6.239 	0.776 	0.410
 6.327 	1.020 	0.782
 6.415 	0.995 	0.997
 6.502 	1.428 	0.331
 6.415 	1.524 	0.535
 6.579 	1.214 	0.067
 6.276 	0.782 	-0.178
 6.074 	0.464 	-0.029
 6.105 	0.095 	-0.026
 6.990 	0.019 	-0.448
 6.661 	-0.393 	0.001
 6.770 	-0.038 	-0.187
 6.633 	0.438 	0.204
 5.834 	0.644 	0.110
 5.613 	0.038 	0.140
 5.516 	0.314 	0.593
 5.623 	0.957 	1.150
 6.110 	0.607 	1.066
 5.506 	0.629 	0.689
 5.745 	1.425 	0.576
 5.743 	1.457 	0.268
 5.589 	0.710 	0.313
 5.765 	0.265 	0.618
 5.952 	0.089 	1.005
 6.115 	-0.352 	0.333
 6.989 	0.281 	-0.557
 6.903 	-0.119 	0.094
 6.517 	0.146 	-0.173
 6.865 	0.978 	0.273
 6.169 	0.682 	0.001
 5.344 	0.923 	-0.138
 5.525 	0.180 	0.291
 5.774 	0.284 	0.402
 5.774 	0.170 	0.324
 5.866 	0.558 	0.352
 5.449 	0.983 	0.190
 5.030 	1.355 	0.781
 5.154 	0.691 	0.453
 5.358 	-0.103 	0.778
 5.652 	-0.288 	1.100
 6.058 	-0.360 	1.146
 7.152 	0.304 	-0.502
 6.550 	0.323 	0.395
 6.134 	0.374 	0.066
 6.319 	0.826 	0.158
 6.607 	0.720 	-0.123
 6.329 	0.808 	-0.172
 6.486 	0.463 	0.118
 6.644 	0.254 	-0.007
 6.420 	0.189 	0.131
 5.928 	0.709 	0.144
 5.667 	1.224 	0.361
 6.208 	0.788 	0.415
 5.797 	0.869 	-0.193
 5.712 	0.087 	0.051
 6.098 	-0.424 	0.323
 5.958 	-0.447 	0.695
 6.911 	0.437 	-0.222
 6.555 	0.700 	0.319
 6.554 	0.554 	0.425
 6.501 	0.402 	0.392
 6.570 	0.310 	0.367
 6.761 	0.333 	0.149
 6.912 	0.238 	-0.022
 6.796 	0.039 	0.130
 7.169 	0.483 	0.012
 6.834 	0.805 	0.006
 6.670 	0.736 	-0.065
 6.411 	0.950 	-0.144
 6.116 	0.983 	-0.471
 6.467 	0.089 	-0.192
 6.616 	-0.388 	-0.075
 6.582 	-0.599 	0.407
 7.353 	0.487 	-0.526
 7.090 	0.404 	-0.170
 7.060 	0.566 	0.204
 7.265 	0.338 	0.425
 7.270 	0.210 	-0.148
 7.295 	0.178 	-0.342
 7.383 	0.289 	-0.094
 7.119 	0.125 	-0.030
 6.869 	0.263 	0.241
 7.188 	0.782 	-0.050
 7.068 	0.946 	-0.027
 6.605 	1.091 	-0.324
 6.784 	0.798 	-0.247
 6.949 	0.157 	-0.146
 6.948 	-0.191 	-0.272
 7.133 	-0.499 	0.048
 6.703 	0.012 	-0.100
 6.801 	0.087 	-0.316
 7.139 	0.216 	-0.246
 7.473 	0.305 	-0.350
 7.387 	0.167 	-0.461
 7.393 	0.039 	-0.267
 7.294 	0.285 	-0.148
 7.039 	0.409 	0.053
 6.872 	0.410 	0.050
 6.785 	0.782 	-0.115
 6.747 	0.958 	-0.160
 6.837 	1.051 	-0.047
 7.084 	0.697 	-0.256
 7.235 	0.276 	-0.385
 7.205 	0.102 	-0.116
 7.291 	-0.172 	-0.098
 6.488 	-0.297 	-0.290
 6.573 	-0.015 	-0.213
 6.650 	0.101 	-0.323
 6.906 	0.237 	-0.318
 6.722 	0.099 	-0.081
 6.472 	0.218 	0.342
 6.474 	0.040 	0.316
 6.729 	0.364 	-0.001
 6.783 	0.429 	0.071
 6.590 	0.837 	-0.032
 6.559 	0.938 	-0.217
 6.678 	0.780 	-0.218
 7.089 	0.131 	-0.274
 7.329 	-0.209 	-0.068
 7.495 	-0.126 	0.009
 7.239 	-0.258 	0.099
 6.091 	-0.106 	-0.575
 6.170 	0.047 	-0.156
 6.260 	0.359 	-0.044
 6.126 	0.270 	-0.008
 6.368 	0.346 	0.144
 6.566 	-0.307 	0.431
 6.920 	-0.364 	0.493
 6.911 	0.093 	0.390
 6.819 	0.145 	0.109
 6.807 	0.145 	-0.025
 6.867 	0.284 	0.013
 7.162 	0.165 	0.043
 7.471 	-0.272 	-0.188
 7.466 	-0.666 	-0.163
 7.291 	-0.620 	-0.311
 7.429 	-0.579 	0.013
 5.245 	-0.049 	0.498
 5.808 	0.186 	0.703
 5.924 	0.177 	0.831
 6.108 	0.143 	0.906
 6.062 	-0.437 	1.021
 6.399 	-0.823 	0.823
 6.764 	-0.689 	0.420
 6.930 	-0.343 	0.146
 7.001 	-0.130 	-0.030
 7.131 	-0.564 	-0.043
 7.508 	-0.605 	-0.167
 7.581 	-0.592 	-0.133
 7.188 	-0.454 	-0.144
 6.971 	-0.501 	-0.208
 7.130 	-0.594 	-0.205
 7.094 	-0.644 	-0.111
 5.332 	-0.128 	0.125
 5.951 	-0.225 	0.138
 6.558 	-0.293 	0.187
 6.994 	-0.389 	-0.020
 6.928 	-0.482 	-0.022
 6.923 	-0.561 	0.220
 7.087 	-0.766 	0.182
 7.267 	-0.579 	-0.086
 7.308 	-0.665 	-0.261
 7.292 	-0.681 	-0.087
 6.749 	-0.688 	0.240
 6.279 	-0.348 	0.488
 6.344 	-0.318 	0.198
 6.654 	-0.564 	0.053
 7.027 	-0.390 	-0.077
 7.151 	-0.257 	-0.136
 6.622 	-0.616 	0.552
 7.001 	-1.029 	0.149
 6.952 	-0.822 	-0.194
 6.763 	-0.376 	-0.348
 6.774 	-0.112 	-0.440
 6.872 	-0.219 	-0.305
 7.096 	-0.300 	-0.067
 7.220 	-0.463 	-0.053
 7.139 	-0.578 	0.148
 6.855 	-0.411 	-0.044
 6.035 	0.014 	0.566
 5.938 	0.043 	0.575
 6.790 	-0.569 	0.264
 6.657 	-0.857 	-0.019
 6.553 	-0.784 	0.152
 6.947 	-0.507 	0.088
 7.237 	-0.864 	0.116
 7.106 	-0.831 	-0.099
 6.832 	-0.959 	-0.174
 6.772 	-0.687 	-0.185
 6.672 	-0.652 	-0.072
 6.763 	-0.384 	-0.242
 6.963 	-0.242 	0.095
 6.971 	-0.033 	0.294
 6.595 	-0.349 	0.322
 6.145 	-0.093 	0.377
 6.620 	0.062 	0.169
 6.963 	-0.445 	-0.033
 6.561 	-0.855 	-0.040
 6.242 	-0.769 	-0.085
 6.348 	-0.820 	-0.125
 6.586 	-0.663 	0.176
 7.026 	-1.354 	-0.178
 6.826 	-0.731 	-0.403
 6.526 	-0.871 	0.156
 6.503 	-0.828 	-0.032
 6.284 	-0.718 	0.083
 6.267 	-0.421 	-0.116
 6.520 	-0.251 	0.493
 6.773 	0.015 	0.193
 6.491 	-0.043 	0.158
 6.768 	-0.137 	0.479
 6.980 	-0.455 	-0.015
 6.851 	-0.525 	-0.087
 6.568 	-0.466 	0.161
 6.319 	-0.906 	0.161
 6.637 	-1.133 	-0.103
 6.767 	-1.221 	-0.251
 7.094 	-1.243 	-0.313
 6.487 	-0.507 	-0.202
 6.217 	-0.671 	0.232
 6.551 	-1.279 	0.139
 6.891 	-0.608 	-0.219
 6.836 	-0.700 	-0.547
 6.689 	-0.488 	-0.424
 6.304 	-0.150 	-0.265
 6.346 	-0.262 	-0.071
 6.627 	-0.713 	-0.154
 6.422 	-0.558 	0.070
 6.546 	-0.531 	0.588
 6.605 	-0.223 	0.792
 6.588 	-1.053 	0.637
 6.830 	-1.461 	0.137
 7.234 	-1.208 	-0.374
 6.852 	-1.114 	-0.041
 6.818 	-0.997 	-0.382
 7.278 	-0.743 	-0.038
 7.463 	-0.881 	-0.279
 7.317 	-0.823 	0.279
 7.437 	-0.632 	-0.546
 7.382 	-0.630 	-0.418
 7.508 	-0.241 	-0.511
 6.844 	-0.276 	-0.106
 6.063 	-0.986 	-0.025
 5.832 	-0.823 	0.432
 6.068 	-0.517 	0.551
 6.510 	-0.673 	0.527
 7.334 	-1.073 	-0.117
 7.493 	-1.184 	-0.140
 7.633 	-1.206 	-0.302
 6.722 	-0.257 	0.019
 6.796 	-0.014 	0.244
 7.193 	0.205 	0.260
 7.353 	0.750 	0.374
 7.349 	0.734 	0.494
 6.744 	0.279 	-0.001
 6.673 	-0.061 	0.019
 6.620 	0.091 	0.132
 6.273 	0.865 	1.053
 6.477 	1.170 	0.972
 6.716 	1.304 	0.414
 6.981 	1.407 	0.188
 6.927 	1.081 	0.086
 6.486 	0.917 	0.410
 6.530 	0.586 	0.427
 6.438 	0.326 	0.229
 7.705 	-0.515 	-0.462
 7.272 	0.218 	0.007
 7.259 	0.114 	0.134
 6.543 	0.409 	0.682
 6.936 	0.687 	0.342
 5.520 	0.519 	0.130
 5.445 	-0.029 	0.381
 5.635 	0.362 	0.865
 6.112 	0.716 	1.104
 6.098 	0.906 	0.805
 5.594 	1.122 	0.748
 5.614 	1.292 	0.781
 5.712 	1.042 	0.714
 5.582 	0.872 	0.680
 5.732 	0.460 	0.790
 5.883 	0.260 	0.493
 7.659 	-0.200 	-0.837
 7.585 	0.441 	-0.060
 7.098 	-0.216 	-0.006
 6.979 	0.643 	0.371
 6.927 	0.297 	0.181
 6.203 	0.868 	0.203
 5.177 	0.710 	0.238
 5.148 	0.229 	0.508
 5.375 	0.137 	0.667
 5.931 	0.686 	0.639
 5.824 	0.960 	0.655
 5.588 	1.225 	0.825
 5.472 	1.438 	0.587
 5.377 	1.093 	0.544
 5.286 	0.689 	0.451
 5.992 	0.230 	0.514
 7.422 	0.208 	-0.543
 7.419 	0.346 	0.255
 7.291 	0.441 	0.317
 6.709 	0.226 	0.241
 6.445 	0.231 	0.379
 6.484 	0.854 	0.181
 6.604 	0.812 	-0.012
 6.801 	0.524 	-0.215
 6.522 	0.315 	0.180
 5.934 	0.602 	0.403
 5.863 	0.806 	0.352
 5.897 	1.507 	0.400
 5.827 	1.008 	0.212
 5.576 	1.109 	-0.194
 5.739 	0.674 	0.129
 6.431 	-0.005 	0.336
 7.212 	0.457 	-0.096
 7.136 	0.480 	0.285
 6.799 	0.603 	0.470
 6.503 	0.646 	0.529
 6.639 	0.263 	0.272
 6.912 	0.257 	0.281
 6.939 	0.272 	0.274
 6.834 	0.225 	0.198