# vtk DataFile Version 3.0
HighT1
ASCII
DATASET STRUCTURED_POINTS
DIMENSIONS 16 16 19
ORIGIN 929.001000000000 929.001000000000 5.001000000000
SPACING 10.000000000000 10.000000000000 10.000000000000
POINT_DATA 4864
FIELD attributes 1
U 3 4864 float
3.311 	-0.722 	0.077
 3.506 	-0.626 	0.131
 3.872 	-0.471 	0.014
 3.931 	-0.166 	-0.027
 3.627 	0.125 	-0.085
 3.651 	-0.014 	-0.086
 3.502 	-0.126 	0.196
 3.278 	-0.011 	0.229
 3.294 	-0.172 	0.159
 3.515 	0.142 	-0.171
 4.169 	0.204 	-0.365
 4.891 	0.242 	-0.524
 5.170 	0.041 	-0.282
 4.808 	0.068 	0.024
 4.306 	-0.084 	-0.015
 4.214 	-0.230 	-0.090
 2.839 	-0.345 	-0.288
 2.719 	-0.338 	-0.121
 2.954 	-0.444 	-0.094
 3.343 	-0.411 	0.010
 3.655 	-0.268 	0.074
 3.717 	-0.097 	0.070
 3.795 	-0.056 	0.006
 3.902 	-0.233 	-0.024
 3.974 	-0.305 	0.035
 4.250 	-0.006 	0.063
 4.783 	0.417 	-0.149
 5.146 	0.787 	-0.419
 5.251 	0.696 	-0.213
 4.709 	0.512 	-0.032
 4.452 	0.054 	-0.052
 4.985 	-0.328 	-0.290
 3.304 	-0.418 	0.268
 3.231 	-0.504 	0.293
 3.451 	-0.657 	0.088
 3.833 	-0.875 	0.178
 3.990 	-0.816 	0.149
 3.975 	-0.541 	0.126
 3.633 	-0.180 	0.082
 3.110 	-0.006 	0.220
 2.786 	-0.448 	0.149
 3.229 	-0.974 	-0.080
 3.961 	-0.311 	0.220
 3.985 	0.684 	0.253
 4.122 	1.208 	0.036
 4.520 	0.848 	-0.185
 4.978 	0.030 	-0.433
 5.146 	0.187 	-0.312
 5.493 	-0.661 	-0.148
 5.054 	-0.680 	-0.034
 4.625 	-0.611 	-0.068
 4.723 	-0.902 	-0.315
 4.510 	-1.287 	0.190
 4.396 	-0.911 	0.186
 4.328 	-0.375 	0.139
 4.126 	-0.162 	0.172
 4.470 	-0.341 	-0.085
 4.662 	-0.572 	-0.195
 5.026 	-0.290 	-0.337
 4.210 	0.735 	0.041
 3.885 	0.981 	-0.065
 3.973 	0.695 	-0.192
 3.529 	0.745 	0.176
 3.248 	0.749 	0.133
 4.746 	0.033 	-0.136
 4.460 	-0.132 	-0.052
 4.280 	-0.428 	-0.122
 4.317 	-0.792 	-0.054
 3.992 	-1.216 	0.196
 3.610 	-1.381 	0.360
 3.810 	-1.528 	0.277
 4.232 	-1.496 	0.165
 5.338 	-0.783 	-0.056
 5.854 	-0.715 	-0.453
 5.231 	-0.042 	-0.327
 4.239 	0.919 	0.248
 3.456 	1.291 	0.150
 3.496 	1.096 	0.026
 4.157 	0.595 	0.074
 4.198 	0.551 	0.145
 3.926 	0.213 	-0.084
 4.118 	0.008 	-0.104
 4.117 	-0.277 	-0.007
 4.229 	-0.953 	0.020
 3.997 	-0.972 	0.057
 3.320 	-1.276 	0.036
 3.034 	-1.741 	0.214
 3.544 	-1.947 	-0.151
 4.233 	-1.869 	0.016
 4.808 	0.338 	-0.072
 4.154 	1.206 	0.121
 3.569 	1.315 	0.244
 3.496 	0.772 	0.139
 4.285 	0.006 	-0.106
 4.763 	0.061 	0.238
 4.033 	0.378 	0.467
 4.261 	-0.089 	-0.006
 4.576 	0.187 	-0.159
 4.938 	0.056 	-0.227
 4.540 	-0.422 	-0.194
 3.190 	-0.193 	0.216
 3.366 	-0.878 	0.017
 4.044 	-1.835 	-0.372
 4.536 	-1.569 	-0.258
 4.606 	-0.538 	-0.647
 4.110 	0.154 	0.084
 4.270 	1.245 	0.198
 4.230 	0.893 	0.230
 3.646 	0.762 	-0.066
 3.205 	0.406 	-0.112
 2.914 	-0.101 	0.259
 2.527 	0.045 	0.317
 4.720 	-0.723 	-0.080
 5.245 	-0.150 	-0.235
 5.639 	0.535 	-0.245
 4.832 	0.960 	-0.228
 4.502 	0.006 	0.016
 5.022 	-0.958 	-0.422
 5.225 	-1.193 	-0.852
 4.349 	-0.801 	0.206
 3.455 	-0.234 	0.176
 4.069 	0.478 	-0.228
 4.231 	0.857 	-0.071
 3.747 	0.533 	0.131
 2.985 	1.218 	0.220
 2.682 	0.761 	0.269
 2.477 	-0.434 	0.209
 2.346 	-0.541 	0.223
 4.331 	-0.446 	-0.103
 4.582 	-0.098 	0.026
 4.815 	0.775 	0.149
 4.979 	1.229 	-0.160
 5.372 	0.519 	-0.487
 5.230 	-0.004 	-0.519
 5.088 	0.426 	-0.257
 4.893 	-0.351 	0.041
 4.706 	-0.584 	0.389
 2.979 	-0.065 	0.142
 2.828 	0.703 	0.179
 3.003 	1.295 	0.214
 2.730 	1.138 	0.238
 2.745 	0.254 	0.172
 2.358 	-0.688 	0.129
 1.903 	-1.145 	0.101
 4.341 	-0.390 	0.063
 4.344 	-0.184 	0.069
 4.854 	0.198 	0.020
 5.051 	0.475 	0.093
 4.860 	0.714 	0.111
 4.982 	0.620 	-0.380
 5.433 	0.756 	-0.604
 5.602 	0.620 	-0.106
 4.518 	0.057 	0.207
 3.171 	0.312 	0.214
 2.685 	0.395 	0.172
 2.691 	0.717 	0.118
 2.951 	0.348 	0.085
 3.201 	0.134 	-0.007
 3.136 	-0.071 	-0.072
 3.219 	-0.564 	-0.385
 4.825 	-0.080 	-0.133
 4.804 	-0.475 	-0.011
 4.273 	-0.099 	0.073
 4.413 	0.543 	-0.110
 4.878 	0.890 	-0.137
 5.426 	0.829 	-0.434
 5.526 	1.091 	-0.387
 5.752 	1.369 	-0.246
 5.401 	1.201 	0.006
 4.970 	0.816 	0.370
 3.480 	0.607 	0.324
 2.702 	0.136 	0.439
 2.980 	-0.463 	-0.088
 3.172 	-0.432 	-0.300
 3.105 	-0.034 	-0.056
 2.968 	0.241 	-0.118
 5.059 	0.103 	-0.497
 5.081 	0.374 	-0.078
 4.494 	0.429 	-0.012
 4.060 	0.571 	-0.142
 4.367 	0.968 	-0.025
 4.985 	1.254 	0.089
 5.283 	1.704 	0.579
 5.014 	1.865 	0.558
 5.368 	1.475 	0.361
 5.243 	1.045 	0.279
 4.202 	0.382 	0.401
 4.029 	-0.276 	-0.089
 4.181 	-0.283 	-0.473
 3.837 	0.107 	-0.405
 3.622 	0.090 	-0.081
 3.860 	-0.013 	-0.130
 4.068 	0.285 	0.022
 4.484 	0.702 	0.181
 4.150 	0.298 	0.145
 3.631 	0.774 	0.198
 3.250 	1.030 	0.270
 2.846 	1.029 	0.241
 2.960 	0.726 	0.127
 3.626 	0.004 	0.020
 3.940 	-0.177 	0.232
 4.180 	0.223 	0.220
 4.405 	0.374 	-0.096
 4.637 	0.733 	-0.568
 4.204 	0.860 	-0.581
 3.687 	0.669 	-0.268
 3.269 	0.460 	-0.125
 3.187 	0.177 	0.007
 3.067 	-0.792 	0.027
 3.407 	0.120 	0.259
 2.882 	0.446 	0.398
 2.896 	0.163 	0.296
 3.512 	0.460 	0.241
 3.786 	0.849 	0.154
 4.201 	0.657 	-0.274
 4.122 	0.364 	-0.229
 3.678 	-0.122 	0.029
 3.290 	0.003 	0.213
 3.089 	0.471 	0.270
 2.982 	1.066 	0.348
 2.994 	1.663 	0.176
 3.154 	1.546 	-0.046
 3.239 	1.010 	-0.091
 3.350 	0.411 	-0.060
 3.126 	-0.935 	0.000
 3.705 	-0.017 	-0.141
 4.032 	0.529 	-0.099
 3.875 	-0.150 	-0.340
 3.923 	-0.187 	-0.049
 4.252 	0.188 	0.028
 4.368 	0.675 	0.127
 3.930 	0.922 	0.167
 3.845 	0.376 	0.348
 3.352 	-0.036 	0.214
 3.110 	0.312 	0.227
 3.024 	0.707 	0.264
 2.981 	0.964 	0.265
 3.271 	0.957 	0.127
 3.863 	0.728 	-0.064
 4.792 	0.434 	-0.378
 5.221 	-0.404 	-0.477
 4.457 	-0.465 	0.235
 3.017 	0.663 	0.349
 2.900 	0.809 	-0.333
 2.765 	0.115 	0.094
 2.123 	-0.092 	0.245
 2.263 	0.136 	0.048
 3.207 	0.338 	-0.045
 3.661 	0.192 	0.183
 3.138 	-0.150 	0.206
 2.550 	-0.329 	0.277
 2.511 	-0.047 	0.092
 3.019 	0.213 	-0.206
 3.575 	0.275 	-0.431
 3.982 	0.448 	-0.656
 3.999 	0.736 	-0.399
 3.717 	0.794 	-0.166
 3.953 	0.540 	-0.286
 4.349 	0.360 	-0.221
 4.899 	-0.256 	-0.165
 5.301 	-0.575 	0.053
 5.054 	-0.076 	0.273
 4.687 	0.175 	0.438
 4.577 	0.143 	0.312
 4.889 	-0.389 	-0.253
 5.087 	-0.323 	-0.698
 5.321 	-0.313 	-0.544
 5.496 	0.044 	-0.338
 5.346 	0.419 	-0.008
 5.118 	0.584 	-0.145
 5.597 	0.583 	-0.140
 5.940 	0.123 	0.063
 3.591 	0.714 	-0.099
 3.980 	0.032 	-0.003
 4.466 	-0.472 	0.055
 4.915 	-0.333 	0.193
 5.049 	-0.202 	0.339
 4.904 	-0.272 	0.203
 5.050 	0.151 	-0.028
 5.221 	0.406 	0.064
 4.858 	-0.119 	0.103
 4.894 	-0.537 	0.103
 5.226 	-1.050 	-0.227
 5.337 	-1.077 	-0.350
 5.980 	-0.035 	-0.433
 6.655 	0.484 	-0.230
 6.663 	0.116 	-0.133
 6.260 	-0.195 	-0.256
 4.655 	0.388 	0.634
 5.950 	-0.160 	0.164
 5.740 	-0.700 	0.178
 4.404 	-0.418 	0.712
 4.345 	-0.379 	0.788
 4.691 	-0.209 	0.564
 4.749 	0.099 	0.230
 4.932 	0.121 	0.035
 5.391 	-0.100 	-0.061
 5.620 	-0.648 	-0.206
 5.830 	-1.093 	0.008
 6.367 	-1.126 	-0.198
 5.737 	-0.880 	0.018
 5.722 	0.322 	-0.099
 5.584 	0.268 	-0.105
 5.653 	-0.348 	-0.442
 6.452 	-0.148 	0.010
 6.818 	-0.435 	-0.045
 7.109 	-0.916 	-0.248
 6.288 	0.102 	0.067
 5.489 	-0.261 	0.409
 5.059 	-0.493 	0.824
 5.211 	-0.381 	0.720
 5.657 	-0.482 	0.308
 6.067 	-0.739 	-0.192
 6.405 	-1.146 	-0.384
 6.315 	-1.248 	-0.061
 6.733 	-0.905 	-0.100
 7.250 	-0.669 	-0.741
 6.821 	0.274 	-0.064
 6.600 	0.106 	0.144
 6.014 	-0.198 	0.013
 6.485 	-0.578 	-0.337
 6.403 	-0.481 	-0.523
 6.488 	-0.481 	-0.566
 6.723 	-0.287 	-0.298
 6.545 	0.441 	0.428
 5.860 	0.590 	0.422
 5.535 	0.537 	0.177
 6.034 	-0.067 	-0.335
 6.729 	-0.421 	-0.507
 7.107 	-1.723 	-0.188
 6.403 	-0.797 	-0.101
 6.208 	-0.423 	0.174
 6.335 	-0.644 	-0.402
 6.643 	-0.468 	-0.132
 6.818 	0.197 	0.195
 7.150 	0.531 	-0.215
 6.603 	-0.646 	-0.236
 6.422 	-0.222 	-0.449
 6.674 	-0.170 	-0.497
 6.835 	-0.169 	-0.268
 7.028 	0.577 	-0.014
 7.185 	0.768 	-0.058
 7.114 	0.173 	-0.161
 6.893 	-0.301 	-0.462
 7.004 	-0.678 	-0.352
 6.169 	-2.365 	0.130
 5.357 	-0.636 	-0.057
 5.464 	0.177 	0.155
 5.920 	0.170 	-0.122
 5.683 	-0.171 	0.066
 5.720 	-0.474 	0.593
 7.134 	0.253 	0.057
 6.738 	-0.580 	-0.116
 6.401 	0.010 	-0.595
 6.510 	0.102 	-0.828
 6.735 	-0.036 	-0.654
 7.374 	0.047 	-0.264
 7.402 	0.650 	-0.217
 6.987 	0.047 	-0.480
 7.216 	-0.372 	-0.775
 7.590 	-0.579 	-1.189
 6.803 	-0.393 	0.308
 4.442 	-0.513 	1.101
 4.719 	-0.178 	0.526
 5.601 	0.353 	-0.163
 5.490 	0.863 	-0.098
 4.448 	-0.250 	0.874
 3.398 	0.119 	0.371
 6.208 	0.157 	-0.116
 6.406 	-0.136 	-0.559
 6.428 	-0.232 	-0.017
 6.689 	0.528 	-0.482
 7.269 	0.587 	-0.372
 6.117 	0.724 	-0.128
 5.426 	-0.274 	-0.348
 5.668 	-0.799 	0.431
 5.976 	-0.315 	0.450
 5.019 	0.063 	0.204
 4.635 	0.224 	0.617
 3.659 	0.255 	0.343
 2.784 	0.601 	0.716
 2.774 	0.807 	0.983
 3.085 	0.120 	0.694
 3.463 	0.192 	0.567
 5.970 	-0.350 	-0.149
 6.320 	0.018 	-0.297
 6.119 	0.130 	0.198
 5.555 	0.492 	-0.151
 5.872 	0.099 	-0.330
 6.071 	-0.084 	-0.216
 5.828 	-0.064 	-0.635
 5.071 	0.565 	0.714
 4.306 	-0.725 	1.252
 4.005 	-0.294 	0.729
 3.704 	-0.219 	0.165
 3.136 	0.427 	0.518
 2.937 	0.663 	0.624
 3.356 	0.349 	0.238
 3.765 	-0.139 	-0.001
 4.040 	-0.424 	0.037
 6.186 	-0.084 	-0.035
 6.412 	-0.132 	0.005
 6.924 	0.731 	-0.111
 7.191 	0.756 	-0.229
 7.253 	0.372 	-0.469
 6.435 	-0.304 	-0.470
 5.985 	0.377 	-0.536
 6.140 	0.961 	-0.296
 5.731 	0.445 	0.230
 5.649 	-0.026 	0.648
 4.841 	0.596 	0.087
 4.171 	0.733 	0.431
 4.458 	0.194 	0.402
 4.993 	-0.680 	0.208
 5.475 	-1.020 	-0.110
 5.580 	-0.639 	-0.326
 6.256 	0.054 	-0.040
 6.125 	0.100 	-0.026
 6.085 	0.113 	0.016
 6.481 	0.220 	-0.064
 6.789 	0.171 	-0.047
 6.276 	-0.029 	0.136
 6.140 	0.374 	-0.385
 6.048 	0.944 	-0.594
 5.763 	1.327 	0.074
 5.254 	0.705 	0.982
 5.396 	1.121 	0.454
 5.589 	1.219 	0.102
 5.606 	0.176 	-0.475
 6.166 	-0.864 	-0.833
 6.702 	-1.101 	-0.975
 6.854 	-0.675 	-0.420
 5.134 	-0.192 	-0.464
 5.203 	-0.116 	-0.333
 5.154 	0.112 	-0.045
 4.765 	-0.173 	-0.036
 4.400 	-0.558 	-0.159
 4.619 	-0.162 	0.001
 4.102 	-0.036 	0.244
 4.120 	0.520 	0.676
 4.788 	1.319 	0.830
 5.220 	1.479 	1.226
 6.074 	1.462 	0.013
 6.788 	1.002 	-0.822
 6.824 	0.090 	-0.983
 6.580 	-0.382 	-0.883
 6.655 	-0.389 	-0.686
 6.796 	0.144 	-0.414
 4.161 	-0.155 	-0.152
 4.095 	-0.042 	0.078
 4.032 	-0.265 	0.256
 3.806 	-0.426 	0.397
 3.790 	-0.474 	0.536
 3.992 	-0.928 	0.355
 4.329 	0.057 	0.361
 4.718 	0.564 	0.289
 5.033 	1.025 	0.333
 5.884 	1.452 	-0.222
 6.483 	1.027 	-0.635
 7.055 	0.622 	-0.915
 7.144 	0.511 	-1.105
 6.583 	0.581 	-1.043
 6.441 	0.686 	-0.648
 6.128 	0.758 	-0.256
 4.718 	-0.441 	-0.094
 4.422 	-0.547 	0.779
 3.806 	0.268 	0.686
 4.656 	0.040 	0.275
 5.574 	-0.749 	0.029
 5.478 	-1.229 	0.301
 5.022 	-1.040 	-0.152
 4.917 	-0.291 	-0.462
 5.531 	0.263 	-0.100
 6.171 	0.346 	0.012
 6.570 	0.462 	-0.042
 6.744 	0.463 	-0.177
 6.588 	0.379 	-0.288
 6.198 	0.987 	-0.229
 5.819 	1.404 	-0.351
 6.014 	1.064 	-0.294
 5.764 	0.344 	-0.357
 5.496 	0.179 	0.084
 5.832 	0.422 	0.155
 5.926 	0.259 	-0.097
 6.302 	-0.607 	-0.121
 5.401 	-0.501 	0.449
 4.223 	-0.980 	0.010
 3.931 	-0.733 	0.471
 4.447 	0.124 	0.620
 5.171 	0.352 	0.490
 5.648 	0.534 	0.417
 5.807 	0.717 	0.352
 5.966 	1.048 	0.046
 5.598 	1.499 	-0.182
 5.515 	1.284 	-0.498
 5.832 	0.745 	-0.587
 5.484 	0.169 	-0.384
 5.625 	0.391 	0.011
 6.185 	0.318 	-0.220
 6.318 	0.024 	-0.052
 6.082 	-0.110 	0.212
 5.238 	0.553 	0.281
 5.388 	-0.068 	-0.514
 5.275 	-0.499 	0.523
 4.863 	-0.214 	0.565
 4.793 	0.134 	0.541
 5.216 	0.563 	0.274
 5.739 	0.770 	-0.016
 5.979 	1.035 	-0.219
 5.868 	1.362 	-0.146
 5.504 	0.917 	-0.349
 5.209 	0.231 	0.159
 5.669 	0.606 	-0.218
 6.018 	0.798 	-0.332
 6.020 	0.948 	-0.293
 5.675 	0.768 	-0.168
 5.293 	0.747 	0.191
 4.916 	0.454 	0.758
 5.173 	0.206 	0.659
 5.944 	-0.159 	0.092
 6.177 	-0.122 	-0.263
 5.941 	0.042 	-0.628
 5.372 	-0.140 	-0.070
 4.707 	-0.145 	0.218
 4.981 	0.534 	0.147
 5.100 	1.098 	-0.132
 4.967 	1.102 	-0.039
 5.039 	0.654 	0.079
 4.702 	0.183 	0.187
 4.414 	0.055 	0.378
 4.649 	-0.050 	0.644
 5.418 	0.183 	0.463
 5.999 	0.580 	0.307
 6.072 	0.504 	0.077
 6.084 	0.019 	-0.076
 5.850 	-0.431 	0.145
 5.575 	-0.185 	0.099
 5.749 	0.299 	-0.203
 5.676 	-0.007 	0.010
 5.688 	-0.213 	0.146
 6.277 	0.626 	0.062
 5.745 	1.051 	0.031
 6.066 	0.934 	-0.122
 6.604 	0.190 	-0.360
 5.414 	0.284 	0.210
 5.354 	-0.170 	-0.184
 5.116 	-0.587 	0.106
 5.374 	-0.262 	0.747
 5.509 	0.179 	0.826
 5.937 	0.215 	0.471
 6.217 	0.194 	0.013
 5.792 	0.230 	0.125
 5.527 	0.208 	0.154
 5.799 	-0.299 	-0.142
 6.560 	-0.984 	-0.150
 6.597 	-0.928 	0.210
 6.119 	-0.375 	0.332
 6.244 	0.449 	0.092
 6.401 	0.662 	0.040
 6.154 	0.033 	-0.075
 6.094 	0.293 	0.031
 5.785 	0.232 	-0.138
 5.414 	0.051 	-0.400
 5.384 	0.040 	0.488
 5.463 	0.252 	0.607
 5.408 	0.422 	0.513
 5.187 	0.328 	0.219
 5.328 	0.141 	0.083
 5.763 	-0.562 	-0.389
 6.374 	-1.178 	-0.379
 6.877 	-1.261 	-0.338
 6.888 	-1.039 	-0.429
 6.542 	-0.333 	-0.290
 6.353 	0.222 	0.280
 6.344 	0.325 	0.195
 6.313 	0.123 	0.337
 6.593 	0.188 	-0.120
 6.471 	-0.176 	-0.191
 6.569 	-0.165 	-0.361
 6.245 	0.326 	-0.136
 6.155 	0.403 	0.467
 6.068 	0.706 	0.129
 5.928 	0.520 	-0.148
 6.424 	-0.184 	-0.709
 6.614 	-0.948 	-0.391
 6.592 	-1.674 	0.529
 6.966 	-0.919 	0.162
 6.703 	-0.538 	-0.110
 6.675 	-0.249 	-0.556
 6.558 	0.141 	-0.458
 6.810 	0.106 	0.180
 6.862 	0.096 	0.064
 6.908 	0.058 	0.022
 6.840 	-0.297 	-0.098
 6.702 	-0.297 	-0.491
 6.569 	0.083 	-0.516
 6.899 	0.357 	0.083
 7.339 	0.369 	0.205
 7.816 	0.109 	0.031
 7.543 	-0.113 	-0.410
 7.271 	-0.886 	-0.646
 6.543 	-1.818 	0.924
 6.603 	-1.030 	0.238
 6.393 	-0.470 	-0.137
 6.361 	-0.178 	-0.412
 6.319 	0.051 	-0.043
 6.757 	0.080 	0.193
 6.931 	0.468 	-0.131
 6.736 	-0.221 	0.037
 6.643 	-0.466 	-0.204
 6.882 	-0.621 	-0.492
 7.056 	-0.332 	-0.797
 7.132 	0.067 	-0.459
 7.569 	0.099 	-0.290
 7.521 	0.164 	-0.479
 7.329 	-0.248 	-0.497
 7.688 	-1.063 	-0.791
 5.557 	-0.799 	1.178
 4.983 	-0.966 	0.818
 4.787 	-0.720 	0.125
 4.786 	-0.378 	-0.073
 4.968 	-0.112 	0.031
 5.334 	-0.134 	0.456
 5.655 	-0.408 	-0.028
 6.984 	-0.061 	-0.453
 7.103 	-0.552 	-0.805
 6.898 	-0.549 	-0.579
 6.992 	-0.295 	-0.725
 6.659 	0.114 	-0.698
 6.567 	0.344 	0.097
 6.395 	0.284 	-0.050
 5.568 	-0.540 	0.576
 4.274 	-0.550 	0.639
 3.590 	-0.863 	1.276
 3.943 	-0.585 	0.711
 3.886 	-0.411 	0.330
 3.730 	-0.374 	0.218
 3.808 	-0.148 	0.349
 4.238 	-0.072 	0.539
 4.594 	-0.077 	0.727
 7.002 	-0.023 	-0.457
 6.951 	-0.419 	-0.411
 6.937 	-0.267 	-0.171
 7.401 	0.370 	-0.124
 6.841 	0.646 	-0.055
 6.820 	0.627 	-0.139
 6.679 	0.415 	-0.561
 5.757 	0.612 	0.262
 5.113 	0.542 	0.528
 5.734 	-0.411 	0.321
 4.543 	-0.492 	1.521
 3.532 	0.132 	1.129
 4.412 	-0.228 	0.475
 4.889 	-0.285 	0.211
 4.978 	-0.324 	0.342
 5.205 	-0.643 	0.577
 6.455 	-0.069 	-0.143
 6.473 	-0.277 	-0.060
 6.664 	-0.013 	0.003
 6.789 	0.432 	-0.195
 6.795 	0.798 	-0.211
 6.897 	0.649 	-0.139
 6.530 	0.400 	-0.040
 6.485 	1.142 	-0.123
 6.558 	0.686 	-0.483
 6.482 	0.128 	-0.156
 5.625 	0.470 	1.170
 5.371 	0.045 	0.590
 5.307 	0.200 	0.290
 5.877 	0.146 	-0.346
 6.681 	-0.330 	-0.758
 6.947 	-0.704 	-0.570
 5.935 	0.077 	0.069
 5.849 	-0.116 	-0.020
 5.997 	-0.411 	-0.040
 6.196 	-0.430 	0.169
 6.404 	-0.303 	0.431
 6.754 	-0.212 	0.432
 7.127 	0.445 	0.031
 6.508 	0.591 	-0.062
 6.190 	0.629 	-0.101
 6.362 	0.732 	-0.015
 6.830 	0.777 	-0.084
 6.876 	0.409 	-0.020
 6.644 	0.338 	-0.154
 6.857 	-0.217 	-0.756
 7.016 	-0.456 	-0.907
 7.136 	-0.387 	-0.792
 5.585 	-0.138 	0.209
 5.163 	-0.583 	0.265
 4.457 	-0.567 	0.402
 4.541 	-0.320 	0.694
 4.919 	-0.494 	0.478
 5.572 	-0.424 	0.236
 5.976 	-0.083 	-0.019
 6.197 	0.176 	0.127
 6.231 	0.376 	0.260
 6.359 	0.596 	0.277
 6.715 	0.713 	-0.229
 7.083 	0.665 	-0.540
 7.364 	-0.044 	-0.784
 7.244 	-0.449 	-0.989
 7.278 	-0.475 	-1.112
 7.409 	-0.402 	-0.933
 5.279 	-0.527 	0.079
 5.009 	-0.257 	0.210
 5.217 	-0.213 	0.026
 5.204 	-0.516 	-0.057
 4.763 	-0.486 	0.268
 4.356 	-0.956 	0.670
 4.583 	-0.411 	1.076
 5.202 	-0.188 	1.004
 5.821 	-0.414 	0.629
 6.329 	-0.821 	0.168
 6.937 	-0.020 	-0.119
 6.996 	0.278 	-0.436
 6.550 	-0.297 	-0.739
 6.612 	-0.558 	-1.145
 6.891 	-0.518 	-1.243
 7.276 	-0.320 	-1.009
 5.331 	0.265 	0.071
 5.304 	0.185 	0.419
 5.967 	-0.329 	0.090
 5.784 	-0.510 	-0.102
 5.146 	-0.463 	-0.172
 5.217 	-0.646 	0.146
 5.485 	-0.751 	0.185
 5.541 	-0.966 	0.194
 5.901 	-0.941 	0.175
 6.448 	-0.919 	-0.048
 6.799 	-0.691 	-0.141
 6.730 	-0.157 	-0.189
 6.492 	-0.036 	-0.274
 6.528 	-0.243 	-0.624
 6.702 	-0.187 	-0.893
 6.927 	0.074 	-0.780
 6.718 	0.510 	-0.063
 6.455 	0.369 	0.011
 6.232 	0.056 	-0.066
 5.744 	-0.005 	-0.390
 5.370 	-0.111 	-0.187
 5.425 	-0.462 	0.267
 5.260 	-0.738 	0.187
 5.427 	-1.247 	-0.037
 5.935 	-1.230 	-0.087
 6.111 	-0.756 	-0.303
 6.195 	-0.352 	-0.414
 6.442 	-0.135 	-0.048
 6.761 	-0.060 	-0.097
 7.029 	0.066 	-0.468
 6.335 	0.636 	-0.520
 5.730 	0.363 	-0.381
 5.782 	-0.174 	-0.041
 5.851 	0.191 	-0.047
 5.810 	0.215 	-0.167
 5.695 	0.186 	-0.258
 5.682 	0.120 	-0.115
 6.058 	-0.043 	-0.121
 6.486 	-0.454 	-0.593
 6.139 	-0.501 	-0.562
 6.092 	-0.540 	0.322
 6.184 	-0.427 	0.400
 5.965 	-0.078 	-0.025
 5.632 	0.171 	-0.123
 5.623 	0.145 	-0.260
 5.750 	0.292 	-0.012
 5.159 	0.864 	0.409
 5.049 	0.633 	0.718
 5.404 	0.838 	0.200
 5.372 	0.722 	0.057
 5.586 	0.267 	-0.095
 5.764 	-0.079 	-0.155
 6.144 	-0.064 	0.078
 6.422 	0.338 	0.459
 6.507 	0.558 	0.341
 6.611 	0.645 	0.169
 6.538 	0.533 	-0.183
 6.460 	0.131 	-0.434
 6.924 	0.155 	-0.059
 6.856 	-0.033 	0.373
 6.150 	0.330 	-0.119
 5.876 	0.448 	-0.200
 6.160 	0.213 	0.038
 6.539 	-0.096 	0.115
 5.124 	0.605 	0.674
 4.930 	0.038 	0.764
 4.880 	-0.308 	0.960
 5.369 	-0.416 	1.011
 6.017 	-0.410 	0.554
 6.339 	-0.036 	0.272
 6.323 	0.256 	0.237
 6.428 	0.120 	0.253
 6.611 	-0.130 	0.298
 6.527 	0.213 	-0.183
 6.471 	0.376 	-0.043
 6.249 	0.421 	0.409
 6.372 	0.455 	0.492
 6.560 	0.054 	0.172
 6.706 	-0.336 	-0.046
 6.874 	-0.478 	-0.187
 5.782 	0.593 	0.232
 5.894 	0.270 	0.090
 6.228 	-0.457 	0.132
 6.513 	-0.676 	0.529
 6.668 	-0.550 	0.643
 6.563 	-0.015 	0.286
 6.288 	0.288 	0.108
 5.942 	-0.040 	0.187
 5.951 	-0.294 	0.212
 5.953 	0.228 	0.199
 5.763 	0.837 	-0.051
 5.758 	0.453 	0.223
 6.146 	-0.063 	0.638
 6.623 	-0.343 	0.388
 6.730 	-0.793 	0.148
 6.626 	-0.793 	0.087
 6.460 	0.346 	-0.228
 6.812 	-0.370 	-0.078
 6.947 	-0.511 	0.026
 6.931 	-0.272 	0.055
 6.698 	-0.202 	0.534
 6.089 	0.271 	0.637
 5.512 	0.708 	0.341
 5.662 	-0.050 	0.082
 5.949 	-0.589 	-0.123
 6.101 	-0.324 	-0.022
 6.341 	0.089 	-0.100
 6.315 	0.100 	-0.257
 6.505 	-0.019 	-0.010
 7.132 	-0.229 	0.315
 7.336 	-0.466 	0.277
 7.084 	-0.626 	-0.065
 7.273 	0.066 	0.019
 7.186 	-0.416 	0.028
 6.513 	-0.795 	0.073
 6.494 	-0.298 	0.070
 6.743 	0.165 	0.418
 6.799 	0.630 	0.397
 6.861 	0.632 	-0.069
 6.623 	-0.156 	-0.351
 6.222 	-0.888 	0.010
 6.434 	-1.292 	0.658
 7.033 	-0.745 	0.406
 7.205 	-0.780 	0.022
 7.231 	-0.835 	-0.109
 7.267 	-0.507 	-0.039
 7.365 	-0.149 	0.218
 7.214 	-0.109 	0.035
 7.621 	0.229 	-0.091
 7.716 	-0.134 	0.036
 7.447 	-0.600 	-0.039
 6.948 	-0.288 	-0.080
 6.693 	0.064 	-0.117
 7.015 	0.408 	-0.040
 7.292 	0.380 	-0.102
 7.243 	-0.096 	-0.214
 6.985 	-0.946 	-0.208
 7.133 	-1.671 	0.488
 7.264 	-1.204 	0.577
 7.250 	-0.993 	-0.069
 6.692 	-1.045 	-0.212
 6.244 	-0.875 	-0.264
 6.544 	-0.674 	-0.094
 6.898 	-0.378 	-0.019
 7.518 	0.201 	0.101
 7.454 	-0.182 	-0.078
 7.325 	-0.536 	-0.307
 7.157 	-0.391 	-0.477
 7.199 	-0.148 	-0.507
 7.356 	0.352 	-0.344
 7.273 	0.382 	-0.250
 7.219 	-0.291 	-0.313
 7.472 	-1.211 	-0.390
 7.030 	-0.928 	1.126
 7.163 	-0.519 	0.907
 7.106 	-0.629 	-0.084
 6.093 	-0.837 	-0.161
 5.377 	-0.785 	-0.001
 5.690 	-0.629 	0.394
 6.063 	-0.384 	0.341
 7.112 	-0.061 	-0.344
 7.128 	-0.464 	-0.554
 7.184 	-0.828 	-0.674
 7.285 	-0.710 	-0.942
 6.972 	-0.053 	-0.613
 6.680 	0.457 	-0.127
 6.766 	0.201 	-0.098
 6.119 	-0.453 	0.682
 4.596 	-0.555 	1.400
 4.660 	-0.436 	1.190
 5.601 	-0.337 	0.457
 5.460 	-0.090 	0.098
 4.643 	-0.135 	0.197
 4.747 	-0.397 	0.599
 5.183 	-0.861 	0.871
 5.822 	-0.881 	0.630
 6.821 	-0.393 	-0.438
 6.719 	-0.683 	-0.511
 6.516 	-0.895 	-0.433
 6.297 	-0.649 	-0.325
 6.663 	0.181 	-0.195
 6.919 	0.279 	0.068
 6.684 	-0.279 	0.152
 6.371 	-0.090 	0.409
 5.746 	0.170 	0.616
 5.494 	-0.314 	0.771
 5.518 	-0.599 	1.150
 6.371 	-0.087 	0.222
 6.156 	-0.026 	-0.253
 6.418 	-0.352 	-0.588
 6.722 	-0.739 	-0.526
 6.350 	-0.922 	0.659
 6.791 	-0.346 	-0.295
 6.463 	-0.362 	-0.357
 6.251 	-0.813 	-0.174
 6.325 	-0.742 	-0.055
 6.480 	-0.515 	-0.083
 6.668 	-0.664 	-0.057
 6.777 	-0.782 	0.229
 6.817 	-0.641 	0.264
 6.537 	-0.328 	0.022
 6.465 	-0.243 	-0.136
 6.589 	-0.122 	0.567
 7.139 	-0.298 	0.585
 7.497 	-0.374 	-0.072
 7.244 	-0.380 	-0.360
 7.236 	-0.351 	-0.559
 7.466 	-0.655 	-0.578
 6.140 	-0.123 	0.072
 6.230 	-0.161 	-0.063
 6.469 	-0.461 	-0.041
 6.773 	-0.523 	0.243
 6.878 	-0.492 	0.440
 6.996 	-0.639 	0.338
 6.876 	-0.822 	0.221
 6.672 	-0.951 	0.144
 6.589 	-0.686 	-0.047
 6.472 	-0.571 	-0.081
 6.735 	-0.261 	-0.141
 7.350 	-0.284 	-0.077
 7.739 	-0.330 	-0.222
 7.787 	-0.455 	-0.724
 7.847 	-0.676 	-0.966
 7.874 	-0.747 	-0.750
 5.940 	-0.015 	0.528
 6.437 	-0.152 	0.062
 6.834 	-0.497 	0.098
 6.650 	-0.606 	0.260
 6.222 	-0.464 	0.208
 6.172 	-0.882 	0.202
 6.258 	-0.909 	0.388
 6.413 	-0.825 	0.642
 6.647 	-0.941 	0.500
 6.844 	-1.048 	0.088
 6.890 	-0.706 	-0.104
 7.363 	-0.475 	-0.540
 7.850 	-0.425 	-1.041
 7.969 	-0.457 	-1.111
 7.800 	-0.689 	-0.927
 7.776 	-0.808 	-0.728
 6.778 	-0.063 	0.041
 7.048 	-0.039 	-0.035
 7.097 	0.082 	0.126
 6.565 	0.123 	0.426
 6.559 	-0.271 	0.250
 6.022 	-0.836 	0.550
 5.605 	-0.737 	0.872
 5.776 	-0.567 	1.028
 6.255 	-0.889 	0.768
 6.823 	-1.295 	0.383
 7.132 	-1.228 	0.163
 6.921 	-0.891 	-0.131
 7.201 	-0.485 	-0.601
 7.764 	-0.280 	-1.015
 7.990 	-0.640 	-1.183
 7.338 	-0.986 	-1.332
 6.975 	-0.374 	-0.160
 7.255 	-0.383 	-0.034
 7.587 	0.116 	-0.005
 7.670 	0.406 	0.055
 7.382 	0.094 	-0.077
 7.382 	-0.531 	-0.123
 7.478 	-0.464 	-0.061
 7.620 	-0.538 	-0.131
 7.626 	-0.883 	-0.113
 7.307 	-1.097 	-0.172
 7.026 	-1.098 	-0.096
 6.777 	-1.057 	0.044
 6.580 	-1.033 	-0.183
 7.072 	-0.852 	-0.650
 7.609 	-0.731 	-1.000
 7.241 	-0.447 	-1.051
 6.129 	-0.513 	0.177
 6.211 	-0.515 	-0.047
 6.551 	-0.309 	-0.377
 6.981 	0.037 	-0.396
 7.370 	0.031 	-0.282
 7.521 	-0.093 	-0.167
 7.624 	-0.183 	-0.484
 7.613 	-0.596 	-0.563
 7.599 	-1.002 	-0.514
 7.756 	-0.993 	-0.595
 7.672 	-0.675 	-0.626
 7.239 	-0.619 	-0.208
 6.780 	-0.905 	-0.310
 6.968 	-1.128 	-0.601
 6.787 	-1.128 	-0.616
 6.657 	0.181 	-0.783
 6.019 	-0.380 	0.382
 6.034 	-0.236 	0.039
 6.293 	-0.290 	-0.491
 6.635 	-0.069 	-0.601
 7.041 	0.101 	-0.504
 7.346 	0.183 	-0.472
 7.424 	0.027 	-0.543
 7.227 	-0.360 	-0.648
 7.301 	-0.607 	-0.278
 7.420 	-0.476 	0.123
 7.513 	-0.155 	-0.184
 7.546 	-0.117 	-0.352
 7.527 	-0.534 	-0.709
 7.323 	-1.055 	-0.251
 5.829 	0.204 	0.259
 5.321 	0.707 	0.926
 5.731 	1.073 	0.395
 5.539 	0.924 	0.465
 5.583 	0.593 	0.558
 5.987 	0.426 	0.546
 6.352 	0.199 	0.421
 6.624 	0.021 	0.397
 6.815 	0.314 	0.521
 6.990 	0.176 	0.214
 6.979 	-0.227 	-0.218
 6.976 	-0.328 	-0.416
 6.743 	-0.219 	-0.368
 6.811 	0.088 	0.088
 6.880 	0.224 	0.119
 6.575 	0.260 	0.032
 6.551 	0.175 	0.001
 6.729 	0.081 	-0.053
 5.486 	1.217 	0.667
 5.499 	0.857 	0.523
 5.627 	0.282 	0.387
 6.010 	-0.068 	0.426
 6.459 	-0.182 	0.357
 6.593 	-0.137 	0.230
 6.572 	0.051 	0.485
 6.707 	0.092 	0.663
 6.841 	-0.337 	0.645
 6.933 	-0.547 	0.151
 6.439 	0.106 	-0.143
 6.148 	0.350 	0.338
 6.448 	0.163 	0.411
 6.714 	-0.220 	0.270
 6.949 	-0.339 	0.133
 7.112 	-0.235 	0.055
 5.689 	1.257 	0.040
 5.711 	0.790 	0.021
 5.898 	0.360 	0.201
 6.285 	-0.236 	0.362
 6.639 	-0.656 	0.702
 6.831 	-0.315 	0.514
 6.945 	0.140 	0.271
 6.896 	0.157 	0.356
 6.782 	-0.383 	0.247
 6.739 	-0.695 	0.313
 6.741 	-0.257 	0.087
 6.721 	0.423 	0.238
 6.756 	0.311 	0.215
 6.891 	-0.088 	-0.003
 6.901 	-0.388 	0.108
 6.901 	-0.463 	0.301
 6.086 	0.905 	-0.055
 6.407 	0.281 	0.125
 6.929 	-0.277 	0.100
 7.158 	-0.711 	-0.046
 6.890 	-0.605 	0.287
 6.661 	-0.292 	0.808
 6.796 	-0.152 	0.323
 6.814 	0.096 	0.020
 6.619 	-0.238 	0.200
 6.444 	-0.546 	0.437
 6.403 	-0.537 	0.543
 6.585 	-0.134 	0.307
 6.854 	-0.010 	0.163
 7.085 	-0.214 	0.085
 7.345 	-0.483 	-0.015
 7.369 	-0.532 	-0.133
 6.669 	0.447 	0.080
 6.749 	-0.125 	0.042
 6.776 	-0.445 	0.200
 6.756 	-0.643 	0.243
 6.702 	-0.609 	0.328
 6.915 	-0.338 	0.529
 7.091 	-0.258 	0.280
 6.878 	-0.042 	0.017
 6.575 	-0.238 	0.338
 6.610 	-0.570 	0.701
 6.869 	-0.496 	0.646
 6.893 	-0.337 	0.485
 6.969 	-0.399 	0.421
 7.138 	-0.549 	0.397
 7.377 	-0.765 	0.421
 7.527 	-0.891 	0.305
 6.993 	0.345 	-0.294
 6.978 	0.062 	-0.045
 6.988 	-0.321 	0.027
 6.995 	-0.719 	-0.110
 7.085 	-0.851 	-0.145
 7.408 	-0.459 	-0.045
 7.272 	-0.141 	-0.126
 7.039 	-0.039 	-0.079
 7.148 	-0.243 	-0.105
 7.297 	-0.614 	0.027
 7.653 	-0.660 	0.062
 7.792 	-0.604 	-0.006
 7.802 	-0.648 	0.106
 7.486 	-0.829 	0.015
 7.376 	-0.929 	0.012
 7.391 	-0.839 	0.035
 7.362 	0.460 	0.083
 7.230 	0.176 	-0.182
 7.348 	-0.127 	-0.637
 7.421 	-0.459 	-0.677
 7.452 	-0.671 	-0.411
 7.200 	-0.624 	-0.231
 7.257 	-0.300 	-0.037
 7.366 	-0.187 	0.084
 7.550 	-0.596 	0.131
 7.638 	-0.836 	0.326
 7.846 	-0.600 	0.218
 7.940 	-0.449 	-0.181
 8.154 	-0.456 	-0.351
 7.895 	-0.684 	-0.205
 7.063 	-0.669 	0.198
 6.528 	-0.596 	0.402
 7.396 	0.168 	0.101
 7.461 	0.079 	-0.051
 7.424 	-0.252 	-0.215
 7.269 	-0.562 	-0.318
 6.904 	-0.603 	-0.168
 6.437 	-0.718 	-0.108
 6.371 	-0.767 	-0.013
 6.579 	-0.580 	0.502
 6.712 	-0.655 	1.188
 6.802 	-0.826 	1.132
 6.637 	-0.768 	0.763
 6.984 	-0.431 	0.403
 7.539 	-0.232 	-0.013
 7.108 	-0.278 	0.183
 6.312 	-0.101 	0.550
 6.368 	-0.313 	0.540
 7.504 	-0.491 	-0.128
 7.375 	-0.469 	-0.089
 7.218 	-0.515 	-0.274
 7.113 	-0.663 	-0.196
 6.954 	-0.815 	0.076
 6.600 	-0.995 	0.372
 6.512 	-1.003 	0.617
 6.603 	-0.849 	0.522
 6.849 	-0.525 	0.467
 7.053 	-0.559 	0.453
 7.084 	-0.629 	0.706
 7.244 	-0.621 	0.536
 7.465 	-0.565 	0.046
 7.519 	-0.110 	-0.185
 7.341 	-0.042 	-0.195
 7.121 	-0.429 	0.000
 7.510 	-0.471 	-0.349
 7.552 	-0.321 	-0.361
 7.641 	-0.212 	-0.447
 7.803 	-0.562 	-0.139
 7.748 	-0.855 	0.256
 7.327 	-0.810 	0.397
 6.985 	-0.797 	0.608
 6.969 	-0.734 	0.733
 7.103 	-0.980 	0.281
 7.308 	-0.851 	0.132
 7.507 	-0.629 	0.461
 7.668 	-0.621 	0.427
 7.669 	-0.672 	-0.062
 7.703 	-0.358 	-0.216
 7.719 	-0.217 	-0.170
 7.702 	-0.339 	-0.086
 7.007 	-0.495 	0.022
 7.172 	-0.409 	-0.091
 7.400 	-0.309 	-0.111
 7.742 	-0.270 	-0.020
 8.016 	-0.400 	0.072
 8.020 	-0.570 	0.250
 7.668 	-0.708 	0.343
 7.292 	-0.954 	0.349
 7.134 	-1.248 	0.302
 7.207 	-1.381 	0.162
 7.538 	-1.234 	-0.251
 7.868 	-0.967 	-0.170
 7.953 	-0.644 	-0.116
 7.828 	-0.454 	-0.521
 7.754 	-0.449 	-0.733
 7.798 	-0.472 	-0.680
 7.110 	-0.512 	0.170
 7.327 	-0.398 	-0.127
 7.352 	-0.359 	-0.202
 7.409 	-0.361 	0.230
 7.317 	-0.265 	0.511
 7.083 	-0.422 	0.495
 7.003 	-0.709 	0.488
 7.144 	-0.957 	0.417
 7.199 	-1.360 	0.243
 6.943 	-1.573 	0.147
 7.184 	-1.502 	-0.137
 7.999 	-1.042 	-1.019
 8.401 	-0.649 	-1.538
 8.279 	-0.440 	-1.437
 8.122 	-0.496 	-1.158
 8.071 	-0.559 	-0.864
 7.042 	-0.979 	0.122
 7.121 	-0.890 	0.008
 7.233 	-0.491 	-0.040
 7.366 	-0.178 	0.153
 7.425 	-0.109 	0.329
 7.317 	-0.295 	0.520
 7.261 	-0.637 	0.514
 7.268 	-0.850 	0.407
 7.229 	-0.994 	0.239
 7.268 	-1.173 	0.148
 7.225 	-1.220 	0.065
 7.363 	-1.014 	-0.278
 7.749 	-0.711 	-0.865
 8.152 	-0.338 	-1.075
 8.331 	-0.215 	-0.958
 7.737 	-0.517 	-0.984
 6.513 	-0.955 	-0.115
 6.602 	-0.902 	0.001
 6.774 	-0.645 	0.168
 7.107 	-0.369 	0.144
 7.550 	-0.206 	0.170
 7.882 	-0.296 	-0.118
 7.903 	-0.552 	-0.402
 7.892 	-0.693 	-0.371
 7.935 	-0.720 	-0.272
 7.824 	-0.795 	-0.135
 7.528 	-0.967 	0.064
 7.353 	-1.111 	0.071
 7.386 	-0.864 	-0.191
 7.540 	-0.614 	-0.506
 7.801 	-0.581 	-0.714
 8.094 	-0.260 	-0.858
 6.197 	-1.242 	0.048
 6.404 	-1.118 	-0.115
 6.704 	-0.864 	-0.470
 7.147 	-0.503 	-0.499
 7.514 	-0.182 	-0.425
 7.790 	0.060 	-0.532
 7.990 	0.103 	-0.666
 8.131 	-0.179 	-0.772
 8.203 	-0.465 	-0.784
 8.044 	-0.649 	-0.847
 7.826 	-0.734 	-0.815
 7.759 	-0.723 	-0.712
 7.748 	-0.684 	-0.712
 7.529 	-0.598 	-0.608
 7.232 	-0.706 	-0.404
 7.204 	-0.346 	-0.296
 6.387 	-1.348 	0.200
 6.433 	-1.444 	-0.133
 6.748 	-1.294 	-0.392
 7.166 	-0.863 	-0.899
 7.668 	-0.312 	-1.116
 7.929 	0.272 	-1.023
 8.048 	0.404 	-1.232
 8.266 	0.271 	-1.038
 8.256 	-0.080 	-0.603
 7.946 	-0.419 	-0.507
 7.989 	-0.582 	-0.496
 8.092 	-0.436 	-0.463
 7.959 	-0.458 	-0.652
 7.628 	-0.343 	-0.694
 8.056 	-0.540 	0.125
 7.376 	0.096 	-0.114
 6.282 	1.156 	0.389
 6.101 	1.088 	0.367
 5.974 	0.906 	0.261
 6.055 	0.799 	0.341
 6.272 	0.609 	0.392
 6.524 	0.334 	0.400
 6.722 	0.184 	0.445
 6.827 	0.030 	0.252
 6.930 	-0.173 	0.017
 7.074 	-0.304 	-0.208
 7.106 	-0.343 	-0.268
 7.182 	-0.159 	-0.066
 7.353 	0.137 	0.149
 7.267 	0.139 	0.160
 6.931 	0.072 	0.083
 6.878 	0.277 	0.077
 5.784 	1.439 	0.603
 5.744 	1.325 	0.416
 5.878 	1.120 	0.190
 6.133 	0.847 	0.125
 6.438 	0.449 	0.161
 6.637 	0.105 	0.342
 6.867 	0.012 	0.471
 7.087 	-0.152 	0.411
 7.117 	-0.309 	0.450
 7.172 	-0.449 	0.431
 7.167 	-0.459 	0.245
 7.082 	-0.157 	0.180
 6.955 	0.115 	0.291
 6.785 	0.290 	0.172
 6.931 	0.227 	0.084
 7.298 	-0.010 	0.176
 5.917 	1.341 	0.308
 5.977 	1.095 	0.208
 5.963 	0.920 	0.293
 6.207 	0.677 	0.606
 6.675 	-0.090 	0.909
 7.096 	-0.317 	0.823
 7.253 	-0.198 	0.509
 7.268 	-0.074 	0.347
 7.275 	-0.037 	0.300
 7.203 	-0.322 	0.346
 7.220 	-0.434 	0.456
 7.286 	-0.458 	0.351
 7.242 	-0.270 	0.157
 7.313 	0.103 	0.049
 7.230 	0.130 	0.140
 7.235 	-0.103 	0.352
 6.385 	1.069 	0.182
 6.392 	0.800 	0.223
 6.533 	0.660 	0.220
 6.678 	0.357 	0.117
 7.020 	-0.185 	0.183
 7.352 	-0.437 	0.399
 7.429 	-0.379 	0.336
 7.208 	-0.382 	0.288
 7.004 	-0.345 	0.353
 6.911 	-0.354 	0.322
 6.552 	-0.351 	0.313
 6.390 	-0.383 	0.482
 6.529 	-0.458 	0.445
 6.807 	-0.264 	0.258
 7.163 	-0.101 	0.170
 7.423 	-0.151 	0.277
 6.763 	0.961 	0.144
 6.801 	0.652 	0.015
 7.053 	0.224 	0.028