# vtk DataFile Version 3.0
HighT1
ASCII
DATASET STRUCTURED_POINTS
DIMENSIONS 16 16 19
ORIGIN 929.001000000000 929.001000000000 5.001000000000
SPACING 10.000000000000 10.000000000000 10.000000000000
POINT_DATA 4864
 FIELD attributes 1
U 3 4864 float
4.229 	0.200 	0.469
 4.043 	0.688 	-0.097
 4.707 	1.035 	0.357
 4.673 	1.022 	0.254
 4.032 	0.638 	0.665
 3.931 	1.215 	0.211
 3.470 	0.226 	0.152
 3.911 	-0.343 	0.144
 5.157 	1.283 	-0.188
 4.684 	0.935 	-0.067
 3.976 	1.281 	0.342
 4.778 	1.043 	0.425
 4.643 	0.374 	-0.243
 4.080 	-0.310 	0.288
 4.185 	-0.533 	0.262
 3.850 	-0.221 	0.181
 3.956 	-0.508 	0.519
 3.252 	0.466 	0.224
 2.762 	0.409 	0.551
 2.820 	0.001 	0.305
 3.152 	-0.136 	0.107
 4.243 	-0.135 	0.237
 4.375 	-0.783 	-0.061
 4.056 	-0.287 	-0.606
 4.328 	0.720 	-0.195
 4.753 	1.650 	-0.082
 4.856 	1.271 	-0.373
 4.980 	1.066 	-0.070
 5.127 	0.834 	-0.312
 4.869 	-0.640 	-0.038
 5.470 	0.372 	-0.229
 4.448 	0.061 	0.162
 4.568 	0.597 	-0.088
 3.919 	0.120 	0.122
 4.250 	0.126 	-0.294
 3.695 	0.338 	0.169
 3.073 	-0.024 	0.302
 2.517 	-0.018 	0.106
 2.191 	-0.032 	0.310
 2.870 	0.380 	0.164
 3.161 	1.099 	0.101
 3.782 	1.373 	-0.082
 3.972 	0.964 	-0.026
 4.606 	1.077 	-0.299
 4.947 	0.473 	-0.100
 3.737 	-0.285 	0.292
 3.273 	0.260 	0.324
 3.336 	0.090 	0.093
 3.667 	0.573 	0.010
 3.694 	0.024 	-0.158
 3.847 	-0.056 	0.010
 3.859 	1.011 	-0.149
 4.083 	-0.327 	-0.016
 3.599 	0.141 	-0.169
 3.139 	-0.275 	-0.174
 3.496 	0.160 	0.032
 2.924 	0.280 	0.013
 2.816 	0.253 	0.169
 3.072 	0.571 	0.014
 2.807 	0.649 	0.490
 2.742 	-0.084 	0.440
 2.864 	-0.526 	0.334
 3.500 	-0.585 	-0.007
 3.693 	0.307 	-0.250
 3.435 	0.582 	0.167
 4.089 	-0.354 	-0.198
 3.545 	-0.329 	0.302
 3.053 	0.075 	0.326
 3.052 	0.312 	0.264
 3.172 	-0.028 	-0.118
 3.230 	0.054 	0.161
 2.801 	0.044 	0.210
 2.971 	0.124 	0.019
 3.232 	-0.333 	0.024
 2.977 	0.184 	0.061
 3.383 	0.309 	0.241
 3.007 	-0.332 	-0.247
 2.874 	-0.672 	-0.346
 2.932 	0.167 	0.033
 3.063 	-0.065 	0.093
 4.756 	-0.014 	-0.126
 4.797 	-0.301 	-0.415
 4.095 	0.150 	0.017
 3.903 	0.417 	-0.022
 3.748 	-0.737 	0.129
 3.774 	-0.221 	0.199
 3.820 	0.322 	-0.099
 4.168 	0.308 	-0.091
 3.876 	-0.633 	0.216
 3.132 	-0.805 	0.219
 3.630 	0.142 	-0.059
 3.688 	0.194 	0.124
 3.645 	0.252 	-0.167
 3.648 	-0.069 	-0.129
 2.985 	-0.069 	0.320
 3.088 	-0.536 	0.267
 4.076 	-0.286 	0.046
 4.317 	-0.475 	-0.016
 4.782 	0.200 	-0.082
 5.010 	0.571 	-0.266
 4.620 	0.291 	-0.020
 4.836 	-0.597 	-0.272
 4.633 	0.028 	-0.102
 4.538 	0.229 	0.010
 4.401 	-0.184 	0.091
 3.326 	-0.551 	0.407
 3.504 	0.082 	0.193
 3.753 	0.215 	-0.173
 3.398 	-0.142 	0.201
 3.665 	0.269 	0.006
 4.326 	0.418 	-0.326
 4.437 	-0.326 	-0.098
 4.451 	0.023 	-0.517
 4.629 	0.305 	-0.145
 4.589 	0.252 	-0.213
 4.823 	0.838 	-0.203
 4.544 	0.090 	-0.146
 3.287 	-0.378 	0.520
 3.648 	-0.604 	-0.333
 4.981 	0.447 	-0.717
 5.050 	0.589 	-0.588
 4.415 	0.612 	-0.009
 3.312 	0.306 	0.162
 3.341 	0.491 	-0.340
 3.871 	-0.363 	-0.286
 3.841 	-0.221 	-0.346
 4.084 	-0.111 	-0.465
 4.511 	0.005 	-0.250
 2.862 	-0.226 	0.575
 3.779 	0.602 	0.043
 3.721 	0.189 	0.374
 4.194 	0.621 	0.156
 3.923 	0.973 	0.293
 4.148 	0.374 	-0.468
 4.371 	0.158 	0.359
 2.554 	0.068 	0.768
 2.991 	1.334 	0.212
 3.638 	1.067 	-0.140
 4.052 	0.685 	-0.149
 4.370 	0.486 	-0.228
 4.498 	0.065 	-0.316
 4.050 	-0.414 	-0.039
 3.794 	-0.426 	0.029
 4.137 	-0.231 	0.172
 3.837 	-0.969 	0.142
 3.295 	-0.288 	0.060
 3.716 	0.254 	0.171
 4.109 	0.177 	0.059
 4.110 	0.466 	-0.196
 4.115 	0.025 	0.011
 3.959 	0.102 	0.080
 4.639 	0.790 	-0.279
 3.425 	0.518 	0.174
 3.788 	0.882 	0.060
 4.412 	1.109 	-0.371
 4.392 	0.725 	-0.170
 4.467 	0.689 	-0.077
 3.839 	-0.160 	0.165
 3.183 	-0.350 	0.285
 2.947 	-0.138 	0.137
 4.193 	-0.725 	-0.056
 3.661 	-0.460 	0.089
 3.950 	-0.127 	-0.440
 3.586 	-0.251 	0.201
 3.331 	-0.239 	0.134
 3.505 	-0.349 	0.114
 3.918 	0.363 	-0.257
 4.061 	0.697 	-0.060
 4.753 	0.780 	-0.126
 4.279 	0.336 	0.011
 4.078 	0.849 	0.221
 4.146 	0.670 	0.045
 4.162 	0.495 	0.114
 4.215 	0.518 	-0.142
 3.913 	0.423 	-0.084
 3.887 	0.113 	-0.278
 3.846 	-0.347 	0.268
 4.413 	0.480 	-0.814
 3.086 	-0.189 	0.223
 3.395 	0.184 	0.137
 2.579 	-0.770 	0.217
 2.935 	-0.222 	0.051
 3.523 	0.473 	-0.197
 3.191 	-0.039 	0.156
 2.984 	0.095 	0.331
 3.160 	0.153 	0.114
 3.196 	-0.398 	0.129
 3.070 	0.415 	0.178
 3.051 	0.381 	0.115
 2.855 	0.308 	0.346
 3.033 	0.197 	0.270
 3.455 	-0.053 	0.067
 2.861 	0.703 	0.381
 3.565 	0.913 	-0.013
 3.546 	0.224 	0.115
 3.943 	-0.134 	-0.009
 4.100 	-0.795 	0.027
 3.124 	-0.193 	0.337
 2.305 	0.319 	0.374
 3.314 	-0.078 	-0.117
 3.369 	-0.434 	0.182
 2.881 	-0.202 	0.008
 2.485 	-0.324 	0.158
 2.474 	0.047 	0.344
 2.738 	0.879 	0.236
 2.965 	0.148 	0.092
 3.471 	-0.309 	-0.027
 3.322 	-0.334 	0.079
 3.919 	0.208 	0.364
 4.225 	0.698 	0.114
 3.749 	-0.027 	-0.058
 3.948 	0.075 	-0.065
 3.659 	-0.404 	-0.241
 3.764 	0.000 	-0.159
 4.000 	0.422 	0.021
 4.095 	-0.013 	-0.453
 4.089 	0.021 	0.206
 3.145 	-0.774 	0.078
 3.507 	-0.539 	-0.154
 3.690 	-0.133 	-0.228
 3.717 	0.191 	0.067
 3.979 	0.238 	-0.302
 4.005 	-0.238 	-0.189
 3.891 	0.058 	-0.236
 3.969 	-0.271 	-0.118
 4.227 	-0.220 	-0.055
 4.328 	0.326 	-0.271
 3.519 	0.551 	0.414
 3.159 	-0.319 	0.124
 3.486 	-0.480 	0.108
 3.681 	-0.072 	0.041
 3.415 	0.583 	0.034
 3.885 	0.008 	-0.143
 3.948 	-0.193 	-0.302
 3.523 	-0.021 	0.096
 3.681 	-0.455 	0.008
 3.410 	0.139 	-0.108
 3.494 	0.294 	-0.052
 3.288 	0.118 	-0.023
 3.666 	0.474 	-0.159
 2.515 	-0.504 	0.174
 2.740 	-0.152 	-0.162
 3.369 	-0.096 	-0.115
 3.869 	0.370 	0.045
 3.478 	-0.393 	0.194
 3.366 	-0.551 	0.096
 2.968 	-0.488 	0.126
 3.483 	0.436 	-0.119
 3.222 	-0.081 	0.011
 2.941 	-0.120 	-0.086
 3.186 	0.026 	-0.064
 2.785 	-0.092 	0.391
 2.808 	0.009 	0.173
 2.988 	0.242 	0.063
 3.044 	0.241 	-0.043
 2.806 	0.029 	0.343
 6.468 	0.217 	-0.120
 6.470 	-0.063 	-0.045
 4.928 	0.344 	0.345
 4.513 	0.836 	0.922
 4.750 	0.858 	0.615
 5.222 	0.411 	0.416
 5.321 	0.694 	0.438
 5.325 	1.046 	0.309
 5.125 	-0.145 	0.219
 5.430 	0.141 	-0.219
 5.990 	0.556 	0.336
 6.416 	1.623 	-0.570
 5.780 	1.265 	0.595
 5.455 	0.827 	0.473
 5.050 	0.102 	0.399
 5.355 	0.453 	0.175
 5.515 	-0.006 	0.329
 4.756 	0.811 	0.544
 4.025 	0.902 	0.412
 4.371 	1.047 	0.289
 4.872 	0.263 	0.226
 5.445 	0.475 	0.224
 5.404 	0.700 	-0.328
 6.076 	0.058 	-0.535
 5.445 	-1.022 	-0.214
 5.171 	0.485 	0.023
 4.989 	0.408 	0.203
 4.895 	0.822 	0.327
 5.897 	1.301 	0.438
 5.756 	0.693 	0.183
 6.121 	0.893 	-0.289
 6.010 	0.125 	0.065
 5.296 	0.870 	0.155
 4.990 	1.309 	0.951
 5.221 	0.421 	-0.239
 5.832 	0.101 	-0.038
 4.833 	0.129 	0.413
 4.515 	0.197 	0.861
 5.393 	1.068 	-0.182
 4.899 	-0.274 	-0.198
 5.083 	0.297 	0.085
 5.477 	-0.140 	-0.064
 5.698 	0.568 	0.026
 5.054 	0.483 	-0.055
 5.369 	0.860 	0.055
 5.287 	0.688 	0.370
 4.617 	0.437 	0.163
 4.325 	-0.124 	0.009
 4.985 	1.109 	0.365
 4.966 	0.501 	0.604
 5.047 	-0.002 	0.386
 5.180 	0.345 	0.206
 4.764 	0.081 	0.370
 3.922 	0.065 	0.444
 4.150 	0.268 	0.301
 4.653 	0.628 	-0.307
 5.504 	0.636 	-0.748
 4.848 	-0.208 	0.043
 5.064 	0.386 	-0.479
 4.283 	0.491 	0.635
 3.983 	0.715 	0.623
 4.817 	0.762 	0.118
 5.438 	0.524 	-0.319
 5.245 	0.658 	-0.096
 5.077 	0.143 	0.529
 4.946 	-0.107 	0.593
 4.695 	-0.421 	0.264
 4.400 	-0.467 	0.584
 4.919 	0.020 	0.095
 3.695 	-0.131 	0.312
 3.507 	-0.127 	0.339
 4.248 	0.252 	0.084
 3.878 	0.476 	0.193
 3.936 	-0.066 	0.418
 4.267 	-0.038 	0.366
 4.414 	0.479 	0.061
 4.061 	0.508 	0.247
 3.798 	-0.097 	0.003
 3.548 	0.508 	-0.261
 4.394 	0.392 	0.105
 5.965 	-0.019 	0.516
 4.941 	0.092 	0.178
 4.940 	0.024 	0.196
 5.434 	0.073 	0.237
 4.923 	-0.068 	0.263
 5.463 	-0.499 	0.372
 5.271 	-0.284 	0.214
 5.139 	0.688 	0.128
 5.827 	0.192 	-0.032
 5.035 	-0.075 	-0.265
 4.391 	-0.592 	0.649
 4.690 	0.243 	0.515
 4.673 	0.531 	0.164
 4.558 	0.561 	-0.173
 4.122 	0.123 	0.128
 4.269 	0.380 	0.194
 5.690 	0.023 	0.286
 5.434 	-0.243 	-0.151
 5.162 	-0.594 	0.014
 5.229 	-0.083 	-0.238
 5.626 	0.079 	0.050
 5.608 	-0.291 	-0.191
 5.619 	-0.221 	-0.533
 5.671 	-0.064 	-0.115
 6.208 	0.085 	-0.420
 6.077 	0.122 	-0.521
 5.629 	0.038 	0.136
 5.135 	0.183 	0.361
 4.406 	-0.009 	0.639
 4.592 	-0.086 	0.286
 5.075 	0.631 	-0.539
 4.894 	0.759 	-0.663
 5.026 	-0.435 	-0.886
 5.181 	-0.504 	-0.391
 4.356 	-0.448 	0.082
 4.653 	-0.612 	-0.114
 4.857 	-0.076 	-0.174
 5.121 	0.194 	-0.274
 5.341 	-0.653 	0.097
 5.375 	-0.324 	-0.279
 5.403 	-0.266 	-0.581
 5.194 	0.602 	-0.068
 5.450 	0.518 	0.165
 5.196 	0.339 	-0.116
 5.322 	0.392 	-0.160
 4.917 	-0.116 	-0.084
 4.739 	0.149 	0.196
 4.474 	0.512 	0.298
 4.458 	-0.431 	0.387
 4.042 	-1.248 	0.585
 3.793 	-0.484 	0.554
 3.853 	-0.927 	-0.158
 3.313 	-0.019 	0.440
 3.932 	-0.736 	-0.029
 4.161 	-0.440 	-0.147
 4.822 	-0.309 	0.196
 5.187 	-0.377 	-0.229
 5.180 	0.513 	-0.167
 5.216 	0.413 	-0.270
 5.192 	-0.002 	-0.392
 4.807 	0.028 	-0.553
 5.019 	0.434 	0.172
 4.273 	0.183 	0.432
 4.453 	-0.153 	0.323
 5.181 	0.922 	0.202
 4.842 	-1.339 	0.493
 4.092 	-0.501 	0.589
 3.785 	-0.514 	0.385
 3.772 	-0.631 	0.461
 4.471 	-0.586 	0.075
 4.290 	-0.753 	-0.092
 4.569 	-0.398 	-0.188
 4.670 	0.227 	-0.281
 4.838 	-0.234 	-0.016
 4.583 	0.474 	0.486
 4.413 	0.286 	-0.259
 4.464 	0.553 	-0.604
 4.843 	0.636 	-0.135
 4.894 	0.289 	-0.257
 4.664 	-0.054 	-0.060
 5.316 	0.521 	-0.409
 4.717 	-0.865 	0.144
 4.386 	-0.420 	0.403
 4.629 	-0.213 	0.175
 4.259 	-0.323 	-0.086
 3.724 	-0.996 	0.163
 3.929 	-0.636 	-0.338
 4.239 	0.006 	-0.334
 3.844 	-0.349 	0.535
 4.364 	-0.186 	0.528
 4.635 	-0.036 	0.705
 4.099 	0.260 	0.185
 3.966 	0.580 	-0.193
 4.028 	0.509 	0.442
 4.786 	0.762 	-0.307
 4.824 	0.322 	-0.451
 5.248 	0.787 	-0.640
 5.503 	-0.379 	-0.797
 5.398 	0.315 	-0.065
 4.197 	-0.297 	-0.135
 4.336 	-0.246 	0.323
 4.419 	-0.938 	0.352
 3.776 	-0.652 	0.566
 3.867 	0.235 	-0.240
 3.111 	0.034 	0.627
 3.394 	-0.350 	-0.085
 3.665 	-0.312 	0.356
 3.561 	-0.053 	0.460
 3.537 	0.479 	0.918
 3.908 	0.756 	0.033
 4.079 	0.750 	-0.218
 4.467 	0.473 	-0.250
 4.331 	0.190 	-0.092
 5.044 	-0.063 	-0.264
 5.645 	0.278 	-0.090
 5.118 	0.418 	-0.371
 5.327 	0.412 	-0.150
 5.255 	-0.511 	0.185
 4.392 	-0.204 	-0.022
 3.868 	0.548 	0.172
 3.894 	-0.401 	0.402
 3.874 	-0.051 	0.358
 3.277 	0.084 	0.458
 3.168 	-0.109 	0.647
 3.546 	0.052 	0.053
 4.024 	0.416 	-0.174
 4.049 	0.542 	-0.153
 4.367 	1.105 	-0.296
 4.938 	0.137 	0.291
 4.980 	-0.024 	0.111
 5.291 	0.674 	-0.105
 5.335 	0.568 	-0.060
 4.153 	0.110 	0.540
 4.372 	0.037 	0.085
 4.031 	-0.272 	0.003
 4.406 	0.065 	-0.354
 4.596 	-0.161 	-0.072
 4.253 	-0.383 	-0.183
 4.398 	0.037 	0.089
 3.927 	-0.315 	-0.082
 3.858 	-0.742 	0.283
 4.082 	0.187 	-0.014
 3.968 	0.991 	0.125
 4.393 	0.681 	-0.128
 4.633 	-0.122 	0.283
 5.362 	0.120 	0.463
 5.055 	0.583 	0.666
 4.801 	0.602 	0.468
 4.301 	0.191 	0.296
 4.232 	-0.260 	0.269
 4.268 	-0.238 	-0.033
 4.644 	-0.309 	-0.156
 4.355 	-0.266 	-0.056
 4.145 	-0.285 	-0.134
 4.190 	-0.199 	0.031
 3.882 	-0.393 	-0.020
 3.447 	-0.301 	0.069
 3.215 	-1.031 	0.143
 3.556 	0.519 	0.341
 3.985 	-0.290 	0.043
 4.670 	-0.853 	0.570
 4.550 	-0.505 	0.173
 4.708 	-0.027 	0.510
 4.570 	0.376 	0.476
 4.304 	0.106 	0.388
 4.172 	-0.100 	0.173
 3.708 	-0.443 	0.142
 3.977 	-0.484 	0.206
 4.101 	0.096 	-0.059
 3.851 	0.001 	-0.093
 3.735 	-0.321 	0.070
 3.445 	-0.207 	0.149
 3.067 	-0.758 	0.489
 3.291 	-0.989 	0.305
 3.389 	-0.916 	0.112
 3.400 	-1.479 	0.217
 6.551 	0.072 	0.286
 6.222 	-0.215 	0.986
 5.855 	0.320 	0.098
 6.026 	0.091 	0.170
 5.928 	0.226 	0.345
 5.960 	0.131 	0.672
 6.086 	0.949 	0.964
 6.278 	1.523 	0.530
 6.439 	0.733 	-0.139
 6.782 	-0.288 	0.063
 6.369 	-0.469 	-0.012
 6.324 	0.670 	0.243
 6.865 	1.139 	0.440
 6.369 	2.172 	0.639
 6.466 	0.595 	-0.149
 5.768 	1.770 	0.026
 6.412 	0.077 	0.633
 5.810 	0.257 	1.041
 6.524 	0.676 	0.361
 5.527 	0.759 	0.623
 6.282 	0.072 	0.439
 6.443 	0.564 	0.156
 6.194 	0.677 	-0.084
 6.454 	0.857 	-0.233
 6.867 	0.154 	-0.792
 6.855 	0.269 	-0.405
 6.246 	0.424 	0.731
 6.168 	0.447 	0.157
 6.331 	0.719 	0.971
 6.390 	1.872 	0.678
 6.962 	0.823 	0.164
 6.440 	1.365 	0.185
 6.048 	0.933 	0.260
 6.311 	0.468 	0.527
 6.309 	1.113 	-0.368
 5.747 	0.559 	0.339
 5.507 	-0.158 	0.662
 6.890 	0.624 	0.148
 7.353 	1.025 	-0.947
 6.872 	0.846 	-0.653
 6.753 	0.075 	-0.236
 6.992 	0.407 	0.061
 7.132 	0.858 	0.118
 6.599 	-0.137 	0.562
 5.392 	-0.090 	0.585
 5.937 	1.267 	0.292
 5.905 	1.133 	0.602
 5.767 	0.743 	0.185
 5.231 	0.739 	0.334
 4.815 	0.298 	1.285
 5.627 	0.647 	0.745
 5.692 	1.151 	0.845
 5.593 	0.635 	0.436
 5.624 	-0.098 	0.510
 6.619 	0.583 	0.179
 6.551 	1.302 	-0.229
 6.449 	0.519 	0.205
 5.146 	0.121 	0.486
 4.516 	0.264 	0.859
 4.618 	-0.584 	0.525
 3.669 	0.431 	0.726
 4.433 	-0.119 	0.499
 5.636 	1.113 	0.188
 5.384 	0.767 	0.391
 4.969 	0.297 	0.996
 5.002 	0.270 	1.085
 4.510 	0.797 	0.279
 5.215 	0.458 	0.493
 5.419 	0.728 	0.288
 5.521 	0.127 	0.716
 5.308 	-0.134 	0.392
 5.688 	1.445 	-0.279
 4.857 	0.957 	0.658
 4.267 	0.077 	0.479
 4.810 	-0.162 	0.744
 4.950 	0.230 	0.821
 5.184 	-0.170 	0.403
 4.806 	-0.263 	0.303
 4.384 	0.083 	0.353
 5.006 	-0.201 	0.606
 4.838 	-0.181 	0.470
 5.209 	-0.005 	0.184
 5.664 	0.208 	0.054
 5.823 	0.507 	-0.107
 5.891 	0.064 	0.276
 5.664 	0.377 	0.992
 5.834 	0.380 	-0.017
 5.820 	1.256 	0.256
 5.957 	1.186 	0.486
 5.754 	0.229 	0.343
 5.322 	-0.311 	0.558
 5.322 	0.086 	0.117
 5.389 	-0.776 	0.420
 5.547 	-0.453 	0.012
 5.556 	-0.011 	-0.520
 5.502 	0.164 	0.424
 5.994 	0.160 	0.235
 5.874 	-0.129 	-0.133
 6.235 	-0.416 	-0.047
 5.800 	0.216 	-0.107
 6.442 	0.120 	-0.026
 5.757 	0.339 	0.287
 5.188 	-0.360 	-0.178
 5.654 	-0.304 	-0.173
 6.182 	0.204 	-0.012
 5.712 	-0.067 	-0.188
 5.805 	0.129 	0.276
 5.066 	0.043 	0.604
 5.563 	-0.274 	0.092
 5.565 	-0.226 	0.074
 5.274 	-0.183 	-0.241
 5.336 	0.408 	-0.185
 5.594 	-0.431 	0.124
 6.431 	0.276 	0.039
 5.607 	-0.260 	-0.008
 4.845 	-0.640 	0.172
 6.152 	0.555 	0.169
 5.184 	0.347 	0.383
 5.296 	-0.914 	-0.039
 5.274 	-0.528 	0.230
 5.491 	0.087 	-0.319
 5.696 	0.184 	-0.470
 5.526 	0.295 	0.355
 5.591 	-0.028 	0.082
 5.621 	0.036 	-0.309
 5.392 	0.212 	0.119
 5.130 	-0.177 	-0.095
 5.447 	-0.085 	-0.087
 4.441 	0.425 	0.457
 4.087 	0.139 	1.115
 4.659 	-0.242 	0.591
 4.987 	-1.092 	0.814
 4.400 	-0.717 	0.757
 4.847 	-0.960 	-0.085
 4.476 	-1.164 	-0.056
 4.335 	-0.996 	0.399
 4.410 	-0.461 	0.370
 4.341 	-0.285 	0.571
 5.134 	0.352 	0.194
 5.494 	0.282 	-0.190
 5.498 	0.482 	-0.344
 5.007 	-0.186 	-0.058
 4.810 	0.230 	0.093
 4.708 	0.266 	0.621
 5.475 	0.705 	0.289
 5.172 	-0.076 	0.522
 5.305 	-0.561 	-0.029
 5.855 	-0.934 	0.232
 5.198 	-0.731 	0.801
 5.884 	-1.177 	-0.202
 6.037 	-0.867 	0.030
 5.584 	-0.462 	-0.490
 4.259 	-0.870 	0.453
 3.774 	-0.787 	0.186
 4.219 	-0.829 	0.205
 4.777 	-1.170 	-0.412
 4.999 	0.160 	-0.786
 4.974 	0.133 	-0.438
 5.228 	0.564 	-0.216
 4.741 	0.412 	-0.203
 5.685 	0.941 	0.132
 5.776 	0.291 	0.080
 6.064 	-0.556 	0.179
 5.870 	-0.525 	0.158
 6.216 	-0.657 	0.196
 5.521 	-0.661 	0.155
 5.280 	-0.817 	-0.314
 5.133 	-0.713 	-0.340
 4.375 	-0.095 	0.594
 3.335 	-0.873 	0.580
 3.611 	-0.811 	0.098
 4.681 	-0.720 	0.093
 4.595 	-0.064 	0.064
 4.603 	0.046 	-0.888
 4.977 	0.792 	-0.123
 5.157 	0.278 	-0.346
 4.935 	-0.258 	-0.201
 5.758 	-0.731 	-0.859
 5.947 	-0.594 	-0.513
 5.949 	-0.506 	-0.288
 5.680 	-0.105 	0.336
 5.379 	-0.084 	0.070
 4.518 	-0.180 	0.462
 4.687 	-0.694 	0.275
 4.663 	0.089 	0.325
 4.535 	-0.972 	-0.032
 3.573 	-0.311 	0.410
 3.647 	-0.293 	0.802
 3.804 	-0.042 	0.652
 4.505 	-0.326 	-0.050
 4.751 	0.436 	-0.555
 4.853 	0.399 	-0.547
 5.483 	-0.752 	-0.557
 5.678 	-1.293 	-0.186
 6.093 	-0.581 	-0.425
 5.931 	-0.586 	-0.443
 6.118 	-0.300 	-1.101
 6.432 	0.418 	-0.227
 6.539 	0.400 	-0.159
 5.808 	0.024 	0.196
 4.650 	-0.308 	0.715
 4.314 	-0.850 	0.042
 4.004 	-0.233 	0.606
 3.963 	-0.128 	0.706
 4.695 	-0.366 	0.145
 4.877 	-0.008 	0.290
 5.195 	0.638 	-0.121
 5.398 	0.174 	-0.717
 5.090 	-1.256 	0.052
 5.166 	-0.963 	-0.114
 5.219 	-0.452 	0.260
 4.903 	-0.578 	-0.346
 5.282 	-0.020 	0.176
 5.529 	0.462 	0.708
 5.970 	0.444 	0.068
 5.857 	0.619 	0.172
 6.037 	0.140 	0.331
 4.971 	-0.299 	0.000
 4.145 	-0.017 	0.476
 3.999 	0.009 	0.563
 4.272 	-0.273 	0.635
 4.397 	-0.190 	0.319
 4.744 	-0.059 	0.200
 4.810 	0.163 	0.262
 5.083 	-1.472 	0.532
 4.784 	-1.088 	0.216
 5.026 	-0.390 	0.406
 5.030 	-0.263 	0.299
 4.892 	0.137 	0.555
 4.981 	-0.104 	0.527
 5.030 	0.101 	0.308
 4.950 	-0.110 	0.159
 5.441 	0.195 	-0.011
 4.782 	0.244 	-0.245
 4.157 	-0.013 	0.115
 4.532 	-0.092 	-0.124
 4.507 	-0.425 	0.027
 3.925 	-0.412 	0.204
 3.985 	-0.526 	0.333
 4.325 	0.014 	0.819
 4.958 	-1.205 	0.479
 4.532 	-0.568 	0.524
 4.160 	-0.248 	0.317
 4.521 	-0.097 	0.499
 4.588 	0.200 	0.976
 4.567 	-0.100 	0.719
 4.204 	-0.014 	0.419
 4.460 	-0.447 	0.259
 4.593 	-0.075 	-0.170
 4.737 	0.477 	0.004
 4.377 	0.153 	0.432
 4.866 	0.077 	0.108
 4.103 	-0.345 	0.310
 4.264 	0.450 	0.154
 3.817 	-0.126 	0.054
 3.709 	-0.043 	0.218
 7.039 	-0.704 	0.020
 6.830 	-0.373 	1.076
 6.967 	-0.128 	0.096
 5.668 	0.116 	0.727
 5.301 	0.503 	0.839
 5.930 	0.436 	0.286
 5.915 	0.993 	0.433
 5.955 	1.504 	0.571
 6.825 	0.328 	-0.240
 7.747 	0.030 	-0.427
 7.468 	0.298 	-0.219
 7.224 	-0.291 	0.010
 7.342 	0.752 	0.425
 7.681 	0.654 	-0.158
 7.749 	1.586 	0.552
 7.581 	0.859 	0.023
 5.865 	-0.486 	0.099
 6.370 	-0.410 	0.643
 6.466 	0.429 	0.103
 6.675 	0.791 	0.277
 6.881 	0.415 	0.161
 6.356 	0.692 	0.221
 6.937 	0.652 	-0.276
 7.432 	0.944 	-0.094
 6.964 	0.387 	-0.442
 5.841 	-0.426 	0.423
 5.743 	0.121 	-0.202
 6.777 	-0.163 	0.345
 7.045 	0.523 	1.089
 6.740 	1.408 	0.762
 7.234 	0.994 	0.130
 6.902 	0.829 	0.567
 5.810 	-0.583 	-0.130
 6.426 	-0.312 	-0.322
 6.665 	0.412 	-0.008
 6.959 	0.888 	0.277
 6.714 	0.728 	-0.328
 6.993 	0.398 	-0.647
 6.683 	0.335 	-0.912
 6.927 	0.587 	-0.813
 7.383 	0.662 	-0.706
 6.006 	-0.336 	0.613
 5.993 	0.409 	0.825
 5.282 	-0.585 	0.952
 5.536 	0.294 	0.650
 6.549 	1.292 	0.818
 6.466 	0.922 	0.560
 5.651 	0.227 	0.371
 5.521 	-0.820 	-0.253
 5.611 	-0.042 	0.926
 5.798 	0.544 	0.460
 5.548 	-0.278 	0.803
 6.622 	0.942 	0.836
 7.254 	0.753 	0.440
 7.463 	0.804 	0.469
 6.533 	0.732 	0.221
 5.608 	0.380 	1.318
 5.224 	0.043 	0.633
 4.640 	0.416 	0.546
 4.471 	-0.041 	0.762
 3.917 	-0.001 	0.940
 4.576 	0.238 	0.897
 5.028 	0.181 	0.216
 5.714 	0.940 	0.369
 5.783 	0.263 	0.355
 5.326 	1.158 	0.748
 5.696 	0.958 	-0.040
 5.728 	0.518 	-0.315
 6.010 	0.441 	0.662
 6.405 	0.207 	0.733
 6.560 	0.569 	1.162
 7.029 	1.380 	0.158
 6.261 	0.939 	0.893
 5.380 	0.431 	0.831
 4.850 	0.027 	0.972
 4.927 	0.563 	0.398
 4.847 	0.153 	0.787
 4.943 	-0.274 	0.619
 4.358 	-0.429 	1.053
 4.416 	0.534 	1.113
 5.069 	1.631 	0.854
 5.055 	1.375 	0.169
 5.472 	0.015 	0.240
 6.172 	-0.013 	-0.437
 6.426 	0.195 	-0.005
 6.526 	0.183 	0.347
 6.557 	0.019 	-0.097
 6.027 	1.361 	0.633
 5.743 	0.467 	1.178
 5.602 	0.143 	0.897
 5.509 	-0.148 	0.680
 5.636 	0.092 	0.508
 5.752 	-0.197 	0.338
 6.018 	-0.295 	0.209
 5.350 	-0.472 	0.163
 5.465 	0.109 	0.423
 5.021 	0.696 	0.251
 5.979 	0.456 	0.159
 6.188 	0.078 	0.528
 6.471 	-0.046 	0.507
 5.859 	0.207 	0.178
 6.034 	0.414 	0.651
 5.490 	0.324 	0.824
 5.886 	1.068 	0.336
 6.522 	0.583 	0.207
 6.480 	0.309 	-0.261
 6.354 	-0.277 	0.110
 6.285 	0.019 	0.570
 6.332 	0.044 	-0.199
 6.263 	-0.231 	0.009
 5.632 	-0.308 	-0.204
 5.774 	-0.130 	-0.141
 5.983 	0.545 	-0.373
 6.412 	-0.103 	-0.325
 6.512 	0.301 	0.092
 5.115 	-0.495 	1.356
 4.295 	-1.294 	0.873
 5.562 	0.354 	1.023
 5.216 	0.251 	0.496
 5.626 	-0.419 	0.306
 6.365 	-0.366 	-0.561
 6.230 	-0.287 	-0.142
 6.083 	0.053 	0.295
 6.092 	0.172 	0.185
 6.095 	-0.020 	-0.283
 5.869 	0.138 	0.309
 5.564 	-0.157 	0.055
 5.568 	-0.256 	-0.095
 4.809 	-0.246 	0.823
 4.435 	0.119 	1.064
 3.816 	0.178 	1.337
 4.375 	-0.738 	0.425
 5.138 	-0.785 	0.337
 4.945 	-0.308 	-0.147
 5.067 	-0.153 	-0.037
 5.008 	-1.265 	0.504
 5.043 	-1.105 	0.813
 5.866 	-0.046 	0.243
 5.720 	0.108 	-0.073
 5.255 	0.008 	-0.169
 5.224 	0.004 	-0.421
 5.579 	0.108 	0.203
 5.198 	-0.001 	0.138
 4.812 	0.146 	0.294
 5.722 	0.392 	-0.019
 5.219 	0.884 	0.676
 4.830 	0.350 	0.036
 4.825 	-0.031 	-0.167
 5.270 	-0.052 	-0.374
 5.336 	-0.331 	-0.169
 5.615 	-0.730 	0.158
 5.854 	-0.723 	-0.420
 4.886 	-0.920 	0.570
 4.702 	-0.275 	0.230
 4.699 	0.086 	0.148
 5.030 	0.081 	0.067
 5.038 	-0.049 	0.136
 5.254 	-0.437 	-0.227
 5.330 	0.480 	0.053
 5.824 	0.369 	-0.375
 5.730 	0.732 	0.396
 5.748 	0.618 	0.241
 5.510 	0.311 	0.129
 5.846 	0.019 	-0.160
 6.364 	-0.116 	0.075
 6.410 	-0.433 	-0.425
 6.014 	-0.368 	0.174
 5.453 	-0.107 	0.502
 4.869 	-0.708 	0.859
 4.638 	-0.280 	0.454
 5.062 	-0.564 	-0.014
 5.551 	-0.174 	-0.591
 5.763 	-0.476 	-0.416
 5.172 	-0.356 	-0.213
 5.569 	-0.287 	-0.249
 5.483 	0.329 	-0.077
 5.390 	0.652 	-0.290
 5.862 	0.386 	0.027
 6.308 	0.348 	-0.186
 6.225 	0.015 	-0.198
 6.509 	0.071 	0.221
 6.411 	-0.332 	-0.308
 5.818 	0.017 	0.319
 5.749 	0.361 	0.231
 6.102 	-0.059 	0.694
 4.951 	-0.385 	0.588
 4.586 	-0.543 	0.820
 4.969 	-0.508 	0.315
 5.957 	0.126 	-0.002
 5.769 	-0.674 	-0.629
 5.763 	-0.552 	-0.135
 5.670 	-0.181 	-0.659
 5.830 	0.217 	0.000
 5.848 	-0.176 	0.209
 6.261 	-0.218 	-0.309
 6.185 	-0.843 	-0.773
 5.760 	-0.783 	-0.461
 5.501 	-0.192 	-0.516
 5.864 	0.238 	0.178
 6.304 	0.293 	-0.331
 6.008 	-0.094 	0.509
 5.693 	-0.041 	0.550
 5.812 	-0.525 	0.447
 5.965 	-0.485 	0.168
 6.025 	-0.824 	-0.187
 5.357 	-0.432 	-0.047
 5.544 	-0.119 	-0.133
 5.834 	-0.467 	-0.461
 5.320 	-0.730 	0.343
 5.538 	-0.766 	-0.144
 5.529 	-0.933 	0.038
 5.087 	-0.512 	0.012
 4.980 	-0.336 	-0.174
 5.105 	-0.213 	0.016
 5.276 	-0.167 	-0.014
 5.878 	0.312 	-0.054
 6.151 	0.207 	0.618
 6.554 	0.117 	0.553
 5.755 	-0.301 	0.188
 5.726 	-0.548 	0.102
 4.964 	-0.314 	0.432
 4.808 	0.109 	0.428
 5.319 	-0.340 	0.135
 5.446 	-0.422 	0.232
 5.668 	-1.090 	0.437
 5.221 	-0.747 	0.172
 4.977 	-0.533 	0.168
 4.636 	-0.629 	0.311
 4.644 	-0.353 	0.712
 4.545 	0.005 	0.873
 5.331 	-0.702 	0.455
 5.475 	0.251 	0.395
 5.751 	0.227 	0.281
 6.102 	0.379 	0.126
 6.328 	0.362 	-0.171
 5.571 	0.144 	0.118
 4.560 	-0.099 	0.701
 4.674 	-0.558 	0.123
 4.809 	-0.909 	0.458
 4.687 	-0.128 	0.555
 5.260 	-0.661 	0.760
 5.060 	-0.493 	0.182
 4.598 	-0.510 	0.525
 4.363 	-0.156 	0.587
 4.528 	-0.312 	0.539
 4.490 	0.175 	0.262
 4.395 	-0.158 	0.316
 4.458 	-0.408 	0.078
 4.766 	-0.276 	-0.220
 4.641 	-0.206 	-0.085
 4.790 	0.134 	0.161
 5.206 	0.279 	0.107
 5.315 	0.038 	0.082
 4.858 	-0.275 	0.273
 4.687 	-0.585 	0.158
 4.291 	-0.223 	0.739
 7.298 	-0.347 	0.315
 6.900 	-0.691 	0.451
 6.833 	0.050 	0.567
 6.947 	-0.239 	0.243
 6.917 	0.005 	0.177
 6.525 	-0.196 	-0.057
 7.055 	0.093 	0.520
 7.144 	0.499 	0.063
 7.203 	0.420 	-0.007
 7.478 	-0.745 	-0.603
 8.331 	0.095 	-0.348
 8.021 	0.211 	0.189
 8.279 	0.564 	0.246
 8.867 	1.093 	0.383
 7.608 	0.633 	0.673
 7.626 	0.971 	0.699
 7.520 	0.038 	0.476
 6.967 	-0.526 	0.191
 6.772 	0.015 	0.034
 6.958 	-0.022 	0.200
 6.818 	0.464 	0.157
 6.876 	-0.069 	-0.107
 6.376 	-0.485 	0.196
 6.695 	0.069 	-0.070
 6.795 	0.203 	-0.171
 7.520 	-0.311 	0.332
 6.412 	0.209 	0.446
 6.560 	-0.016 	1.203
 6.438 	0.618 	1.322
 5.888 	0.576 	0.740
 6.182 	0.524 	0.597
 6.301 	0.991 	0.557
 5.963 	-0.424 	-0.118
 5.956 	-0.727 	0.071
 6.312 	0.234 	-0.161
 6.591 	0.407 	0.187
 6.839 	0.618 	-0.012
 6.738 	0.102 	-0.554
 6.518 	-0.332 	-0.590
 6.421 	-0.468 	-0.563
 6.214 	0.516 	0.002
 5.442 	0.261 	1.162
 5.008 	-0.574 	1.050
 5.978 	0.331 	1.181
 5.489 	0.188 	0.680
 5.615 	0.260 	0.850
 5.602 	0.216 	0.884
 5.910 	0.821 	0.924
 6.844 	-0.929 	-0.514
 5.935 	-0.673 	0.177
 5.602 	0.231 	0.296
 6.609 	-0.258 	0.032
 6.698 	0.104 	0.876
 7.148 	0.018 	0.522
 6.175 	-0.392 	0.153
 6.957 	-0.193 	-0.058
 6.219 	0.646 	0.448
 6.016 	0.292 	1.850
 5.692 	0.196 	0.865
 4.681 	0.256 	0.772
 4.586 	0.012 	1.010
 4.888 	-0.345 	0.911
 5.463 	-0.083 	0.342
 5.698 	0.563 	0.569
 7.005 	-0.245 	-0.615
 5.327 	0.102 	0.607
 5.844 	-0.001 	-0.025
 6.400 	-0.205 	-0.007
 6.275 	-0.027 	0.217
 6.450 	0.112 	0.771
 7.373 	0.013 	0.614
 5.919 	0.611 	0.075
 6.500 	0.916 	1.632
 5.176 	0.860 	1.290
 5.370 	0.036 	1.106
 5.308 	0.398 	0.454
 4.675 	0.125 	0.727
 4.501 	0.152 	0.732
 4.840 	-0.262 	1.007
 5.504 	-0.505 	0.849
 5.748 	-0.294 	0.803
 5.511 	0.057 	0.977
 5.754 	0.010 	0.073
 6.278 	-0.625 	-0.268
 6.169 	0.090 	0.162
 5.910 	0.094 	0.153
 6.279 	0.066 	0.071
 5.714 	0.958 	1.026
 5.861 	1.358 	1.856
 6.172 	1.063 	0.761
 6.156 	0.057 	0.771
 6.024 	0.166 	1.193
 5.906 	-0.365 	0.502
 6.284 	-0.245 	0.048
 6.203 	-0.189 	0.018
 5.899 	-0.354 	0.239
 5.926 	-0.385 	0.376
 6.161 	-0.017 	-0.082
 6.106 	-0.478 	0.279
 5.965 	-0.230 	0.617
 6.335 	-0.181 	-0.052
 6.091 	0.053 	0.250
 5.274 	0.265 	0.958
 5.308 	0.237 	0.778
 6.296 	0.812 	0.315
 7.107 	0.266 	0.323
 6.975 	0.148 	0.320
 6.890 	0.009 	0.236
 6.776 	0.141 	0.103
 6.267 	-0.545 	0.029
 6.228 	-0.132 	0.091
 6.243 	-0.456 	-0.117
 5.777 	-0.485 	0.034
 5.718 	-0.505 	-0.207
 5.639 	-0.408 	0.996
 5.412 	0.078 	1.795
 5.467 	0.971 	1.085
 5.275 	0.556 	1.169
 5.249 	0.521 	0.889
 5.911 	-0.589 	0.487
 6.096 	-0.979 	-0.025
 6.027 	-0.403 	0.648
 6.268 	0.003 	0.470
 6.296 	0.276 	0.125
 6.379 	-0.150 	-0.042
 5.889 	-0.280 	0.080
 6.004 	-0.900 	0.433
 6.174 	-0.952 	-0.487
 5.675 	-0.521 	0.195
 6.081 	-0.439 	0.973
 5.544 	0.260 	0.842
 5.263 	0.376 	0.363
 5.137 	0.422 	0.143
 5.336 	0.117 	-0.001
 5.411 	0.412 	-0.142
 5.234 	-0.854 	0.540
 5.700 	-1.433 	0.275
 6.174 	-0.767 	-0.068
 5.947 	-0.022 	0.145
 5.793 	0.264 	-0.055
 5.841 	0.155 	-0.095
 6.011 	-0.363 	0.425
 6.225 	-0.789 	-0.009
 6.885 	-0.622 	-0.708
 6.043 	-0.336 	-0.156
 5.848 	-0.137 	0.354
 6.005 	0.542 	0.632
 5.512 	0.516 	0.157
 5.747 	-0.189 	-0.541
 5.298 	0.323 	-0.177
 5.529 	-0.155 	-0.045
 6.361 	-0.752 	-0.286
 5.872 	-0.700 	0.152
 4.964 	-0.568 	0.753
 5.096 	-0.012 	0.170
 5.282 	0.212 	-0.089
 5.463 	-0.212 	-0.172
 5.884 	-0.633 	-0.173
 6.432 	-0.585 	-0.570
 6.842 	-0.423 	-0.775
 5.918 	-0.111 	0.107
 5.607 	0.413 	0.033
 6.084 	0.264 	0.148
 6.648 	-0.241 	-0.579
 6.800 	-0.204 	0.007
 6.169 	0.012 	0.153
 6.449 	-0.395 	0.138
 6.055 	-0.388 	0.291
 5.906 	-0.469 	1.016
 6.302 	-0.424 	0.861
 5.825 	-0.199 	0.227
 5.761 	-0.151 	-0.190
 5.981 	-0.154 	-0.329
 6.070 	-0.379 	-0.446
 5.689 	-0.545 	0.048
 6.096 	-0.142 	-0.511
 6.593 	0.153 	0.038
 6.428 	0.271 	-0.007
 6.190 	-0.473 	0.137
 6.408 	-0.407 	-0.173
 6.154 	-0.392 	-0.028
 6.552 	-0.151 	-0.172
 6.762 	-0.389 	-0.012
 5.980 	-0.003 	0.256
 5.953 	0.163 	0.755
 6.044 	-0.431 	0.749
 6.095 	-0.084 	0.212
 5.806 	-0.881 	0.393
 6.296 	-0.466 	0.048
 6.327 	-0.192 	-0.372
 6.129 	-0.318 	-0.337
 5.833 	0.121 	0.126
 5.785 	0.151 	0.093
 5.848 	0.593 	0.292
 5.768 	-1.162 	0.443
 6.227 	-0.074 	0.253
 5.799 	-0.585 	0.310
 5.810 	-0.486 	-0.089
 5.932 	-0.206 	0.029
 6.611 	0.065 	-0.425
 6.431 	0.554 	0.156
 6.222 	-0.052 	0.686
 6.714 	-0.411 	0.595
 6.279 	-0.788 	0.141
 6.044 	-0.399 	0.063
 6.052 	-0.445 	-0.473
 5.943 	-0.378 	0.172
 5.559 	-0.446 	-0.141
 5.484 	0.019 	0.656
 5.705 	0.456 	0.150
 6.201 	-0.963 	-0.396
 5.991 	-0.618 	-0.063
 6.027 	-0.052 	-0.312
 5.306 	-1.063 	0.081
 5.763 	-1.291 	0.310
 5.807 	-0.347 	-0.379
 5.893 	0.779 	0.018
 6.048 	0.211 	0.665
 6.302 	-0.306 	0.070
 5.412 	-0.381 	0.154
 5.170 	-0.313 	0.219
 5.025 	-0.405 	0.510
 5.064 	-0.903 	0.308
 5.326 	-0.768 	0.032
 5.171 	0.156 	0.413
 5.465 	0.322 	0.060
 5.480 	-0.802 	0.928
 4.925 	-0.276 	0.062
 4.761 	-0.092 	0.923
 5.530 	-0.418 	-0.172
 5.556 	-0.608 	-0.759
 5.480 	-0.472 	0.450
 5.609 	0.586 	0.175
 5.367 	0.094 	0.077
 5.278 	0.054 	0.351
 5.000 	0.091 	0.305
 4.584 	-0.463 	0.783
 4.887 	-0.501 	0.474
 4.925 	-0.773 	0.204
 5.125 	-0.673 	0.155
 5.418 	0.030 	0.276
 6.065 	0.296 	0.198
 5.652 	-0.802 	0.858
 5.850 	-1.217 	1.264
 5.902 	0.032 	0.616
 5.114 	-0.325 	0.188
 5.228 	0.255 	-0.233
 5.494 	-1.069 	-0.196
 5.817 	-0.067 	0.075
 6.124 	0.363 	0.535
 5.344 	-0.528 	0.290
 5.295 	-0.028 	0.048
 5.410 	-0.309 	0.073
 5.385 	-0.373 	0.204
 4.736 	-0.548 	0.211
 4.721 	-0.413 	1.015
 7.074 	-0.417 	0.536
 7.300 	-0.915 	0.649
 7.118 	-0.416 	0.498
 6.775 	-0.525 	0.421
 6.526 	-0.222 	0.682
 6.801 	-0.416 	-0.386
 7.143 	-0.128 	0.766
 7.244 	0.354 	0.260
 7.306 	-0.476 	0.143
 7.219 	-1.009 	-0.450
 8.275 	0.635 	-0.682
 7.999 	0.639 	0.635
 8.375 	0.806 	0.184
 8.181 	0.445 	0.957
 7.895 	0.449 	0.648
 8.015 	0.756 	1.015
 6.488 	-0.790 	0.402
 6.376 	-0.699 	0.300
 6.542 	-0.196 	0.128
 6.607 	-0.542 	0.117
 6.363 	-0.070 	-0.121
 6.316 	-0.499 	-0.228
 6.261 	0.645 	-0.233
 6.760 	0.164 	0.303
 6.608 	-0.123 	-0.293
 7.337 	-0.766 	-0.028
 7.539 	0.312 	0.228
 7.136 	0.062 	1.448
 6.507 	-0.087 	1.402
 7.015 	0.795 	1.235
 6.657 	0.591 	0.725
 6.441 	0.649 	0.616
 6.378 	-0.873 	0.007
 6.290 	-0.656 	0.182
 6.572 	-0.688 	-0.416
 6.685 	-0.677 	0.127
 6.581 	-0.518 	0.142
 6.768 	0.045 	-0.386
 6.399 	0.260 	0.151
 6.546 	-0.498 	-0.286
 6.405 	-0.079 	-0.698
 6.839 	-0.224 	0.807
 6.563 	0.009 	1.237
 5.878 	0.144 	1.113
 5.648 	-0.063 	1.388
 5.998 	0.829 	1.079
 5.887 	0.750 	0.737
 6.111 	0.036 	0.963
 6.202 	-0.928 	0.354
 6.184 	-0.598 	0.128
 6.193 	-0.923 	-0.380
 5.973 	-0.576 	0.049
 6.277 	-1.141 	0.952
 6.578 	-0.245 	0.350
 6.718 	-0.025 	-0.096
 6.397 	-0.085 	0.313
 5.955 	0.736 	1.197
 6.293 	1.019 	1.034
 5.462 	0.336 	1.524
 5.606 	-0.411 	1.134
 5.610 	-0.504 	0.726
 5.506 	0.465 	0.725
 6.310 	0.787 	0.467
 6.285 	-0.018 	0.717
 6.434 	-0.896 	0.014
 6.617 	-0.108 	0.033
 5.940 	-0.859 	-0.261
 5.925 	-0.497 	0.084
 5.799 	-0.909 	-0.043
 6.156 	-0.510 	-0.011
 6.445 	-0.263 	0.557
 6.649 	0.275 	0.778
 5.660 	0.873 	1.202
 5.356 	0.731 	1.405
 6.139 	-0.100 	0.767
 6.163 	-0.019 	0.741
 5.940 	-0.288 	0.711
 6.140 	-0.329 	0.533
 6.011 	0.931 	0.779
 6.429 	1.009 	0.528
 5.932 	-0.635 	1.298
 6.366 	-0.516 	0.519
 6.852 	0.156 	0.527
 6.298 	-0.250 	-0.096