# vtk DataFile Version 3.0
HighT1
ASCII
DATASET STRUCTURED_POINTS
DIMENSIONS 16 16 19
ORIGIN 929.001000000000 929.001000000000 5.001000000000
SPACING 10.000000000000 10.000000000000 10.000000000000
POINT_DATA 4864
 FIELD attributes 1
U 3 4864 float
4.280 	0.150 	-0.965
 4.293 	0.104 	0.241
 4.342 	0.425 	-0.108
 5.363 	1.092 	0.206
 5.168 	1.223 	-0.098
 5.253 	1.024 	0.365
 5.309 	1.467 	0.338
 4.096 	0.337 	0.130
 4.130 	-0.313 	0.104
 4.987 	1.250 	0.148
 3.945 	0.776 	0.104
 4.204 	0.917 	0.332
 4.258 	1.138 	0.598
 4.255 	0.327 	0.132
 3.914 	-0.347 	0.223
 4.222 	-0.292 	0.104
 3.387 	0.608 	-0.489
 3.918 	-0.139 	0.380
 3.579 	0.578 	0.232
 2.467 	-0.114 	0.621
 2.857 	-0.048 	0.137
 3.068 	-0.000 	0.322
 4.082 	-0.278 	0.323
 4.256 	-0.465 	-0.019
 4.041 	-0.326 	-0.544
 4.175 	0.815 	-0.016
 4.767 	1.110 	0.009
 4.615 	1.463 	-0.429
 5.309 	1.085 	-0.075
 5.021 	0.888 	-0.367
 4.958 	-0.723 	0.021
 5.437 	0.182 	-0.318
 4.272 	1.176 	-0.480
 4.308 	0.391 	0.010
 4.202 	0.018 	0.002
 4.251 	0.163 	-0.250
 3.483 	0.065 	0.215
 2.972 	0.368 	0.281
 2.462 	0.075 	0.205
 2.326 	-0.213 	0.404
 2.894 	0.456 	0.145
 3.221 	0.896 	-0.154
 4.119 	1.629 	0.065
 4.223 	1.307 	0.104
 4.589 	1.081 	-0.305
 5.177 	0.813 	-0.098
 3.951 	0.029 	0.306
 3.177 	0.004 	0.121
 4.126 	0.234 	-0.196
 3.801 	0.683 	-0.031
 3.742 	-0.129 	-0.119
 3.870 	-0.206 	-0.179
 3.816 	0.866 	-0.274
 4.119 	-0.176 	0.005
 3.804 	0.294 	-0.242
 3.039 	-0.366 	-0.114
 3.327 	0.207 	0.249
 3.044 	0.255 	-0.122
 2.899 	0.217 	0.210
 3.472 	0.885 	-0.209
 2.791 	0.633 	0.548
 2.556 	0.127 	0.469
 2.907 	-0.668 	0.385
 3.395 	-0.428 	-0.124
 3.390 	-0.064 	0.399
 3.660 	0.722 	0.014
 4.288 	-0.569 	-0.345
 3.762 	-0.352 	0.188
 2.998 	-0.011 	0.365
 3.238 	0.006 	0.172
 3.029 	0.241 	-0.082
 3.166 	-0.289 	0.002
 2.959 	-0.060 	0.029
 2.851 	0.116 	0.116
 3.403 	-0.075 	0.024
 2.950 	0.541 	0.188
 3.150 	-0.138 	0.143
 3.106 	-0.224 	-0.156
 2.960 	-0.584 	-0.266
 3.048 	0.439 	-0.016
 4.498 	-0.321 	-0.144
 4.913 	-0.026 	-0.055
 4.652 	-0.194 	-0.438
 4.019 	0.200 	0.136
 3.994 	0.336 	-0.054
 3.667 	-0.561 	0.139
 3.615 	-0.202 	0.216
 3.711 	0.340 	-0.050
 3.998 	0.027 	0.079
 3.471 	-0.464 	0.176
 3.173 	-0.843 	0.099
 3.669 	0.459 	-0.065
 3.585 	-0.147 	0.102
 3.711 	0.221 	-0.149
 3.334 	-0.229 	-0.129
 2.985 	-0.076 	0.325
 4.316 	0.221 	0.017
 4.230 	-0.225 	0.037
 4.472 	-0.554 	-0.069
 4.894 	0.057 	-0.037
 5.107 	0.402 	-0.250
 4.749 	0.192 	-0.000
 4.844 	-0.559 	-0.257
 4.845 	0.051 	-0.225
 4.706 	0.450 	-0.050
 4.397 	-0.015 	0.041
 2.811 	-0.654 	0.539
 3.489 	0.166 	0.065
 3.835 	0.237 	-0.242
 3.517 	-0.104 	0.150
 3.789 	0.296 	-0.073
 4.479 	0.289 	-0.204
 3.706 	-0.431 	-0.245
 4.359 	-0.162 	-0.433
 4.577 	0.255 	-0.070
 4.632 	0.205 	-0.272
 4.914 	0.795 	-0.166
 4.613 	0.427 	-0.147
 3.349 	-0.571 	0.280
 3.722 	-0.473 	-0.371
 5.089 	0.718 	-0.614
 5.041 	0.485 	-0.477
 4.765 	0.568 	-0.052
 3.373 	0.290 	0.209
 3.485 	0.581 	-0.407
 3.863 	-0.327 	-0.350
 3.889 	-0.276 	-0.359
 4.127 	-0.064 	-0.290
 2.433 	-0.296 	0.114
 3.028 	-0.328 	0.557
 3.740 	0.393 	-0.044
 3.947 	0.380 	0.350
 4.506 	0.712 	0.149
 4.215 	1.010 	0.307
 4.165 	0.396 	-0.357
 3.947 	-0.081 	0.537
 2.729 	0.174 	0.791
 3.387 	1.318 	0.063
 3.754 	1.059 	0.006
 4.065 	0.563 	-0.152
 4.392 	0.658 	-0.331
 4.637 	0.141 	-0.358
 4.066 	-0.315 	-0.056
 3.777 	-0.271 	0.075
 3.417 	-0.582 	-0.067
 3.707 	-0.582 	0.185
 3.475 	-0.069 	-0.005
 3.700 	-0.047 	0.273
 4.032 	0.172 	0.102
 4.079 	0.241 	-0.193
 4.141 	0.131 	0.141
 3.915 	0.004 	-0.067
 4.505 	0.606 	-0.318
 3.387 	0.533 	0.296
 3.999 	0.968 	-0.018
 4.465 	1.139 	-0.477
 4.326 	0.579 	-0.053
 4.412 	0.887 	0.058
 3.547 	0.061 	0.151
 3.046 	-0.185 	0.355
 4.962 	-0.458 	-0.246
 4.389 	-0.383 	0.161
 3.583 	-0.426 	-0.002
 4.031 	-0.196 	-0.569
 3.553 	-0.297 	0.355
 3.568 	-0.371 	0.072
 3.484 	-0.308 	0.126
 3.975 	0.302 	-0.252
 4.167 	0.787 	-0.114
 4.716 	0.767 	-0.119
 4.375 	0.147 	-0.004
 4.050 	0.987 	0.252
 4.060 	0.968 	-0.170
 4.209 	0.529 	0.013
 4.347 	0.602 	-0.012
 3.837 	0.371 	0.142
 4.306 	0.275 	-0.100
 3.900 	-0.226 	0.447
 4.612 	0.443 	-0.686
 3.286 	-0.139 	0.167
 3.342 	0.081 	0.076
 2.554 	-0.788 	0.387
 3.132 	-0.189 	-0.178
 3.348 	0.419 	0.028
 3.459 	0.362 	0.170
 3.200 	0.068 	0.295
 3.330 	0.020 	0.108
 3.232 	-0.038 	0.136
 3.021 	0.372 	0.144
 3.248 	0.427 	0.180
 2.905 	0.329 	0.343
 3.252 	0.219 	0.273
 2.582 	0.779 	0.325
 3.248 	0.926 	0.261
 3.528 	0.771 	0.082
 3.595 	0.491 	-0.156
 4.033 	0.154 	-0.127
 4.103 	-0.643 	-0.161
 2.485 	-0.226 	0.475
 2.676 	0.134 	0.110
 3.280 	-0.245 	-0.041
 3.041 	-0.437 	0.156
 2.662 	-0.264 	0.282
 2.734 	-0.238 	0.151
 2.663 	0.222 	0.317
 2.816 	0.718 	0.110
 3.086 	0.162 	-0.018
 3.384 	-0.272 	0.005
 3.936 	0.314 	-0.046
 3.674 	0.096 	0.340
 4.322 	0.574 	-0.001
 3.573 	-0.200 	0.156
 3.899 	0.254 	0.043
 3.608 	-0.311 	-0.268
 3.834 	0.092 	-0.216
 3.970 	0.312 	0.089
 4.249 	0.247 	-0.521
 4.183 	0.004 	0.181
 3.316 	-0.695 	-0.023
 3.501 	-0.570 	-0.199
 3.708 	-0.116 	-0.102
 3.777 	0.158 	0.012
 3.915 	0.135 	-0.237
 3.967 	-0.179 	-0.153
 3.882 	0.080 	0.169
 4.091 	-0.100 	-0.154
 4.177 	-0.225 	-0.028
 4.360 	0.242 	-0.082
 3.251 	0.414 	0.295
 3.312 	-0.280 	0.034
 3.678 	-0.417 	0.147
 3.709 	0.101 	0.060
 3.304 	0.365 	0.052
 3.853 	-0.035 	-0.037
 3.826 	-0.163 	-0.118
 3.567 	-0.014 	-0.069
 3.751 	-0.287 	-0.090
 3.459 	0.098 	0.132
 3.487 	0.178 	-0.085
 3.381 	0.258 	-0.091
 2.584 	-0.331 	0.080
 2.453 	-0.435 	0.112
 2.854 	-0.053 	-0.165
 3.533 	-0.028 	-0.051
 3.978 	0.360 	0.012
 3.649 	-0.335 	0.161
 3.395 	-0.535 	0.079
 3.142 	-0.359 	0.332
 3.697 	0.517 	-0.083
 2.888 	-0.246 	0.096
 3.017 	0.066 	0.029
 3.218 	0.081 	0.030
 2.954 	-0.028 	0.278
 2.642 	-0.264 	0.265
 3.002 	0.272 	0.129
 2.941 	0.199 	0.217
 6.123 	0.618 	-1.203
 6.582 	0.146 	-0.445
 6.732 	0.168 	-0.016
 5.484 	-0.043 	0.183
 4.576 	0.639 	1.000
 4.673 	0.936 	0.647
 5.026 	0.638 	0.619
 5.492 	0.688 	0.656
 5.647 	1.219 	0.291
 5.387 	0.263 	0.075
 5.320 	-0.155 	0.023
 6.106 	0.333 	0.069
 6.444 	1.304 	-0.368
 5.978 	1.796 	-0.025
 5.361 	0.613 	0.491
 5.009 	0.260 	0.528
 6.459 	0.730 	-0.811
 5.910 	0.278 	0.286
 5.599 	0.689 	0.544
 4.385 	1.078 	0.644
 3.930 	0.626 	0.334
 4.437 	0.069 	0.478
 5.063 	0.341 	0.327
 4.927 	0.951 	-0.068
 5.415 	0.300 	-0.043
 6.255 	-0.470 	-0.503
 5.124 	-0.221 	0.064
 5.186 	0.502 	0.165
 4.878 	0.670 	0.449
 5.683 	1.439 	0.543
 5.709 	0.535 	0.486
 6.220 	0.691 	0.089
 5.178 	-0.064 	-0.197
 5.385 	1.180 	-0.230
 4.716 	1.467 	1.002
 4.413 	0.448 	0.098
 5.707 	-0.011 	-0.181
 4.999 	0.129 	0.227
 4.341 	-0.193 	0.986
 4.931 	0.956 	0.069
 5.288 	-0.315 	-0.236
 5.495 	0.270 	-0.648
 5.430 	0.049 	-0.071
 5.870 	0.434 	0.044
 5.093 	0.233 	0.091
 5.343 	0.984 	-0.147
 5.374 	0.455 	0.664
 4.546 	0.324 	0.091
 4.451 	0.255 	1.078
 4.699 	0.964 	0.559
 5.207 	0.885 	0.306
 5.075 	0.078 	0.330
 5.250 	0.263 	0.086
 5.068 	0.163 	0.251
 4.203 	0.028 	0.456
 4.288 	0.204 	0.336
 4.817 	0.877 	-0.168
 5.538 	0.702 	-0.846
 5.075 	-0.175 	0.055
 5.114 	0.086 	-0.624
 4.986 	0.543 	0.371
 4.320 	0.689 	0.724
 4.865 	0.663 	0.344
 5.450 	0.551 	-0.578
 4.360 	-0.265 	0.507
 4.817 	0.349 	0.345
 4.851 	-0.148 	0.526
 4.824 	-0.432 	0.118
 4.376 	-0.414 	0.544
 4.772 	0.038 	0.071
 3.579 	-0.193 	0.370
 3.671 	-0.212 	0.356
 4.262 	0.192 	0.053
 3.894 	0.498 	0.080
 3.895 	0.213 	0.320
 4.166 	0.007 	0.365
 4.428 	0.531 	0.158
 4.161 	0.643 	0.261
 3.686 	0.097 	0.133
 3.468 	0.357 	-0.092
 6.427 	-0.138 	-0.467
 6.551 	-0.104 	0.266
 5.162 	0.036 	0.236
 4.657 	0.146 	0.299
 5.277 	-0.010 	0.407
 4.926 	0.126 	0.074
 5.325 	-0.344 	0.443
 5.304 	-0.393 	0.353
 5.041 	0.595 	0.223
 5.489 	0.390 	0.076
 5.338 	0.074 	-0.343
 4.496 	-0.416 	0.486
 4.669 	0.148 	0.492
 4.772 	0.622 	0.139
 4.434 	0.667 	-0.135
 4.046 	0.195 	0.240
 4.465 	-0.718 	0.284
 5.417 	-0.235 	0.327
 5.431 	-0.067 	0.017
 5.346 	-0.505 	-0.009
 5.207 	-0.198 	-0.172
 5.564 	0.106 	0.035
 5.539 	-0.234 	-0.192
 5.741 	-0.123 	-0.412
 5.665 	-0.016 	-0.292
 5.870 	-0.055 	-0.252
 6.383 	0.201 	-0.478
 5.701 	0.024 	-0.211
 5.383 	0.133 	0.335
 4.544 	0.024 	0.671
 4.491 	-0.184 	0.350
 5.022 	0.405 	-0.436
 5.663 	0.043 	-0.740
 5.115 	-0.559 	-0.861
 5.271 	-0.402 	-0.491
 4.542 	-0.357 	-0.095
 4.635 	-0.671 	-0.255
 4.778 	-0.088 	-0.007
 5.113 	0.189 	-0.214
 5.359 	-0.558 	0.118
 5.371 	-0.449 	-0.206
 5.374 	-0.408 	-0.538
 5.189 	0.319 	-0.278
 5.361 	0.595 	0.234
 5.306 	0.471 	-0.111
 5.269 	0.346 	-0.095
 5.026 	-0.059 	-0.145
 4.784 	0.008 	0.196
 5.791 	1.168 	-0.397
 4.709 	-0.151 	0.254
 4.186 	-1.335 	0.329
 4.090 	-0.660 	0.537
 3.737 	-0.789 	-0.198
 3.473 	0.081 	0.492
 4.019 	-0.687 	-0.158
 4.080 	-0.374 	-0.098
 4.648 	-0.517 	0.053
 5.136 	-0.444 	-0.382
 5.141 	0.383 	-0.123
 5.447 	0.612 	-0.141
 5.255 	0.172 	-0.285
 4.756 	-0.008 	-0.554
 5.203 	0.377 	0.091
 4.409 	0.272 	0.415
 5.477 	0.164 	-0.633
 5.544 	1.146 	-0.150
 5.048 	-1.118 	0.344
 3.829 	-0.409 	0.721
 3.740 	-0.479 	0.425
 3.976 	-0.561 	0.460
 4.496 	-0.676 	0.153
 4.564 	-0.506 	-0.144
 4.691 	-0.638 	-0.166
 4.851 	0.162 	-0.340
 4.918 	-0.297 	-0.030
 4.686 	0.555 	0.414
 4.494 	0.346 	-0.112
 4.461 	0.560 	-0.801
 4.740 	0.623 	-0.032
 4.806 	0.393 	-0.170
 5.152 	0.464 	-0.165
 5.237 	0.921 	-0.442
 4.760 	-0.549 	0.126
 4.270 	-0.461 	0.473
 4.485 	-0.290 	0.267
 4.295 	-0.354 	-0.095
 3.865 	-0.911 	0.183
 3.886 	-0.814 	-0.348
 4.060 	-0.231 	-0.346
 3.849 	-0.282 	0.385
 4.507 	-0.145 	0.577
 4.716 	0.031 	0.699
 4.241 	0.261 	0.222
 3.955 	0.619 	-0.178
 4.083 	0.595 	0.301
 4.772 	0.762 	-0.100
 4.617 	0.042 	-0.421
 5.128 	0.734 	-0.544
 5.536 	-0.338 	-0.719
 5.469 	0.412 	0.017
 4.561 	-0.256 	-0.270
 4.343 	-0.196 	0.271
 4.426 	-0.921 	0.371
 3.634 	-0.603 	0.506
 3.638 	0.164 	-0.213
 3.074 	0.013 	0.606
 3.602 	-0.225 	-0.127
 3.733 	-0.350 	0.292
 3.859 	0.079 	0.516
 3.755 	0.473 	0.895
 3.744 	0.561 	0.279
 4.091 	0.860 	-0.167
 4.393 	-0.143 	-0.293
 4.259 	0.237 	-0.137
 4.903 	0.110 	-0.271
 5.712 	0.041 	-0.344
 5.323 	0.361 	-0.334
 5.407 	0.582 	-0.588
 5.269 	-0.217 	0.057
 4.598 	-0.246 	-0.001
 3.886 	0.535 	0.074
 3.995 	-0.443 	0.379
 3.922 	-0.245 	0.325
 3.106 	-0.053 	0.596
 3.154 	-0.265 	0.560
 3.650 	0.114 	0.004
 4.136 	0.457 	-0.194
 4.131 	0.520 	-0.169
 4.711 	0.378 	0.646
 4.945 	0.179 	0.292
 4.910 	0.074 	0.200
 5.146 	0.569 	-0.010
 5.444 	0.549 	-0.026
 4.117 	0.089 	0.576
 4.262 	0.037 	0.206
 4.035 	-0.217 	0.085
 4.368 	0.192 	-0.311
 4.634 	-0.116 	-0.096
 4.269 	-0.479 	-0.194
 4.371 	-0.026 	0.061
 3.939 	-0.382 	0.009
 3.813 	-0.799 	0.191
 4.117 	0.213 	0.083
 3.970 	0.944 	0.204
 4.980 	0.632 	0.347
 4.617 	-0.001 	0.317
 5.289 	0.110 	0.422
 5.157 	0.626 	0.740
 4.856 	0.675 	0.429
 4.131 	0.132 	0.365
 4.244 	-0.354 	0.277
 4.261 	-0.360 	0.058
 4.694 	-0.195 	-0.183
 4.452 	-0.062 	-0.092
 4.212 	-0.195 	-0.163
 4.289 	-0.254 	0.033
 3.967 	-0.477 	0.024
 3.475 	-0.454 	0.198
 3.225 	-0.734 	0.127
 3.494 	0.228 	0.311
 4.533 	-0.664 	0.366
 4.613 	-0.617 	0.431
 4.419 	-0.376 	0.310
 4.751 	-0.201 	0.450
 4.841 	0.420 	0.329
 4.473 	0.155 	0.491
 4.251 	-0.024 	0.176
 3.692 	-0.421 	0.183
 3.866 	-0.454 	0.204
 4.008 	0.188 	-0.026
 3.691 	-0.031 	-0.014
 3.793 	-0.380 	0.162
 3.314 	-0.194 	0.347
 3.149 	-0.652 	0.475
 3.298 	-1.028 	0.367
 3.397 	-1.024 	0.133
 7.162 	1.753 	-1.190
 6.397 	-0.158 	-0.254
 6.531 	0.045 	0.551
 5.779 	0.279 	0.589
 5.818 	-0.394 	0.032
 6.023 	0.532 	0.248
 6.003 	0.093 	0.598
 6.191 	0.649 	0.836
 6.987 	1.530 	0.568
 6.276 	1.581 	0.169
 6.353 	-0.037 	0.063
 6.956 	-0.087 	-0.015
 6.374 	-0.338 	0.005
 6.404 	1.157 	0.880
 7.328 	1.536 	-0.325
 5.760 	1.297 	0.611
 7.757 	0.974 	0.476
 7.090 	0.168 	0.289
 5.530 	-0.136 	1.133
 6.576 	0.748 	0.724
 5.495 	0.755 	0.473
 5.544 	0.197 	0.609
 6.444 	0.266 	0.446
 6.026 	0.521 	-0.096
 5.935 	0.829 	0.201
 6.343 	0.618 	-0.796
 6.807 	0.161 	-0.442
 7.109 	0.213 	-0.114
 5.787 	0.894 	0.257
 6.130 	0.178 	0.895
 6.715 	1.854 	0.691
 6.827 	1.270 	0.035
 5.901 	0.703 	-0.012
 6.182 	0.910 	-0.030
 6.518 	0.602 	0.627
 6.630 	0.401 	-0.154
 6.022 	1.086 	-0.148
 5.126 	-0.187 	1.103
 6.396 	0.272 	0.254
 7.013 	1.012 	-0.777
 6.943 	0.383 	-0.365
 6.815 	0.613 	-0.798
 6.862 	-0.072 	-0.265
 6.612 	0.589 	0.672
 7.333 	0.618 	-0.009
 6.054 	-0.107 	0.564
 5.954 	0.650 	0.612
 5.902 	1.215 	0.616
 4.909 	0.509 	0.585
 5.310 	0.849 	0.124
 4.868 	0.286 	1.042
 5.063 	0.278 	1.111
 6.023 	1.215 	0.592
 5.732 	0.634 	0.570
 5.439 	-0.098 	0.460
 6.272 	-0.016 	0.446
 6.769 	1.110 	-0.515
 6.758 	0.850 	-0.119
 6.026 	0.428 	0.264
 4.959 	0.461 	0.598
 4.874 	-0.412 	0.677
 3.976 	0.486 	0.639
 4.407 	-0.216 	0.593
 5.435 	1.061 	0.361
 4.283 	0.237 	0.782
 4.905 	0.550 	0.748
 5.268 	0.087 	1.023
 4.860 	0.606 	0.379
 4.864 	0.433 	0.619
 5.317 	0.602 	0.206
 5.479 	0.349 	0.898
 5.191 	-0.461 	0.553
 5.351 	0.852 	0.176
 4.867 	1.016 	0.478
 4.160 	0.335 	0.435
 4.586 	-0.126 	0.839
 4.802 	0.372 	0.863
 5.075 	-0.074 	0.504
 5.023 	-0.314 	0.274
 4.425 	0.141 	0.180
 5.621 	0.162 	-0.343
 4.935 	-0.043 	0.491
 5.279 	-0.124 	0.284
 5.406 	-0.268 	0.147
 5.764 	0.676 	0.084
 5.945 	0.276 	-0.096
 5.828 	0.146 	0.707
 5.657 	0.348 	0.380
 5.968 	0.629 	0.017
 5.985 	1.746 	0.140
 5.621 	0.533 	0.405
 5.409 	-0.106 	0.489
 5.277 	-0.028 	0.198
 5.308 	-0.645 	0.577
 5.382 	-0.460 	0.164
 5.350 	-0.146 	-0.491
 6.226 	0.283 	-0.672
 6.285 	0.168 	0.110
 5.770 	0.049 	0.132
 6.166 	-0.688 	-0.169
 5.785 	0.187 	-0.122
 6.338 	0.087 	-0.057
 6.122 	0.292 	0.242
 5.456 	-0.018 	0.111
 5.310 	-0.628 	-0.219
 6.018 	0.328 	0.254
 6.060 	0.083 	-0.214
 5.839 	0.115 	-0.013
 5.285 	0.082 	0.636
 5.345 	-0.140 	0.173
 5.582 	-0.321 	0.213
 5.319 	-0.276 	-0.213
 5.702 	0.573 	-0.565
 5.599 	-0.275 	0.142
 5.953 	0.090 	0.028
 6.280 	-0.021 	-0.001
 5.053 	-0.621 	0.145
 5.741 	-0.137 	0.489
 5.517 	0.569 	0.084
 5.178 	-0.662 	-0.066
 5.278 	-0.710 	0.354
 5.475 	-0.022 	-0.138
 5.821 	0.242 	-0.503
 5.592 	0.266 	0.033
 5.484 	0.112 	0.434
 5.520 	-0.056 	-0.366
 5.528 	0.228 	0.146
 5.121 	-0.147 	-0.112
 5.069 	-0.364 	-0.815
 4.573 	0.470 	0.192
 4.323 	0.177 	0.927
 4.649 	-0.292 	0.462
 5.168 	-1.072 	0.589
 4.851 	-0.791 	0.843
 5.089 	-0.902 	0.071
 4.769 	-0.900 	-0.101
 4.504 	-1.059 	0.211
 4.203 	-0.819 	0.359
 4.188 	-0.571 	0.565
 4.901 	0.301 	0.244
 5.426 	0.226 	-0.055
 5.615 	0.548 	-0.477
 5.140 	-0.159 	-0.014
 4.854 	0.120 	-0.003
 5.213 	0.355 	-0.420
 5.178 	0.552 	-0.067
 5.114 	0.061 	0.513
 5.127 	-0.597 	0.212
 5.784 	-0.780 	0.348
 5.532 	-0.675 	0.489
 5.548 	-1.158 	0.368
 6.054 	-1.081 	-0.325
 6.004 	-0.449 	-0.284
 4.755 	-0.757 	0.117
 3.801 	-0.926 	0.187
 4.210 	-0.799 	0.269
 4.885 	-1.351 	-0.098
 4.898 	-0.002 	-0.625
 4.933 	0.042 	-0.483
 5.305 	0.545 	-0.218
 4.920 	-0.451 	-0.186
 5.646 	0.705 	0.124
 5.798 	0.660 	0.098
 5.966 	-0.495 	0.102
 6.030 	-0.437 	0.180
 5.887 	-0.854 	0.224
 5.541 	-0.571 	0.177
 5.332 	-0.825 	-0.350
 5.097 	-0.834 	-0.426
 4.862 	-0.084 	0.417
 3.672 	-0.807 	0.562
 3.627 	-0.881 	0.195
 4.593 	-0.543 	-0.009
 4.695 	-0.106 	0.135
 4.561 	-0.099 	-0.859
 4.971 	0.696 	-0.141
 5.096 	0.047 	-0.380
 5.004 	0.209 	0.054
 5.418 	-0.679 	-0.739
 6.170 	-0.255 	-0.494
 5.801 	-0.837 	-0.430
 5.795 	-0.152 	0.089
 5.500 	-0.200 	0.209
 4.919 	0.145 	0.274
 4.458 	-0.681 	0.408
 4.763 	-0.075 	0.318
 4.962 	-0.919 	-0.063
 3.620 	-0.356 	0.299
 3.644 	-0.304 	0.720
 3.776 	0.102 	0.692
 4.785 	-0.401 	0.048
 4.907 	0.076 	-0.606
 4.357 	-0.065 	-0.600
 5.340 	-0.225 	-0.655
 5.472 	-1.368 	-0.004
 5.795 	-0.865 	-0.319
 5.947 	-0.484 	-0.438
 6.047 	-0.513 	-0.858
 6.350 	0.381 	-0.344
 6.523 	0.427 	-0.310
 5.995 	0.139 	0.157
 4.687 	-0.227 	0.654
 4.244 	-0.702 	0.138
 4.117 	-0.387 	0.424
 3.814 	-0.262 	0.766
 4.389 	-0.518 	0.393
 4.884 	-0.148 	0.445
 5.126 	0.585 	-0.114
 4.992 	-0.792 	0.450
 4.775 	-1.265 	0.082
 5.168 	-0.996 	-0.296
 5.256 	-0.507 	0.219
 4.867 	-0.484 	-0.235
 5.346 	-0.170 	0.052
 5.371 	0.513 	0.490
 5.855 	0.408 	0.314
 6.041 	0.740 	0.036
 5.855 	0.324 	0.289
 5.130 	-0.259 	0.109
 4.381 	-0.012 	0.322
 4.028 	-0.241 	0.596
 4.100 	-0.514 	0.535
 4.171 	-0.426 	0.310
 4.645 	-0.133 	0.155
 4.881 	-0.659 	1.141
 4.938 	-1.701 	0.678
 4.827 	-1.169 	0.323
 5.035 	-0.501 	0.434
 5.037 	-0.366 	0.316
 5.275 	0.214 	0.439
 5.071 	-0.057 	0.669
 5.077 	0.055 	0.264
 4.855 	0.047 	0.329
 5.433 	0.191 	-0.084
 4.910 	0.238 	-0.254
 4.243 	-0.052 	0.110
 4.565 	-0.204 	0.003
 4.556 	-0.451 	0.024
 3.830 	-0.616 	0.214
 3.776 	-0.501 	0.364
 5.140 	-0.592 	0.146
 4.828 	-0.923 	0.531
 4.539 	-0.650 	0.527
 4.118 	-0.230 	0.481
 4.518 	-0.088 	0.597
 4.684 	0.168 	0.877
 4.681 	0.023 	0.754
 4.276 	0.125 	0.542
 4.472 	-0.350 	0.331
 4.508 	-0.122 	-0.148
 4.751 	0.445 	-0.058
 4.247 	0.088 	0.477
 4.839 	0.185 	0.170
 4.047 	-0.194 	0.231
 4.190 	0.470 	0.116
 3.804 	0.049 	-0.037
 6.866 	-0.587 	0.049
 6.746 	-0.704 	0.184
 6.620 	-0.782 	0.128
 7.474 	0.022 	0.699
 6.311 	-0.237 	0.436
 5.461 	0.253 	0.967
 5.741 	0.353 	0.441
 6.354 	0.579 	0.200
 6.515 	1.050 	0.605
 6.368 	1.246 	0.493
 6.780 	0.327 	-0.127
 7.909 	0.213 	-0.330
 7.418 	0.175 	-0.045
 7.426 	-0.019 	-0.078
 7.481 	1.037 	0.256
 8.025 	1.109 	-0.295
 7.311 	-0.339 	0.844
 6.723 	-0.388 	0.292
 6.289 	-0.667 	0.795
 6.232 	0.026 	0.128
 6.609 	0.663 	0.255
 6.318 	0.317 	0.459
 6.414 	0.692 	0.178
 5.929 	0.969 	-0.267
 6.833 	1.264 	0.301
 7.024 	0.407 	-0.705
 6.593 	-0.155 	0.246
 5.754 	0.211 	0.018
 6.193 	-0.089 	-0.224
 7.457 	0.163 	0.877
 7.198 	0.732 	0.584
 6.879 	1.438 	0.911
 5.525 	0.153 	0.032
 5.466 	-0.398 	-0.086
 6.413 	-0.625 	-0.057
 6.604 	0.025 	-0.317
 6.454 	0.783 	0.060
 6.989 	0.759 	0.288
 6.670 	0.607 	-0.221
 7.104 	0.363 	-0.516
 6.563 	0.503 	-0.964
 6.996 	0.650 	-1.284
 6.899 	0.091 	0.272
 5.838 	0.124 	0.532
 5.956 	-0.148 	0.919
 5.448 	-0.339 	0.649
 6.497 	1.332 	1.056
 6.512 	1.086 	0.892
 5.382 	-0.182 	0.549
 5.375 	-0.911 	-0.201
 5.558 	-0.422 	0.774
 5.744 	0.504 	0.534
 5.428 	-0.215 	0.846
 6.347 	0.644 	0.590
 6.785 	0.548 	0.343
 7.310 	0.312 	0.568
 7.300 	0.813 	0.129
 5.692 	0.375 	0.605
 4.933 	-0.033 	0.964
 4.940 	0.310 	0.724
 4.733 	0.035 	0.782
 3.777 	-0.152 	0.957
 4.429 	0.234 	0.722
 5.005 	0.101 	0.154
 5.815 	-1.177 	0.233
 5.858 	-0.369 	0.243
 5.270 	1.002 	1.012
 5.719 	0.978 	0.120
 5.651 	0.818 	-0.237
 5.940 	0.491 	0.142
 6.174 	0.058 	0.944
 6.530 	-0.526 	0.847
 6.847 	0.998 	0.354
 6.293 	1.063 	0.826
 5.573 	0.587 	0.627
 5.220 	0.105 	0.868
 4.812 	0.586 	0.673
 4.726 	0.190 	0.788
 4.864 	-0.052 	0.603
 4.342 	-0.528 	0.927
 5.590 	0.060 	0.334
 5.178 	1.353 	0.887
 4.889 	1.561 	0.437
 5.107 	0.536 	0.150
 5.988 	-0.131 	-0.107
 6.503 	0.227 	-0.410
 6.116 	-0.090 	0.687
 6.797 	-0.071 	-0.074
 6.147 	0.501 	0.058
 5.464 	0.834 	0.970
 5.493 	0.483 	0.926
 5.208 	-0.087 	0.835
 5.465 	0.063 	0.455
 5.701 	0.079 	0.579
 6.005 	-0.409 	0.159
 5.471 	-0.509 	0.196
 5.232 	-0.155 	-0.343
 4.897 	0.678 	0.094
 5.587 	0.734 	0.208
 5.979 	0.279 	0.227
 6.356 	-0.028 	0.533
 6.044 	-0.192 	0.324
 5.836 	0.361 	0.421
 5.350 	0.230 	0.777
 5.624 	0.956 	0.615
 6.316 	0.831 	0.342
 6.652 	0.359 	-0.144
 6.474 	-0.231 	0.116
 6.157 	-0.107 	0.781
 6.281 	0.076 	-0.241
 6.221 	-0.292 	0.077
 5.883 	-0.128 	-0.071
 5.042 	0.624 	-0.031
 5.667 	0.740 	-0.456
 6.404 	-0.073 	0.087
 6.518 	0.781 	-0.426
 5.719 	-0.378 	0.920
 4.690 	-1.112 	0.896
 5.055 	-0.324 	1.096
 5.128 	0.379 	0.403
 5.207 	-0.613 	0.468
 5.932 	-0.653 	-0.317
 6.297 	-0.218 	-0.549
 6.134 	0.014 	0.113
 6.143 	0.223 	0.483
 6.003 	-0.031 	-0.329
 5.973 	0.017 	0.255
 5.636 	-0.047 	0.219
 5.827 	-0.304 	-0.414
 5.061 	-0.531 	0.354
 5.086 	0.100 	1.048
 4.162 	0.284 	1.353
 4.240 	-0.506 	0.648
 5.217 	-0.684 	0.442
 4.877 	-0.520 	-0.107
 5.174 	-0.148 	0.008
 5.280 	-0.779 	0.106
 4.919 	-1.498 	0.854
 5.539 	-0.285 	0.504
 5.813 	0.205 	0.090
 5.371 	0.072 	-0.010
 5.173 	-0.115 	-0.480
 5.578 	0.213 	0.067
 5.387 	-0.104 	0.080
 5.563 	-0.467 	-0.380
 5.949 	0.088 	-0.556
 5.241 	0.749 	0.489
 4.831 	0.323 	0.430
 4.887 	0.033 	-0.066
 5.193 	-0.124 	-0.557
 5.386 	-0.222 	-0.065
 5.725 	-0.493 	-0.292
 5.681 	-1.100 	0.059
 5.076 	-0.696 	0.270
 4.711 	-0.312 	0.222
 4.698 	0.045 	0.169
 5.002 	0.042 	0.104
 4.973 	0.155 	0.090
 5.237 	-0.430 	-0.149
 5.262 	0.327 	-0.003
 5.690 	-0.271 	-0.695
 5.784 	0.506 	-0.142
 6.003 	0.709 	0.268
 5.389 	0.443 	0.197
 5.906 	0.303 	-0.316
 6.023 	-0.572 	0.488
 6.645 	-0.147 	-0.538
 6.265 	-0.418 	0.215
 5.641 	-0.124 	0.047
 4.803 	-0.593 	1.035
 4.430 	-0.267 	0.470
 4.874 	-0.491 	0.204
 5.407 	-0.279 	-0.501
 5.712 	-0.382 	-0.402
 5.312 	-0.314 	-0.120
 5.494 	-0.337 	-0.333
 5.589 	0.197 	-0.429
 5.307 	0.727 	-0.361
 5.729 	0.636 	0.083
 6.295 	0.245 	-0.146
 6.150 	0.260 	-0.161
 6.328 	0.103 	-0.044
 6.647 	-0.218 	-0.125
 6.014 	-0.209 	0.309
 5.833 	0.426 	0.052
 5.945 	0.161 	0.734
 5.747 	-0.257 	0.393
 4.782 	-0.760 	0.833
 4.851 	-0.532 	0.573
 5.737 	-0.092 	0.221
 6.192 	-0.319 	-0.704
 5.712 	-0.733 	-0.130
 5.219 	-0.053 	-0.237
 5.690 	0.490 	-0.134
 5.804 	-0.040 	0.113
 5.978 	-0.340 	-0.104
 6.395 	-0.376 	-0.535
 5.853 	-0.705 	-0.593
 5.486 	-0.466 	-0.602
 5.428 	0.209 	0.088
 6.320 	0.255 	-0.266
 6.112 	0.197 	0.278
 6.006 	-0.167 	0.414
 5.755 	-0.433 	0.687
 5.899 	-0.682 	0.174
 6.016 	-0.923 	0.179
 5.468 	-0.481 	-0.282
 5.402 	-0.125 	-0.174
 4.865 	-0.396 	0.651
 5.204 	-0.809 	0.527
 5.702 	-0.609 	-0.222
 5.494 	-0.777 	0.092
 5.213 	-0.629 	-0.015
 5.027 	-0.257 	-0.147
 5.174 	-0.300 	-0.006
 5.210 	-0.039 	0.281
 5.600 	0.017 	-0.013
 5.986 	0.590 	0.190
 6.346 	0.134 	0.866
 5.688 	-0.373 	0.434
 5.715 	-0.345 	0.024
 5.260 	-0.379 	0.344
 4.707 	-0.042 	0.506
 5.196 	-0.311 	0.265
 5.957 	-0.533 	0.458
 5.557 	-0.908 	0.619
 5.232 	-0.721 	0.238
 5.116 	-0.461 	0.189
 4.795 	-0.651 	0.077
 4.550 	-0.354 	0.834
 4.817 	0.232 	0.919
 5.308 	-0.328 	0.348
 5.392 	-0.172 	0.410
 5.545 	0.241 	0.288
 6.007 	0.223 	0.184
 6.127 	0.242 	-0.111
 6.101 	0.439 	-0.148
 4.769 	-0.084 	0.559
 4.680 	-0.341 	0.068
 4.719 	-1.031 	0.376
 5.817 	-0.337 	0.084
 5.226 	-0.640 	0.560
 5.086 	-0.294 	0.267
 4.553 	-0.440 	0.494
 4.424 	-0.238 	0.535
 4.442 	-0.500 	0.660
 4.569 	0.047 	0.380
 4.557 	-0.001 	0.429
 4.504 	-0.305 	0.225
 4.738 	-0.204 	-0.262
 4.625 	-0.253 	-0.139
 4.761 	-0.037 	0.147
 5.168 	0.316 	0.129
 5.324 	0.054 	0.127
 4.933 	-0.189 	0.205
 4.692 	-0.472 	0.016
 7.783 	-0.680 	0.202
 8.079 	-0.304 	0.369
 7.178 	-0.342 	0.358
 6.981 	-0.692 	0.213
 6.746 	-0.135 	0.771
 6.961 	-0.290 	-0.099
 6.666 	0.161 	0.202
 6.718 	-0.200 	0.129
 6.782 	0.326 	0.315
 6.905 	0.454 	0.341
 7.570 	0.366 	-0.251
 7.506 	-0.789 	-0.623
 8.265 	0.193 	-0.303
 8.195 	0.536 	0.140
 8.493 	0.929 	0.065
 8.732 	1.052 	0.308
 6.395 	-0.600 	0.731
 6.745 	-0.486 	0.612
 7.132 	-0.264 	0.040
 7.113 	-0.132 	0.447
 6.771 	-0.192 	-0.167
 6.750 	0.018 	0.169
 7.023 	0.586 	0.420
 6.323 	-0.523 	-0.437
 6.441 	-0.201 	0.478
 7.049 	0.660 	-0.196
 6.744 	-0.708 	0.558
 7.016 	0.010 	0.116
 6.659 	-0.053 	0.723
 6.923 	0.497 	1.196
 6.405 	0.657 	0.912
 6.544 	0.705 	0.680
 5.188 	-0.680 	-0.051
 5.688 	-0.370 	-0.264
 5.932 	-0.705 	0.148
 6.158 	-0.320 	-0.169
 6.376 	0.159 	0.093
 6.753 	0.547 	0.198
 6.969 	0.647 	-0.557
 6.436 	-0.216 	-0.202
 6.170 	-0.295 	-0.831
 6.608 	0.124 	-0.287
 5.966 	0.426 	0.488
 5.148 	-0.311 	1.199
 5.741 	-0.080 	1.189
 5.444 	0.278 	0.742
 5.498 	0.120 	0.497
 5.758 	0.369 	0.861
 6.482 	-0.751 	0.295
 6.270 	-0.905 	-0.493
 6.593 	-0.858 	-0.025
 5.809 	-0.105 	0.297
 6.182 	0.289 	-0.394
 6.456 	-0.396 	0.660
 7.414 	-0.036 	0.580
 6.634 	0.059 	0.268
 6.657 	-0.503 	0.178
 6.837 	0.297 	-0.072
 6.323 	0.450 	1.076
 5.779 	0.471 	1.137
 4.812 	-0.059 	0.844
 4.788 	0.255 	0.614
 4.288 	-0.399 	1.212
 5.009 	-0.266 	0.338
 7.182 	-0.519 	-0.254
 7.041 	-1.144 	-0.832
 5.901 	0.229 	0.271
 5.408 	-0.012 	0.265
 6.350 	0.023 	0.074
 6.185 	-0.274 	-0.330
 6.542 	0.301 	0.991
 6.789 	0.030 	1.082
 6.556 	0.198 	0.115
 6.819 	0.892 	0.694
 5.868 	1.028 	1.487
 5.346 	0.369 	1.180
 5.506 	0.298 	0.585
 4.863 	0.300 	0.775
 4.613 	-0.039 	0.715
 4.664 	-0.261 	1.223
 6.933 	-0.395 	-0.172
 6.234 	-0.352 	0.651
 5.754 	-0.203 	0.879
 5.771 	0.109 	0.389
 5.986 	-0.230 	-0.204
 6.251 	-0.831 	-0.250
 5.999 	0.678 	0.416
 6.178 	-0.348 	0.087
 6.476 	0.633 	0.285
 6.744 	0.497 	1.491
 6.262 	1.480 	1.689
 6.165 	0.618 	0.765
 6.097 	0.040 	0.972
 6.069 	-0.136 	0.767
 5.955 	-0.437 	0.164
 6.282 	-0.212 	0.063
 5.186 	-0.205 	0.481
 5.382 	-0.224 	0.575
 6.318 	-0.044 	0.017
 6.097 	-0.426 	0.260
 5.895 	-0.340 	0.650
 6.196 	-0.303 	0.517
 6.475 	0.288 	-0.176
 5.805 	-0.092 	0.657
 5.461 	0.295 	0.751
 5.751 	0.263 	0.536
 6.838 	1.025 	0.162
 7.119 	0.012 	0.233
 7.010 	0.263 	0.358
 6.847 	0.004 	0.128
 6.584 	-0.210 	-0.058
 6.062 	-0.308 	0.096
 5.404 	-0.496 	0.209
 5.718 	-0.649 	0.173
 5.751 	-0.362 	-0.223
 6.293 	-0.670 	0.026
 5.146 	-0.050 	1.655
 5.249 	0.492 	1.186
 5.318 	0.797 	0.947
 5.015 	0.597 	1.081
 5.296 	-0.306 	0.737
 6.338 	-1.082 	0.317
 5.989 	-0.526 	0.085
 6.206 	-0.221 	0.613
 6.334 	0.329 	0.370
 6.409 	0.095 	-0.098
 6.114 	-0.188 	0.018
 6.107 	-0.552 	0.389
 5.644 	-0.737 	-0.379
 5.789 	-0.501 	0.556
 6.064 	-0.546 	0.409
 5.047 	0.271 	0.990
 5.395 	0.279 	0.451
 5.073 	0.362 	0.121
 5.216 	0.108 	-0.014
 5.420 	0.311 	-0.086
 5.616 	-0.119 	0.089
 4.711 	-1.309 	0.970
 5.994 	-1.008 	0.047
 6.086 	-0.293 	0.029
 5.730 	0.221 	0.100
 5.897 	0.316 	-0.257
 5.737 	-0.184 	0.385
 6.176 	-0.554 	0.293
 6.539 	-0.466 	-1.101
 6.446 	-0.246 	0.026
 6.119 	-0.305 	-0.065
 6.554 	0.270 	0.648
 5.720 	0.615 	0.240
 5.996 	-0.253 	-0.316
 5.499 	0.188 	-0.271
 5.421 	0.234 	-0.299
 5.825 	-0.936 	0.146
 6.358 	-0.573 	-0.342
 5.596 	-0.657 	0.661
 5.021 	-0.247 	0.289
 5.192 	0.224 	0.029
 5.401 	0.034 	-0.150
 5.579 	-0.476 	-0.161
 6.042 	-0.726 	-0.293
 6.838 	-0.458 	-0.392
 6.134 	-0.008 	0.060
 5.735 	-0.018 	-0.044
 5.725 	0.672 	0.232
 6.325 	0.003 	-0.335
 6.662 	-0.812 	-0.126
 6.434 	0.191 	-0.020
 6.482 	-0.386 	0.068
 6.071 	-0.227 	0.248
 6.043 	-0.467 	0.755
 5.965 	-0.455 	0.995
 5.796 	-0.261 	0.508
 5.713 	-0.331 	0.070
 5.834 	-0.171 	-0.162
 6.222 	-0.070 	-0.555
 5.851 	-0.542 	-0.217
 6.190 	-0.333 	-0.244
 6.589 	-0.087 	-0.218
 6.431 	0.448 	0.192
 6.340 	-0.235 	0.075
 6.389 	-0.391 	-0.048
 6.314 	-0.455 	-0.085
 6.255 	-0.291 	-0.109
 6.599 	-0.225 	0.004
 6.468 	-0.293 	-0.143
 6.068 	0.387 	0.591
 5.989 	-0.489 	0.981
 6.071 	-0.188 	0.302
 6.116 	-0.645 	0.206
 6.084 	-0.803 	0.156
 6.437 	-0.300 	-0.276
 6.229 	-0.310 	-0.418
 6.238 	-0.722 	-0.636
 6.034 	-0.085 	-0.051
 5.815 	0.449 	0.102
 6.011 	-0.325 	0.320
 6.022 	-0.785 	0.327
 6.063 	-0.267 	0.247
 5.705 	-0.549 	0.105
 5.679 	-0.336 	-0.075
 6.257 	-0.254 	-0.231
 6.671 	0.372 	-0.169
 6.220 	0.199 	0.515
 6.527 	-0.231 	0.754
 6.538 	-0.527 	0.280
 5.783 	-0.813 	0.312
 5.939 	-0.391 	-0.502
 5.853 	-0.546 	-0.043
 5.031 	-0.215 	0.567
 5.310 	-0.181 	0.663
 5.652 	0.604 	0.570
 5.927 	-0.484 	-0.332
 6.196 	-0.717 	-0.216
 6.071 	-0.054 	-0.094
 5.621 	-0.474 	-0.306
 5.141 	-1.324 	0.789
 5.578 	-1.003 	-0.315
 5.875 	0.451 	-0.253
 5.956 	0.598 	0.573
 6.327 	-0.197 	0.287
 5.679 	-0.350 	0.061
 5.212 	-0.400 	0.265
 5.060 	-0.315 	0.320
 5.089 	-0.694 	0.772
 5.524 	-0.165 	0.037
 5.555 	-0.169 	0.457
 5.115 	0.386 	0.148
 5.780 	-0.481 	0.510
 5.175 	-0.419 	0.074
 4.524 	-0.278 	1.192
 5.326 	-0.110 	0.337
 5.783 	-0.450 	-1.035
 5.567 	-0.765 	0.241
 5.578 	0.051 	0.332
 5.487 	0.486 	0.124
 5.384 	-0.083 	0.244
 5.103 	0.205 	0.282
 4.589 	-0.447 	0.717
 5.001 	-0.379 	0.411
 4.927 	-0.820 	0.298
 6.034 	0.650 	-0.268
 5.203 	-0.181 	0.565
 5.982 	0.512 	-0.037
 5.984 	-0.396 	0.555
 5.626 	-1.252 	1.069
 5.623 	-0.214 	0.975
 5.424 	-0.175 	0.327
 5.092 	0.136 	0.089
 5.722 	0.024 	-0.645
 5.580 	-0.635 	-0.156
 6.050 	0.530 	0.641
 5.653 	-0.437 	0.277
 5.292 	-0.131 	0.249
 5.471 	-0.008 	0.088
 5.365 	-0.488 	0.155
 4.952 	-0.526 	-0.070
 6.030 	-1.100 	-0.355
 6.784 	-0.466 	0.254
 7.292 	-1.037 	0.399
 7.162 	-0.739 	0.690
 6.938 	-0.632 	0.243
 6.665 	-0.203 	0.659
 6.474 	-0.534 	0.002
 6.878 	-0.374 	-0.288
 7.241 	0.268 	0.928
 7.152 	-0.142 	0.142
 7.506 	-0.313 	0.131
 7.622 	-0.928 	-0.737
 8.252 	0.871 	-0.062
 8.253 	0.871 	0.396
 8.375 	0.937 	0.006
 8.175 	0.345 	0.849
 6.933 	-0.870 	0.516
 6.708 	-0.878 	0.463
 6.322 	-0.899 	0.098
 6.317 	-0.534 	0.128
 6.697 	-0.293 	0.054
 6.557 	-0.313 	0.047
 6.340 	-0.111 	-0.093
 6.435 	-0.250 	-0.577
 6.558 	0.761 	0.133
 6.546 	-0.022 	0.089
 6.977 	-0.116 	-0.089
 7.622 	-1.078 	-0.097
 7.890 	0.789 	0.809
 7.070 	-0.119 	1.039
 6.813 	0.588 	1.548
 6.802 	0.830 	1.018
 5.951 	-0.887 	-0.104
 6.359 	-0.971 	-0.017
 6.370 	-0.579 	0.251
 6.306 	-0.763 	-0.167
 6.511 	-0.866 	-0.167
 6.582 	-0.622 	0.445
 6.588 	-0.097 	-0.279
 6.592 	0.249 	-0.054
 6.471 	-0.105 	-0.066
 6.471 	-0.374 	-0.408
 6.146 	-0.195 	0.548
 6.382 	-0.186 	0.862
 6.066 	0.174 	0.891
 6.014 	0.157 	1.438
 5.825 	0.682 	1.189
 5.837 	0.459 	0.838
 6.580 	-0.708 	-0.087
 6.638 	-0.713 	0.121
 6.351 	-0.864 	0.109
 6.483 	-0.850 	-0.221
 6.174 	-0.723 	-0.343
 5.938 	-0.827 	0.371
 6.421 	-0.780 	0.492
 6.824 	-0.209 	0.550
 6.681 	-0.089 	-0.333
 6.068 	0.453 	0.764
 5.795 	0.908 	1.257
 5.927 	0.569 	1.286
 5.202 	-0.259 	1.052
 5.273 	-0.585 	0.994
 5.388 	0.123 	0.521
 5.746 	0.718 	0.371
 6.766 	-0.638 	-0.276
 6.521 	-1.260 	-0.292
 6.288 	-0.168 	0.322
 6.232 	-0.441 	-0.090
 5.853 	-0.467 	-0.121
 5.967 	-0.847 	0.031
 6.016 	-0.653 	0.125
 6.133 	-0.348 	0.430
 6.718 	-0.198 	0.455
 5.826 	0.569 	0.869
 5.554 	0.865 	1.312
 5.699 	0.415 	1.176
 6.246 	0.016 	0.792
 5.596 	-0.023 	0.803
 5.901 	-0.588 	0.604
 5.903 	0.565 	0.742
 5.821 	-0.633 	0.089