# vtk DataFile Version 3.0
HighT1
ASCII
DATASET STRUCTURED_POINTS
DIMENSIONS 16 16 19
ORIGIN 929.001000000000 929.001000000000 5.001000000000
SPACING 10.000000000000 10.000000000000 10.000000000000
POINT_DATA 4864
 FIELD attributes 1
U 3 4864 float
4.375 	0.077 	0.361
 4.175 	0.495 	0.003
 4.597 	0.690 	0.163
 5.060 	1.417 	-0.083
 4.434 	0.735 	0.625
 4.581 	1.247 	0.377
 3.775 	0.692 	0.167
 3.763 	-0.270 	0.252
 5.006 	0.851 	-0.415
 4.286 	1.103 	0.276
 4.334 	0.475 	0.040
 4.463 	1.960 	0.207
 4.543 	0.608 	0.230
 4.086 	-0.407 	0.142
 4.407 	-0.467 	0.308
 3.795 	-0.174 	0.017
 3.908 	-0.411 	0.255
 3.584 	0.348 	0.206
 2.994 	0.476 	0.647
 2.587 	0.062 	0.433
 3.016 	-0.254 	0.074
 3.944 	0.115 	0.242
 4.401 	-0.772 	0.118
 3.814 	-0.483 	-0.481
 4.358 	0.265 	-0.369
 4.741 	1.432 	-0.052
 4.777 	1.427 	-0.235
 4.982 	1.377 	-0.044
 5.222 	1.237 	-0.543
 4.763 	-0.364 	-0.310
 5.251 	0.108 	-0.025
 4.810 	-0.180 	0.090
 4.779 	0.714 	-0.533
 3.833 	0.239 	0.182
 4.387 	-0.181 	-0.368
 3.764 	0.215 	0.143
 3.215 	0.061 	0.123
 2.764 	-0.017 	0.216
 2.248 	0.070 	0.317
 2.755 	0.214 	0.279
 3.046 	0.915 	0.056
 3.547 	1.406 	-0.053
 4.036 	0.958 	0.092
 4.505 	1.534 	-0.203
 4.852 	0.319 	-0.332
 4.019 	-0.115 	0.434
 3.351 	0.133 	0.249
 3.148 	0.057 	0.052
 3.825 	0.376 	-0.067
 3.725 	0.256 	-0.016
 3.881 	-0.199 	0.010
 3.779 	0.898 	0.009
 3.957 	0.009 	-0.292
 3.845 	-0.011 	-0.008
 3.344 	-0.016 	-0.112
 3.345 	-0.067 	-0.177
 3.018 	0.201 	0.255
 2.996 	0.315 	0.093
 2.998 	0.304 	0.123
 3.071 	0.876 	0.259
 2.590 	0.148 	0.481
 2.885 	-0.256 	0.385
 3.307 	-0.763 	0.239
 3.576 	0.126 	-0.483
 3.300 	0.641 	0.318
 3.975 	-0.084 	-0.125
 3.754 	-0.626 	0.233
 3.428 	0.009 	0.185
 2.961 	0.306 	0.383
 3.256 	-0.113 	-0.048
 3.159 	0.162 	0.118
 2.874 	-0.080 	0.122
 2.992 	0.044 	-0.032
 3.113 	-0.405 	-0.031
 3.086 	0.027 	0.039
 3.355 	0.565 	0.260
 2.993 	-0.336 	-0.171
 2.786 	-0.624 	-0.218
 2.996 	-0.090 	-0.029
 3.174 	0.213 	-0.104
 4.742 	-0.044 	-0.119
 4.746 	-0.282 	-0.293
 4.553 	-0.094 	-0.030
 3.951 	0.374 	0.024
 3.838 	-0.599 	0.119
 3.663 	-0.450 	0.187
 3.698 	0.210 	-0.022
 4.191 	0.527 	-0.203
 4.006 	-0.419 	0.180
 3.347 	-0.591 	0.218
 3.454 	-0.223 	-0.097
 3.671 	0.423 	0.036
 3.600 	-0.008 	-0.061
 3.700 	0.155 	-0.013
 3.080 	-0.286 	0.125
 3.041 	-0.410 	0.315
 4.215 	-0.125 	0.033
 4.242 	-0.475 	-0.067
 4.692 	-0.211 	-0.100
 4.822 	0.509 	-0.091
 4.961 	0.560 	-0.160
 4.643 	-0.539 	-0.191
 4.761 	-0.132 	-0.040
 4.524 	0.383 	-0.097
 4.521 	0.217 	0.013
 3.545 	-0.511 	0.376
 3.427 	0.014 	0.258
 3.621 	0.185 	-0.139
 3.548 	-0.070 	0.073
 3.585 	0.092 	0.124
 4.087 	0.596 	-0.341
 4.620 	-0.074 	-0.197
 4.245 	-0.104 	-0.488
 4.676 	0.282 	-0.152
 4.546 	0.226 	-0.205
 4.809 	0.492 	-0.355
 4.406 	0.160 	-0.213
 3.842 	0.037 	0.471
 3.409 	-0.723 	-0.245
 4.750 	0.409 	-0.588
 5.111 	0.552 	-0.492
 4.753 	0.589 	-0.296
 3.688 	0.473 	0.242
 3.244 	0.396 	-0.143
 3.829 	-0.101 	-0.329
 3.768 	-0.295 	-0.352
 3.989 	-0.343 	-0.507
 4.339 	0.119 	-0.140
 2.705 	-0.408 	0.473
 3.615 	0.390 	0.251
 3.790 	0.156 	0.221
 4.078 	0.651 	0.107
 4.155 	0.933 	0.317
 4.217 	0.652 	-0.294
 4.647 	0.422 	0.017
 2.699 	-0.317 	0.769
 2.921 	1.043 	0.358
 3.452 	1.295 	-0.021
 4.092 	0.676 	-0.150
 4.127 	0.449 	-0.141
 4.619 	0.276 	-0.518
 4.231 	-0.413 	-0.042
 3.844 	-0.355 	0.023
 4.055 	-0.189 	0.168
 3.870 	-1.268 	-0.065
 3.286 	-0.446 	0.143
 3.730 	0.421 	0.054
 4.010 	0.113 	0.212
 4.082 	0.458 	-0.166
 4.001 	-0.132 	-0.159
 4.066 	0.149 	0.217
 4.520 	0.608 	-0.373
 3.693 	0.577 	0.098
 3.585 	0.737 	0.174
 4.323 	1.272 	-0.135
 4.537 	0.850 	-0.258
 4.306 	0.762 	-0.103
 4.066 	0.060 	0.237
 3.294 	-0.182 	0.234
 2.900 	-0.246 	0.211
 4.620 	-0.767 	-0.100
 3.547 	-0.630 	0.147
 3.987 	0.109 	-0.193
 3.723 	-0.452 	-0.110
 3.237 	-0.205 	0.292
 3.626 	-0.415 	0.051
 3.736 	0.100 	-0.176
 3.954 	0.538 	-0.055
 4.617 	0.910 	-0.076
 4.354 	0.374 	-0.012
 4.053 	0.396 	0.307
 4.022 	0.790 	0.137
 4.369 	0.674 	0.025
 4.178 	0.555 	-0.274
 4.063 	0.418 	-0.079
 3.741 	0.253 	-0.177
 3.905 	-0.594 	0.332
 4.572 	0.325 	-0.484
 3.507 	0.172 	0.088
 3.317 	0.017 	0.133
 2.770 	-0.630 	0.184
 2.794 	-0.418 	0.201
 3.421 	0.153 	-0.351
 3.142 	-0.016 	0.154
 3.144 	0.261 	0.287
 3.150 	0.221 	0.222
 3.302 	-0.500 	0.112
 3.169 	0.360 	0.207
 3.008 	0.370 	0.077
 2.980 	0.416 	0.344
 2.911 	0.204 	0.286
 3.403 	-0.001 	0.164
 2.629 	0.789 	0.462
 3.491 	1.057 	-0.047
 3.395 	0.078 	0.494
 3.903 	0.060 	-0.269
 4.000 	-0.751 	-0.137
 3.745 	-0.251 	0.232
 2.126 	0.275 	0.469
 3.204 	0.079 	-0.156
 3.390 	-0.430 	0.112
 3.058 	-0.233 	-0.027
 2.462 	-0.385 	0.170
 2.567 	-0.016 	0.307
 2.718 	0.691 	0.249
 2.877 	0.353 	0.103
 3.421 	-0.151 	-0.089
 3.303 	-0.341 	0.082
 4.026 	0.038 	0.251
 4.046 	0.741 	0.168
 4.074 	0.083 	-0.104
 3.740 	0.054 	-0.072
 3.770 	-0.236 	-0.105
 3.718 	-0.153 	-0.162
 4.038 	0.422 	-0.087
 3.801 	-0.115 	-0.256
 4.445 	0.320 	-0.052
 3.333 	-0.644 	0.140
 3.480 	-0.534 	-0.159
 3.571 	-0.267 	-0.280
 3.738 	0.100 	0.064
 3.920 	0.312 	-0.241
 3.999 	-0.253 	-0.236
 3.803 	-0.057 	-0.160
 3.998 	-0.191 	-0.043
 4.194 	-0.122 	-0.154
 4.223 	0.181 	-0.217
 3.686 	0.613 	0.549
 3.276 	-0.161 	0.113
 3.443 	-0.462 	0.110
 3.702 	-0.169 	0.097
 3.471 	0.550 	0.036
 3.643 	0.141 	-0.167
 4.000 	-0.103 	-0.301
 3.545 	-0.062 	0.145
 3.748 	-0.358 	-0.120
 3.470 	0.087 	-0.158
 3.482 	0.264 	0.042
 3.318 	0.014 	0.017
 3.639 	0.479 	-0.119
 2.542 	-0.303 	0.257
 2.565 	-0.339 	-0.051
 3.248 	-0.169 	-0.114
 3.799 	0.302 	-0.017
 3.516 	-0.158 	0.224
 3.536 	-0.495 	0.062
 2.994 	-0.566 	0.086
 3.347 	0.225 	0.074
 3.464 	0.141 	-0.016
 2.814 	-0.205 	-0.003
 3.167 	-0.016 	-0.095
 2.896 	-0.086 	0.359
 2.958 	0.113 	0.211
 2.841 	0.038 	0.065
 3.009 	0.207 	-0.002
 2.811 	0.074 	0.377
 6.739 	0.562 	-0.446
 6.918 	0.347 	-0.190
 5.621 	0.233 	0.087
 4.249 	0.495 	0.979
 4.627 	0.828 	0.818
 4.910 	0.355 	0.670
 5.346 	0.575 	0.583
 5.429 	1.116 	0.242
 5.472 	0.463 	0.020
 5.180 	-0.259 	0.320
 5.845 	0.536 	0.039
 6.278 	1.166 	-0.092
 6.135 	1.844 	-0.233
 5.372 	0.854 	0.514
 5.143 	0.275 	0.594
 5.065 	0.217 	-0.001
 6.421 	0.918 	0.101
 5.307 	0.338 	0.481
 4.353 	1.064 	0.408
 4.259 	1.083 	0.275
 4.462 	0.528 	0.366
 5.258 	0.178 	0.148
 5.460 	0.680 	-0.199
 5.424 	0.333 	0.075
 6.337 	-0.610 	-0.603
 5.104 	-0.399 	-0.155
 5.194 	0.836 	0.192
 4.843 	0.272 	0.464
 5.678 	1.716 	0.311
 5.597 	0.852 	0.350
 6.134 	0.639 	0.095
 6.058 	0.653 	-0.494
 5.105 	0.641 	-0.172
 5.294 	0.975 	0.425
 4.913 	0.968 	0.260
 5.612 	0.200 	-0.187
 5.333 	0.261 	0.224
 4.451 	-0.131 	0.778
 4.993 	0.973 	0.510
 4.966 	-0.296 	-0.058
 5.146 	0.242 	-0.530
 5.039 	0.112 	0.142
 5.724 	0.311 	0.058
 5.019 	0.223 	-0.241
 5.474 	1.268 	-0.150
 5.147 	0.339 	0.800
 4.806 	0.613 	0.184
 4.281 	-0.020 	0.003
 4.626 	0.789 	0.798
 5.087 	0.699 	0.335
 5.033 	0.142 	0.421
 5.032 	0.157 	0.170
 5.100 	0.403 	0.121
 4.132 	-0.114 	0.544
 3.940 	-0.142 	0.668
 4.721 	0.902 	-0.314
 5.347 	0.632 	-0.689
 5.187 	0.083 	-0.175
 5.138 	0.044 	-0.546
 4.844 	0.514 	0.265
 4.199 	0.816 	0.563
 4.225 	0.347 	0.654
 5.438 	0.841 	-0.521
 5.771 	0.934 	-0.035
 4.891 	0.463 	0.547
 4.917 	-0.116 	0.606
 4.732 	-0.039 	0.239
 4.381 	-0.523 	0.656
 4.919 	0.033 	0.120
 3.979 	-0.209 	0.190
 3.497 	-0.129 	0.461
 3.863 	-0.153 	0.251
 4.152 	0.780 	0.129
 3.843 	-0.160 	0.303
 4.189 	0.071 	0.325
 4.404 	0.387 	0.303
 4.098 	0.362 	0.187
 3.912 	0.062 	-0.037
 3.542 	0.573 	-0.227
 4.105 	0.550 	0.186
 6.482 	-0.067 	0.167
 5.307 	-0.044 	0.234
 4.773 	0.189 	0.273
 5.170 	-0.079 	0.393
 5.068 	0.044 	-0.048
 5.145 	-0.283 	0.496
 5.299 	-0.476 	0.181
 5.226 	-0.041 	0.020
 5.509 	0.555 	0.010
 5.356 	-0.099 	-0.186
 4.581 	-0.515 	0.613
 4.606 	-0.101 	0.310
 4.787 	0.403 	0.303
 4.505 	0.555 	0.034
 4.188 	0.452 	-0.146
 4.207 	0.457 	0.166
 5.191 	-0.388 	0.311
 5.533 	0.089 	0.167
 5.446 	-0.564 	-0.161
 5.036 	-0.299 	-0.140
 5.516 	-0.071 	-0.058
 5.581 	-0.246 	-0.128
 5.782 	-0.109 	-0.409
 5.721 	-0.162 	-0.505
 5.876 	0.063 	-0.054
 6.312 	0.284 	-0.439
 5.667 	0.036 	-0.250
 5.519 	-0.079 	0.430
 4.623 	0.251 	0.368
 4.528 	-0.264 	0.481
 4.962 	0.231 	-0.298
 5.005 	0.966 	-0.641
 5.036 	-0.699 	-0.636
 5.285 	-0.311 	-0.636
 4.669 	-0.395 	-0.126
 4.406 	-0.684 	-0.102
 4.776 	-0.192 	-0.015
 5.085 	0.187 	-0.344
 5.255 	-0.509 	-0.044
 5.372 	-0.541 	-0.120
 5.442 	-0.222 	-0.491
 5.313 	0.393 	-0.259
 5.287 	0.691 	0.259
 5.397 	0.435 	-0.194
 5.110 	0.173 	0.023
 5.252 	0.116 	-0.180
 4.815 	0.059 	0.061
 4.447 	0.225 	0.429
 4.853 	0.104 	-0.407
 3.962 	-1.081 	0.920
 4.051 	-0.649 	0.461
 3.973 	-0.798 	0.083
 3.246 	-0.394 	0.134
 3.842 	-0.233 	0.346
 4.085 	-0.698 	-0.423
 4.523 	-0.357 	0.187
 5.200 	-0.398 	-0.133
 5.123 	0.196 	-0.187
 5.390 	0.687 	-0.190
 5.188 	0.264 	-0.376
 4.801 	-0.196 	-0.589
 5.032 	0.242 	0.057
 4.529 	0.616 	0.225
 4.266 	-0.527 	0.573
 5.328 	1.062 	-0.324
 5.117 	-0.722 	0.391
 4.232 	-0.783 	0.690
 3.846 	-0.432 	0.510
 3.767 	-0.555 	0.364
 4.083 	-0.735 	0.447
 4.525 	-0.651 	-0.236
 4.561 	-0.645 	-0.121
 4.707 	0.158 	-0.351
 4.686 	-0.263 	-0.113
 4.804 	0.380 	0.279
 4.375 	0.335 	0.200
 4.470 	0.376 	-0.809
 4.944 	0.771 	-0.148
 4.614 	0.508 	-0.241
 4.980 	0.013 	-0.095
 5.000 	0.848 	-0.552
 5.052 	-0.413 	0.211
 4.440 	-0.612 	0.251
 4.518 	-0.308 	0.358
 4.457 	-0.316 	-0.045
 3.812 	-0.835 	0.223
 3.860 	-0.734 	-0.207
 4.174 	-0.318 	-0.553
 3.856 	-0.315 	0.415
 4.272 	-0.138 	0.403
 4.442 	-0.336 	0.816
 4.375 	0.302 	0.382
 3.953 	0.483 	-0.092
 3.945 	0.612 	0.113
 4.637 	0.666 	0.139
 4.809 	0.541 	-0.481
 5.082 	0.486 	-0.767
 5.773 	-0.003 	-0.741
 5.567 	0.472 	-0.181
 4.415 	-0.064 	-0.240
 4.414 	-0.367 	0.122
 4.519 	-0.639 	0.434
 3.867 	-0.594 	0.596
 3.978 	-0.081 	-0.309
 3.275 	0.128 	0.497
 3.176 	-0.218 	0.140
 3.754 	-0.474 	0.150
 3.579 	-0.017 	0.322
 3.623 	0.291 	0.966
 3.821 	0.759 	0.301
 3.916 	0.626 	-0.210
 4.481 	0.669 	-0.103
 4.170 	-0.031 	-0.384
 4.920 	0.090 	-0.144
 5.507 	-0.060 	0.013
 5.050 	0.646 	-0.077
 5.409 	0.804 	-0.488
 5.319 	-0.324 	0.015
 4.817 	-0.293 	0.166
 4.046 	0.351 	0.061
 3.854 	-0.101 	0.383
 3.848 	-0.137 	0.391
 3.560 	0.011 	0.418
 3.082 	-0.120 	0.661
 3.372 	-0.126 	0.260
 3.918 	0.328 	-0.205
 4.033 	0.512 	-0.211
 4.307 	0.932 	-0.118
 4.915 	0.134 	0.219
 4.978 	0.108 	0.335
 5.139 	0.507 	-0.063
 5.489 	0.577 	-0.100
 4.404 	0.304 	0.499
 4.339 	0.050 	0.196
 4.047 	-0.359 	0.137
 4.218 	0.104 	-0.271
 4.511 	-0.239 	-0.186
 4.346 	-0.192 	-0.076
 4.518 	-0.158 	-0.127
 4.019 	-0.202 	-0.012
 3.857 	-0.755 	0.290
 4.026 	-0.201 	-0.000
 3.961 	0.836 	0.148
 4.226 	0.779 	0.044
 4.645 	-0.054 	0.160
 5.165 	0.147 	0.525
 4.957 	0.362 	0.838
 5.146 	0.720 	0.346
 4.300 	0.245 	0.465
 4.316 	-0.207 	0.160
 4.222 	-0.144 	0.049
 4.553 	-0.434 	-0.051
 4.424 	-0.303 	-0.066
 4.146 	-0.147 	-0.137
 4.192 	-0.154 	-0.051
 4.060 	-0.142 	-0.094
 3.588 	-0.320 	0.112
 3.192 	-1.145 	0.175
 3.527 	0.397 	0.277
 3.787 	-0.373 	-0.022
 4.598 	-0.812 	0.616
 4.511 	-0.481 	0.300
 4.869 	0.153 	0.397
 4.745 	0.069 	0.476
 4.330 	0.270 	0.463
 4.217 	-0.164 	0.367
 3.839 	-0.269 	0.070
 3.867 	-0.589 	0.176
 4.062 	-0.090 	-0.002
 3.917 	0.126 	-0.070
 3.702 	-0.220 	-0.038
 3.623 	-0.230 	0.050
 3.000 	-0.586 	0.635
 3.309 	-0.901 	0.301
 3.296 	-0.909 	0.217
 3.536 	-1.343 	0.161
 6.604 	-0.196 	-0.168
 6.733 	0.256 	0.506
 5.947 	0.302 	0.525
 5.803 	-0.386 	0.137
 6.034 	0.462 	0.359
 5.932 	-0.131 	0.532
 6.139 	0.709 	0.983
 6.528 	1.300 	0.631
 6.112 	1.454 	0.268
 6.546 	-0.113 	0.002
 6.887 	-0.180 	-0.133
 6.241 	-0.280 	0.017
 6.610 	1.260 	0.564
 7.061 	1.719 	0.007
 5.853 	1.569 	0.482
 6.394 	1.064 	0.025
 7.177 	0.275 	0.065
 5.666 	-0.165 	1.376
 6.582 	0.740 	0.674
 5.627 	0.866 	0.380
 5.853 	0.186 	0.490
 6.519 	0.153 	0.385
 6.030 	0.556 	-0.108
 6.173 	0.846 	0.117
 6.541 	0.623 	-0.835
 6.878 	0.362 	-0.498
 7.007 	0.413 	-0.032
 5.848 	0.962 	0.434
 6.126 	-0.086 	0.840
 6.427 	1.824 	0.661
 6.782 	1.204 	0.278
 6.623 	1.316 	0.164
 6.259 	0.836 	-0.132
 6.241 	0.621 	0.665
 6.413 	0.469 	0.076
 6.091 	1.115 	-0.168
 5.213 	-0.131 	0.966
 6.532 	0.437 	-0.025
 7.103 	0.929 	-0.726
 6.844 	0.383 	-0.475
 6.801 	0.715 	-0.813
 6.796 	0.095 	-0.095
 6.657 	0.679 	0.637
 7.254 	0.530 	-0.024
 5.863 	-0.157 	0.496
 5.841 	0.612 	0.595
 6.066 	1.425 	0.363
 5.547 	0.578 	0.372
 5.275 	0.743 	0.133
 4.949 	0.345 	1.032
 5.086 	0.296 	1.050
 5.920 	1.286 	0.739
 5.600 	0.624 	0.439
 5.538 	0.192 	0.534
 6.195 	-0.050 	0.510
 6.565 	0.964 	-0.300
 6.784 	0.909 	-0.095
 5.850 	0.513 	0.712
 4.676 	0.111 	0.398
 4.478 	-0.412 	1.005
 4.006 	0.482 	0.395
 4.061 	0.092 	0.634
 5.419 	0.728 	0.450
 5.182 	0.416 	0.440
 4.823 	0.313 	0.883
 5.136 	-0.008 	1.208
 4.746 	0.613 	0.522
 4.907 	0.896 	0.321
 5.356 	0.512 	0.232
 5.496 	0.558 	0.709
 5.270 	-0.296 	0.487
 5.448 	0.603 	0.050
 5.356 	1.308 	0.297
 4.281 	0.244 	0.547
 4.392 	0.071 	0.668
 5.153 	-0.004 	0.759
 4.924 	-0.029 	0.657
 5.166 	-0.267 	0.206
 4.333 	-0.134 	0.202
 4.912 	-0.279 	0.518
 4.935 	-0.049 	0.420
 5.086 	-0.025 	0.153
 5.329 	-0.381 	0.198
 5.782 	0.777 	0.047
 5.958 	0.217 	-0.130
 5.726 	0.044 	0.797
 5.715 	0.351 	0.599
 5.887 	0.574 	0.031
 6.099 	1.691 	0.361
 5.655 	0.558 	0.556
 5.459 	0.150 	0.369
 5.271 	-0.218 	0.375
 5.310 	-0.486 	0.577
 5.438 	-0.432 	0.113
 5.495 	-0.202 	-0.407
 5.641 	0.022 	-0.013
 6.321 	0.286 	0.211
 5.691 	0.115 	0.088
 6.194 	-0.611 	-0.256
 5.841 	0.236 	-0.112
 6.331 	0.084 	0.014
 6.009 	0.311 	0.196
 5.341 	-0.070 	0.086
 5.365 	-0.783 	-0.249
 6.028 	0.212 	0.277
 6.210 	0.159 	-0.300
 5.737 	0.160 	-0.000
 5.287 	-0.012 	0.700
 5.300 	-0.045 	0.081
 5.572 	-0.383 	0.288
 5.369 	-0.199 	-0.182
 5.212 	0.334 	-0.253
 5.761 	-0.012 	0.014
 5.896 	0.271 	-0.097
 6.438 	0.177 	0.039
 5.050 	-0.463 	0.126
 5.558 	-0.288 	0.460
 5.721 	0.779 	0.019
 5.091 	-0.586 	0.081
 5.396 	-0.806 	0.308
 5.428 	-0.058 	-0.223
 5.650 	0.183 	-0.450
 5.545 	0.196 	-0.129
 5.610 	0.136 	0.507
 5.639 	0.040 	-0.480
 5.524 	0.156 	0.223
 5.152 	-0.084 	-0.237
 5.310 	-0.149 	0.116
 4.791 	0.379 	0.011
 4.245 	0.383 	0.886
 4.339 	-0.019 	0.910
 4.861 	-0.927 	0.815
 4.868 	-0.868 	0.684
 4.815 	-0.840 	0.229
 4.705 	-0.916 	-0.153
 4.402 	-1.215 	0.182
 4.216 	-0.761 	0.378
 4.387 	-0.319 	0.515
 4.729 	0.071 	0.395
 5.408 	0.303 	0.018
 5.609 	0.531 	-0.572
 5.150 	0.008 	0.005
 4.876 	-0.014 	-0.186
 4.744 	0.282 	0.480
 5.311 	0.469 	-0.314
 5.396 	0.480 	0.527
 5.098 	-0.621 	0.171
 5.749 	-0.668 	0.344
 5.566 	-0.754 	0.389
 5.451 	-0.950 	0.423
 6.108 	-1.058 	-0.400
 6.011 	-0.579 	-0.327
 4.862 	-0.699 	-0.066
 3.838 	-0.887 	0.429
 3.934 	-0.737 	0.147
 4.743 	-1.286 	0.038
 4.924 	-0.157 	-0.674
 4.951 	0.015 	-0.686
 5.233 	0.475 	-0.251
 4.880 	0.448 	-0.162
 5.757 	0.575 	0.108
 5.714 	0.699 	0.197
 5.920 	-0.494 	0.103
 6.010 	-0.439 	0.319
 5.845 	-0.842 	0.178
 5.795 	-0.688 	0.175
 5.260 	-0.903 	-0.211
 5.222 	-0.656 	-0.418
 4.896 	-0.190 	0.280
 3.667 	-0.694 	0.572
 3.493 	-0.748 	0.221
 4.330 	-0.760 	0.056
 4.684 	-0.321 	0.249
 4.567 	-0.010 	-0.690
 4.985 	0.594 	-0.359
 5.034 	0.330 	-0.176
 4.956 	0.208 	0.115
 5.359 	-0.828 	-0.723
 6.073 	-0.460 	-0.685
 5.868 	-1.152 	-0.747
 5.890 	-0.223 	-0.187
 5.540 	-0.193 	0.174
 5.031 	0.038 	0.039
 4.433 	-1.010 	0.612
 4.537 	0.148 	0.337
 4.848 	-0.634 	0.166
 3.702 	-0.522 	0.593
 3.613 	-0.428 	0.415
 3.701 	0.016 	0.827
 4.343 	-0.253 	0.212
 4.791 	0.084 	-0.589
 4.756 	0.449 	-0.488
 5.103 	-0.338 	-0.679
 5.508 	-1.358 	-0.148
 5.909 	-1.064 	-0.390
 6.025 	-0.682 	-0.473
 6.054 	-0.649 	-0.796
 6.308 	0.299 	-0.448
 6.526 	0.285 	-0.345
 6.184 	0.091 	0.021
 5.034 	-0.202 	0.433
 4.402 	-0.403 	0.583
 4.041 	-0.600 	0.271
 3.875 	-0.090 	0.790
 4.222 	-0.457 	0.385
 4.924 	-0.187 	0.385
 5.082 	0.612 	-0.070
 5.339 	0.154 	-0.480
 4.924 	-1.234 	0.062
 5.226 	-0.974 	-0.129
 5.292 	-0.653 	0.176
 4.925 	-0.541 	-0.066
 5.213 	-0.326 	-0.080
 5.221 	0.388 	0.423
 5.896 	0.449 	0.507
 6.129 	0.853 	0.104
 5.814 	0.358 	0.369
 5.339 	-0.340 	0.374
 4.481 	-0.005 	0.004
 3.926 	-0.005 	0.621
 4.178 	-0.368 	0.637
 4.192 	-0.269 	0.384
 4.658 	-0.182 	0.205
 4.775 	0.054 	0.306
 4.928 	-1.519 	0.775
 4.992 	-1.133 	0.472
 5.001 	-0.520 	0.478
 4.894 	-0.451 	0.246
 5.205 	0.107 	0.384
 4.899 	0.073 	0.811
 5.023 	0.016 	0.240
 4.881 	0.088 	0.449
 5.420 	-0.044 	-0.187
 4.961 	0.235 	-0.033
 4.285 	0.134 	-0.153
 4.463 	-0.002 	0.032
 4.611 	-0.528 	-0.024
 4.097 	-0.273 	0.115
 3.891 	-0.701 	0.339
 4.070 	-0.180 	0.873
 4.877 	-0.868 	0.448
 4.854 	-0.823 	0.515
 4.200 	-0.252 	0.440
 4.366 	-0.309 	0.447
 4.579 	0.191 	0.875
 4.687 	0.098 	0.899
 4.247 	0.002 	0.416
 4.411 	-0.410 	0.287
 4.489 	-0.191 	0.078
 4.724 	0.297 	-0.085
 4.442 	0.362 	0.309
 4.887 	0.060 	0.095
 4.080 	-0.417 	0.386
 4.272 	0.366 	0.243
 3.914 	0.054 	-0.081
 3.735 	0.102 	0.092
 7.155 	-0.636 	0.078
 6.625 	-0.767 	0.270
 7.568 	0.177 	0.662
 6.063 	-0.173 	0.568
 5.487 	0.388 	0.958
 5.647 	0.270 	0.395
 6.127 	0.647 	0.233
 5.975 	1.263 	0.690
 6.431 	1.136 	0.217
 6.971 	0.060 	-0.358
 7.935 	0.185 	-0.321
 7.383 	-0.041 	-0.049
 7.338 	0.166 	0.029
 7.517 	0.994 	0.254
 7.949 	1.159 	-0.067
 7.641 	0.804 	0.302
 6.593 	-0.413 	0.401
 6.070 	-0.631 	0.661
 6.258 	0.086 	0.221
 6.690 	0.635 	0.391
 6.463 	0.478 	0.379
 6.584 	0.718 	0.104
 6.321 	0.779 	-0.227
 7.265 	0.896 	0.229
 7.159 	0.303 	-0.696
 6.452 	-0.143 	0.304
 5.731 	0.206 	-0.168
 6.093 	-0.267 	-0.070
 7.340 	0.079 	1.025
 6.773 	0.826 	0.649
 7.117 	1.457 	0.725
 7.029 	0.488 	0.098
 5.439 	-0.304 	-0.006
 6.384 	-0.698 	-0.078
 6.587 	0.001 	-0.372
 6.508 	0.776 	0.070
 7.118 	0.772 	0.274
 6.693 	0.561 	-0.394
 7.130 	0.358 	-0.643
 6.682 	0.649 	-0.943
 7.060 	0.639 	-1.249
 6.934 	-0.039 	0.577
 5.661 	0.024 	0.524
 5.843 	-0.056 	1.039
 5.396 	-0.071 	0.555
 6.581 	1.191 	0.966
 6.240 	0.876 	0.827
 6.229 	0.814 	0.326
 5.431 	-0.962 	-0.216
 5.661 	-0.408 	0.604
 5.642 	0.496 	0.528
 5.434 	-0.095 	0.871
 6.285 	0.639 	0.510
 6.884 	0.611 	0.371
 7.304 	0.419 	0.632
 7.258 	0.893 	0.126
 5.913 	0.555 	0.717
 5.166 	0.048 	0.881
 4.892 	0.453 	0.572
 4.636 	0.144 	0.876
 3.955 	-0.215 	1.040
 4.266 	0.262 	0.723
 4.941 	0.007 	0.498
 5.609 	1.085 	0.440
 6.076 	-0.413 	0.390
 5.232 	1.187 	1.028
 5.702 	1.008 	0.153
 5.668 	1.048 	-0.237
 5.856 	0.419 	0.159
 6.073 	0.210 	0.963
 6.557 	-0.283 	0.926
 6.754 	1.093 	0.418
 6.559 	1.089 	0.621
 5.795 	0.731 	0.751
 5.084 	0.068 	0.985
 4.795 	0.517 	0.503
 4.826 	0.102 	0.608
 4.910 	0.079 	0.712
 4.551 	-0.555 	0.908
 4.373 	0.399 	1.051
 5.169 	1.370 	0.914
 5.049 	1.644 	0.417
 5.108 	0.664 	0.178
 6.003 	-0.242 	0.041
 6.406 	0.143 	-0.372
 6.130 	0.046 	0.500
 6.791 	-0.005 	-0.147
 6.314 	0.624 	0.219
 5.564 	0.937 	1.248
 5.536 	0.408 	1.045
 5.394 	-0.048 	0.678
 5.531 	0.012 	0.546
 5.732 	0.127 	0.754
 5.916 	-0.473 	0.138
 5.610 	-0.482 	0.193
 5.127 	0.028 	0.274
 4.835 	0.784 	0.302
 5.537 	0.559 	0.244
 6.026 	0.374 	0.134
 6.476 	0.043 	0.575
 6.164 	-0.246 	0.376
 5.938 	0.538 	0.368
 5.554 	0.219 	0.822
 5.569 	0.747 	0.606
 6.326 	0.996 	0.288
 6.621 	0.390 	-0.203
 6.411 	-0.146 	0.152
 6.128 	-0.160 	0.541
 6.296 	0.041 	-0.288
 6.242 	-0.237 	0.134
 6.078 	-0.057 	-0.094
 5.566 	-0.241 	-0.127
 5.662 	0.808 	-0.338
 6.355 	-0.031 	0.028
 6.614 	0.693 	-0.387
 5.652 	-0.252 	0.966
 4.702 	-1.058 	1.080
 4.907 	-0.581 	1.000
 5.473 	0.794 	0.542
 5.180 	-0.461 	0.552
 5.974 	-0.617 	-0.299
 6.344 	-0.264 	-0.487
 6.164 	-0.004 	0.142
 6.122 	0.200 	0.441
 5.978 	-0.017 	-0.304
 6.011 	0.027 	0.272
 5.699 	0.037 	0.154
 5.742 	-0.304 	-0.137
 4.973 	-0.480 	0.256
 4.816 	0.052 	1.174
 4.075 	0.255 	1.184
 4.092 	-0.504 	0.848
 5.005 	-0.642 	0.409
 4.950 	-0.752 	-0.013
 5.130 	-0.027 	0.012
 5.071 	-0.608 	0.030
 4.958 	-1.488 	0.847
 5.524 	-0.389 	0.489
 5.870 	0.093 	0.150
 5.338 	0.049 	-0.103
 5.229 	-0.036 	-0.467
 5.487 	0.218 	0.059
 5.432 	-0.159 	0.066
 4.754 	0.300 	0.490
 5.956 	0.000 	-0.462
 5.182 	0.795 	0.624
 4.993 	0.565 	0.366
 4.837 	0.129 	-0.112
 4.956 	-0.148 	-0.488
 5.349 	-0.197 	-0.017
 5.606 	-0.595 	-0.345
 5.625 	-1.053 	0.133
 5.425 	-0.638 	0.096
 4.631 	-0.508 	0.364
 4.688 	0.014 	0.140
 4.960 	-0.007 	0.162
 5.020 	0.219 	0.043
 5.230 	-0.422 	-0.081
 5.223 	0.170 	-0.083
 5.591 	0.331 	-0.090
 5.766 	0.418 	-0.133
 5.895 	0.798 	0.477
 5.273 	0.651 	0.107
 5.900 	0.243 	-0.252
 5.960 	-0.628 	0.413
 6.527 	-0.018 	-0.682
 6.245 	-0.289 	0.124
 5.604 	-0.038 	-0.128
 5.008 	-0.398 	1.135
 4.676 	-0.657 	0.467
 4.783 	-0.348 	0.217
 5.387 	-0.332 	-0.355
 5.568 	-0.393 	-0.419
 5.510 	-0.427 	-0.235
 5.336 	-0.325 	-0.373
 5.620 	0.057 	0.006
 5.364 	0.790 	-0.422
 5.510 	0.325 	0.165
 6.152 	0.124 	0.041
 6.113 	0.133 	-0.112
 6.332 	-0.035 	-0.014
 6.650 	-0.292 	-0.001
 6.015 	-0.240 	0.281
 5.831 	0.476 	0.084
 5.793 	0.115 	0.799
 5.864 	-0.413 	0.546
 4.502 	-0.388 	0.830
 4.852 	-0.704 	0.490
 5.572 	-0.144 	0.313
 6.062 	-0.236 	-0.628
 5.597 	-0.761 	-0.006
 5.808 	-0.259 	-0.631
 5.748 	0.613 	-0.171
 5.743 	-0.161 	0.176
 5.942 	-0.442 	-0.054
 6.305 	-0.389 	-0.682
 5.908 	-0.781 	-0.520
 5.623 	-0.548 	-0.535
 5.392 	0.190 	-0.099
 6.414 	0.266 	-0.244
 6.097 	0.245 	0.210
 6.012 	-0.271 	0.528
 5.516 	-0.267 	0.624
 5.915 	-0.979 	0.097
 6.083 	-0.896 	0.201
 5.659 	-0.402 	-0.448
 5.360 	-0.192 	0.024
 5.610 	-0.411 	-0.148
 5.040 	-0.779 	0.544
 5.666 	-0.688 	-0.065
 5.509 	-0.873 	0.044
 5.126 	-0.770 	0.070
 5.028 	-0.249 	-0.110
 5.153 	-0.438 	-0.140
 5.119 	0.022 	0.176
 5.526 	-0.124 	-0.163
 6.002 	0.591 	0.193
 6.391 	-0.053 	0.901
 5.904 	-0.506 	0.261
 5.815 	-0.083 	0.147
 5.405 	-0.514 	0.202
 4.645 	0.016 	0.519
 5.126 	-0.178 	0.352
 5.559 	-0.448 	0.176
 5.588 	-0.752 	0.626
 5.335 	-0.945 	0.273
 5.214 	-0.529 	0.303
 4.894 	-0.618 	-0.060
 4.402 	-0.517 	0.744
 4.748 	0.057 	0.923
 5.097 	-0.313 	0.515
 5.331 	-0.372 	0.500
 5.608 	0.389 	0.319
 6.058 	0.317 	0.158
 6.163 	0.224 	-0.210
 6.195 	0.492 	-0.086
 4.824 	-0.276 	0.542
 4.559 	-0.084 	0.391
 4.766 	-1.180 	0.337
 4.719 	-0.192 	0.509
 5.285 	-0.415 	0.418
 5.333 	-0.525 	0.358
 4.550 	-0.323 	0.480
 4.557 	-0.218 	0.556
 4.365 	-0.392 	0.618
 4.541 	-0.048 	0.337
 4.494 	0.110 	0.367
 4.391 	-0.409 	0.216
 4.678 	-0.292 	-0.189
 4.749 	-0.206 	-0.127
 4.682 	0.064 	0.045
 5.086 	0.243 	0.127
 5.263 	-0.068 	0.248
 5.098 	0.004 	0.188
 4.754 	-0.488 	0.026
 4.362 	-0.447 	0.580
 7.898 	-0.159 	0.394
 6.934 	-0.431 	0.389
 6.895 	-0.582 	0.283
 6.737 	-0.183 	0.672
 6.985 	-0.181 	-0.059
 6.672 	0.199 	0.238
 6.788 	-0.230 	0.155
 7.041 	0.263 	0.327
 7.025 	0.457 	0.260
 7.575 	0.132 	-0.434
 7.551 	-0.753 	-0.628
 8.300 	0.367 	-0.148
 8.249 	0.515 	0.144
 8.591 	1.089 	0.240
 8.412 	0.709 	0.503
 7.466 	0.447 	0.646
 7.044 	-0.312 	0.558
 7.183 	-0.256 	0.101
 7.098 	-0.097 	0.459
 6.688 	-0.232 	-0.140
 6.683 	0.110 	0.298
 7.067 	0.605 	0.391
 6.332 	-0.531 	-0.458
 6.539 	-0.051 	0.570
 7.054 	0.714 	-0.326
 6.954 	-0.873 	0.498
 6.991 	0.198 	0.007
 6.504 	0.085 	0.778
 6.631 	0.441 	1.425
 6.229 	0.791 	0.935
 6.119 	0.377 	0.704
 6.248 	0.671 	0.487
 5.667 	-0.335 	-0.158
 6.034 	-0.636 	0.169
 6.158 	-0.454 	-0.179
 6.333 	0.188 	0.069
 6.809 	0.560 	0.108
 6.874 	0.536 	-0.599
 6.365 	-0.204 	-0.203
 6.213 	-0.279 	-0.822
 6.667 	0.146 	-0.145
 5.757 	0.218 	0.580
 4.993 	-0.160 	1.324
 5.853 	-0.223 	1.086
 5.485 	0.444 	0.826
 5.500 	-0.115 	0.599
 5.625 	0.266 	0.935
 5.717 	0.432 	1.037
 6.134 	-0.903 	-0.383
 6.679 	-0.811 	-0.006
 5.692 	-0.196 	0.230
 6.062 	0.353 	-0.256
 6.466 	-0.551 	0.900
 7.456 	0.070 	0.669
 6.388 	-0.007 	0.357
 6.602 	-0.489 	0.192
 6.592 	0.330 	-0.056
 6.294 	0.394 	1.303
 6.037 	0.634 	1.292
 4.724 	-0.156 	0.774
 4.728 	0.045 	0.813
 4.449 	-0.210 	1.274
 5.105 	-0.315 	0.336
 5.734 	0.577 	0.615
 7.030 	-1.239 	-0.864
 5.882 	0.220 	0.376
 5.381 	-0.025 	0.235
 6.450 	0.127 	-0.081
 6.130 	-0.278 	-0.368
 6.490 	0.254 	0.966
 6.754 	-0.173 	0.734
 6.647 	0.237 	0.060
 6.536 	0.815 	0.652
 5.712 	0.908 	1.627
 5.285 	0.524 	1.073
 5.449 	0.284 	0.693
 4.812 	0.284 	0.690
 4.587 	0.051 	0.653
 4.653 	-0.068 	1.017
 5.197 	-0.495 	1.021
 6.032 	-0.476 	0.492
 5.624 	-0.148 	1.025
 5.748 	0.117 	0.411
 5.866 	-0.324 	-0.159
 6.243 	-0.859 	-0.189
 6.100 	0.753 	0.404
 6.147 	-0.402 	-0.035
 6.367 	0.805 	0.318
 5.995 	0.795 	1.561
 5.958 	1.618 	1.678
 6.171 	0.490 	0.747
 6.109 	-0.009 	0.960
 6.115 	-0.109 	0.739
 5.881 	-0.428 	0.212
 6.325 	-0.081 	0.002
 6.085 	-0.383 	0.090
 5.470 	-0.245 	0.554
 6.312 	-0.107 	0.012
 6.022 	-0.437 	0.193
 5.942 	-0.267 	0.484
 6.324 	-0.295 	0.467
 6.362 	0.263 	-0.138
 5.634 	-0.110 	0.665
 5.327 	0.434 	0.893
 5.701 	0.414 	0.555
 6.934 	0.851 	0.215
 7.097 	-0.005 	0.317
 7.007 	0.287 	0.329
 6.821 	0.005 	0.091
 6.569 	-0.214 	-0.024
 6.089 	-0.361 	0.108
 6.212 	-0.327 	0.155
 5.660 	-0.557 	0.205
 5.673 	-0.348 	-0.207
 6.052 	-0.659 	0.104
 5.124 	-0.144 	1.746
 5.509 	0.653 	1.345
 5.273 	0.733 	1.046
 5.172 	0.512 	1.059
 5.333 	0.018 	0.557
 6.348 	-1.131 	0.204
 5.952 	-0.569 	0.231
 6.215 	-0.247 	0.695
 6.314 	0.309 	0.324
 6.389 	0.084 	-0.111
 6.114 	-0.271 	0.036
 5.996 	-0.555 	0.355
 5.944 	-0.996 	0.044
 5.865 	-0.427 	0.500
 6.027 	-0.451 	0.132
 5.506 	0.043 	1.122
 5.400 	0.223 	0.481
 5.116 	0.537 	0.189
 5.235 	0.148 	0.084
 5.365 	0.200 	-0.079
 5.607 	0.061 	0.086
 4.889 	-1.521 	0.788
 6.191 	-1.030 	-0.160
 6.049 	-0.391 	0.162
 5.745 	0.184 	0.075
 5.909 	0.306 	-0.205
 5.749 	-0.150 	0.329
 6.222 	-0.575 	0.214
 6.507 	-0.762 	-0.263
 6.427 	-0.304 	0.098
 5.949 	-0.307 	-0.104
 6.199 	0.312 	0.715
 5.643 	0.519 	0.294
 5.883 	-0.028 	-0.282
 5.461 	0.196 	-0.270
 5.369 	0.296 	-0.322
 5.833 	-0.919 	0.151
 6.431 	-0.487 	-0.452
 5.337 	-0.748 	0.835
 5.034 	-0.262 	0.319
 5.172 	0.231 	0.064
 5.421 	0.005 	-0.216
 5.583 	-0.485 	-0.141
 6.135 	-0.684 	-0.359
 6.829 	-0.394 	-0.629
 6.079 	0.012 	0.085
 5.727 	-0.071 	0.047
 5.772 	0.707 	0.188
 6.357 	-0.088 	-0.381
 6.741 	-0.697 	-0.160
 6.486 	0.326 	0.001
 6.477 	-0.347 	0.079
 6.138 	-0.299 	0.185
 5.965 	-0.479 	0.853
 6.099 	-0.427 	0.981
 5.938 	-0.359 	0.604
 5.707 	-0.298 	0.045
 5.825 	-0.074 	-0.261
 6.196 	-0.121 	-0.553
 5.809 	-0.614 	-0.277
 5.969 	-0.337 	-0.166
 6.599 	-0.115 	-0.225
 6.450 	0.388 	0.173
 6.295 	-0.213 	0.137
 6.338 	-0.382 	-0.016
 6.266 	-0.539 	-0.082
 6.225 	-0.272 	-0.106
 6.618 	-0.208 	-0.065
 6.478 	-0.281 	-0.172
 5.969 	0.398 	0.598
 5.978 	-0.397 	0.940
 6.157 	-0.208 	0.282
 5.993 	-0.529 	0.275
 6.005 	-0.771 	0.250
 6.451 	-0.297 	-0.224
 6.273 	-0.314 	-0.299
 5.878 	-0.064 	-0.075
 6.103 	-0.035 	-0.012
 5.753 	0.388 	0.132
 5.896 	-0.268 	0.373
 6.023 	-0.843 	0.390
 6.040 	-0.261 	0.281
 5.729 	-0.603 	0.080
 5.736 	-0.382 	-0.065
 6.225 	-0.207 	-0.125
 6.620 	0.320 	-0.118
 6.238 	0.273 	0.509
 6.569 	-0.183 	0.787
 6.617 	-0.503 	0.391
 5.796 	-0.983 	0.263
 5.990 	-0.359 	-0.460
 6.048 	-0.538 	-0.085
 5.775 	-0.273 	0.017
 5.291 	-0.223 	0.657
 5.657 	0.491 	0.592
 5.843 	-0.402 	-0.353
 6.254 	-0.867 	-0.228
 6.064 	-0.186 	-0.023
 5.657 	-0.602 	-0.471
 5.294 	-1.210 	0.718
 5.734 	-1.056 	-0.384
 5.889 	0.422 	-0.218
 5.921 	0.638 	0.614
 6.277 	-0.241 	0.257
 5.778 	-0.319 	0.034
 5.145 	-0.440 	0.326
 5.097 	-0.351 	0.248
 5.087 	-0.664 	0.806
 5.124 	-0.740 	-0.014
 5.594 	-0.200 	0.519
 4.998 	0.370 	0.058
 5.894 	-0.314 	0.425
 5.177 	-0.396 	0.412
 4.555 	-0.279 	0.988
 5.214 	-0.021 	0.317
 5.648 	-0.642 	-0.996
 5.576 	-0.738 	0.299
 5.534 	0.083 	0.240
 5.544 	0.573 	0.119
 5.379 	-0.129 	0.192
 5.152 	0.153 	0.295
 4.621 	-0.344 	0.626
 4.850 	-0.421 	0.604
 4.849 	-0.767 	0.275
 5.075 	-0.697 	0.209
 5.205 	-0.155 	0.555
 6.054 	0.498 	0.008
 5.928 	-0.343 	0.530
 5.667 	-0.999 	1.142
 5.803 	-0.677 	1.064
 5.541 	0.002 	0.241
 5.013 	-0.038 	0.053
 5.656 	-0.060 	-0.500
 5.589 	-0.860 	-0.081
 6.026 	0.410 	0.627
 5.633 	-0.351 	0.242
 5.284 	-0.191 	0.237
 5.483 	0.041 	0.095
 5.302 	-0.598 	0.055
 5.009 	-0.414 	-0.051
 4.746 	-0.468 	0.981
 6.766 	-0.448 	0.230
 7.158 	-1.082 	0.408
 7.184 	-0.652 	0.683
 6.913 	-0.624 	0.256
 6.650 	-0.153 	0.718
 6.526 	-0.555 	-0.051
 6.996 	-0.336 	-0.009
 7.276 	0.472 	0.830
 7.151 	-0.260 	0.071
 7.422 	-0.496 	0.012
 7.731 	-0.694 	-0.863
 8.162 	1.004 	0.120
 8.050 	0.854 	0.244
 8.652 	0.578 	0.503
 7.925 	0.461 	0.840
 8.100 	0.433 	0.848
 6.740 	-0.782 	0.679
 6.323 	-0.890 	0.162
 6.442 	-0.360 	0.271
 6.770 	-0.210 	0.142
 6.502 	-0.249 	-0.008
 6.331 	-0.099 	-0.234
 6.391 	-0.233 	-0.618
 6.535 	0.827 	0.238
 6.569 	-0.141 	0.059
 6.951 	-0.244 	-0.043
 7.484 	-0.968 	-0.188
 7.701 	0.864 	1.138
 6.698 	-0.287 	1.048
 6.789 	0.452 	1.605
 6.919 	0.887 	0.934
 6.467 	0.366 	0.660
 6.261 	-0.729 	-0.003
 6.304 	-0.569 	0.115
 6.289 	-0.718 	-0.160
 6.608 	-0.838 	-0.203
 6.600 	-0.638 	0.417
 6.585 	-0.042 	-0.379
 6.606 	0.065 	-0.009
 6.499 	-0.246 	-0.089
 6.356 	-0.378 	-0.384
 6.361 	-0.189 	0.208
 6.922 	0.026 	0.880
 6.228 	0.172 	1.208
 5.574 	-0.102 	1.487
 5.846 	0.689 	1.090
 6.053 	0.574 	0.885
 5.797 	0.455 	0.856
 6.519 	-0.670 	0.301
 6.105 	-0.862 	0.130
 6.387 	-0.743 	-0.168
 6.050 	-0.812 	-0.209
 6.083 	-0.862 	0.596
 6.444 	-0.763 	0.602
 6.843 	-0.126 	0.466
 6.587 	-0.115 	-0.369
 6.005 	0.283 	0.882
 6.094 	1.089 	1.224
 5.877 	0.721 	1.370
 5.373 	-0.230 	1.025
 5.650 	-0.620 	1.153
 5.365 	0.220 	0.529
 6.016 	0.631 	0.491
 6.248 	0.517 	0.850
 6.424 	-1.347 	-0.492
 6.350 	-0.366 	0.301
 6.223 	-0.583 	-0.130
 5.828 	-0.539 	-0.211
 6.008 	-0.976 	0.101
 5.882 	-0.674 	-0.018
 6.203 	-0.306 	0.280
 6.709 	-0.171 	0.375
 6.117 	0.774 	1.025
 5.322 	0.786 	1.427
 5.757 	0.548 	1.113
 6.254 	-0.234 	0.627
 5.863 	0.045 	0.874
 5.953 	-0.581 	0.599
 5.976 	0.297 	0.583
 6.395 	1.488 	0.718
 5.603 	-0.899 	1.109
 6.162 	-0.413 	0.952