# vtk DataFile Version 3.0
HighT1
ASCII
DATASET STRUCTURED_POINTS
DIMENSIONS 16 16 19
ORIGIN 929.001000000000 929.001000000000 5.001000000000
SPACING 10.000000000000 10.000000000000 10.000000000000
POINT_DATA 4864
FIELD attributes 1
U 3 4864 float
3.273 	0.645 	-0.094
 3.674 	0.629 	-0.087
 3.971 	1.020 	0.306
 4.446 	0.996 	-0.362
 4.781 	0.952 	-0.193
 3.908 	0.743 	-0.046
 2.219 	0.814 	0.482
 2.556 	0.481 	0.269
 3.051 	0.324 	0.287
 4.127 	-0.577 	0.202
 4.989 	-1.137 	-0.111
 4.744 	-0.995 	-0.309
 4.365 	-1.185 	0.277
 4.833 	-1.298 	-0.159
 4.926 	-0.201 	0.139
 3.896 	-0.386 	0.552
 3.134 	0.678 	-0.239
 4.030 	1.275 	-0.382
 4.361 	1.032 	-0.368
 5.251 	1.209 	-0.020
 4.466 	2.015 	0.114
 3.811 	1.178 	0.080
 4.705 	1.010 	-0.808
 4.824 	0.121 	0.099
 4.856 	-0.595 	0.111
 4.546 	-0.944 	0.009
 4.425 	-0.981 	0.147
 4.683 	-1.154 	-0.100
 5.237 	-1.400 	0.027
 4.902 	-1.336 	-0.278
 5.064 	-0.254 	-0.053
 4.879 	-0.169 	0.265
 3.004 	0.819 	0.082
 3.061 	1.218 	0.130
 3.265 	0.101 	0.259
 3.141 	0.531 	0.237
 4.146 	1.381 	0.347
 4.110 	0.625 	0.184
 4.178 	-0.229 	-0.072
 4.749 	-0.919 	-0.323
 4.805 	-0.630 	-0.148
 4.267 	-0.786 	-0.069
 4.985 	-1.183 	-0.033
 4.887 	-1.097 	-0.234
 5.037 	-1.046 	-0.739
 5.495 	0.015 	-0.048
 4.497 	-0.614 	0.088
 2.831 	-0.178 	0.547
 3.620 	0.274 	0.105
 3.095 	-0.464 	0.553
 3.016 	-0.382 	0.606
 3.410 	-0.645 	0.651
 3.678 	-1.437 	0.354
 2.597 	-1.064 	0.601
 2.765 	-0.764 	0.340
 3.509 	-0.451 	0.094
 4.426 	-0.567 	-0.021
 4.804 	-1.135 	-0.154
 4.345 	-0.996 	-0.565
 3.898 	-0.176 	0.379
 4.665 	-0.322 	-0.498
 4.669 	0.357 	0.085
 4.548 	0.693 	-0.412
 3.794 	-0.021 	0.282
 3.626 	-0.089 	-0.143
 4.021 	-0.755 	0.208
 4.379 	-0.211 	-0.651
 4.889 	-0.295 	-0.711
 5.099 	0.038 	-0.612
 4.335 	-0.340 	0.258
 3.905 	-1.004 	-0.318
 3.463 	-0.958 	0.525
 3.759 	-0.616 	-0.270
 4.035 	-0.241 	-0.201
 4.032 	0.017 	-0.329
 3.926 	-0.036 	0.172
 4.450 	0.626 	0.120
 5.085 	0.774 	-0.177
 5.313 	1.247 	0.078
 5.108 	0.994 	-0.195
 3.887 	-0.309 	-0.160
 3.598 	0.418 	-0.008
 2.704 	-0.072 	0.135
 2.919 	-0.240 	0.283
 3.379 	-0.045 	0.331
 4.710 	-1.521 	0.239
 4.486 	-0.374 	0.057
 4.709 	-1.297 	0.285
 3.448 	-0.410 	0.082
 3.090 	0.567 	0.134
 3.199 	0.661 	-0.055
 3.201 	0.451 	-0.379
 3.315 	-0.188 	-0.094
 3.139 	0.176 	0.234
 4.099 	1.045 	0.259
 4.110 	0.666 	0.587
 4.079 	0.507 	0.042
 3.869 	-0.109 	0.340
 4.048 	-0.522 	0.099
 4.225 	-0.840 	-0.136
 4.253 	-0.848 	-0.482
 4.705 	-0.788 	0.106
 4.834 	-0.070 	-0.622
 3.369 	0.673 	-0.171
 2.397 	-0.170 	0.231
 2.513 	-0.487 	0.367
 2.727 	-0.199 	0.529
 2.980 	0.120 	0.401
 3.428 	-0.136 	0.079
 3.764 	-0.758 	0.066
 4.066 	-0.602 	-0.088
 4.181 	-0.729 	0.015
 3.108 	0.207 	0.248
 3.150 	0.202 	0.039
 2.889 	-1.009 	0.263
 3.155 	-1.176 	-0.127
 3.813 	-0.440 	-0.279
 4.216 	0.388 	0.003
 3.810 	0.588 	0.066
 4.753 	1.041 	-0.533
 4.539 	0.492 	-0.381
 4.425 	0.310 	-0.213
 4.222 	0.186 	-0.163
 4.361 	-0.128 	-0.187
 4.250 	-0.210 	-0.283
 4.488 	0.202 	-0.438
 4.151 	-0.054 	-0.059
 4.436 	-0.442 	-0.003
 4.028 	0.433 	-0.162
 4.675 	0.130 	-0.215
 4.868 	-0.872 	-0.366
 4.778 	-0.218 	-0.395
 4.236 	-0.041 	0.300
 3.174 	0.463 	0.302
 3.396 	0.271 	0.024
 3.690 	0.508 	0.203
 3.892 	0.344 	0.210
 3.722 	0.289 	-0.042
 4.001 	-0.078 	-0.282
 4.605 	0.024 	-0.029
 4.292 	0.243 	0.241
 4.545 	0.762 	0.054
 4.427 	0.455 	-0.037
 4.572 	-0.260 	0.009
 4.408 	0.681 	-0.179
 4.640 	0.156 	-0.419
 4.629 	-0.059 	-0.339
 4.550 	-0.064 	0.279
 4.456 	0.539 	-0.181
 3.151 	0.326 	0.324
 3.084 	0.313 	-0.041
 3.600 	0.282 	-0.088
 4.108 	0.490 	-0.138
 4.108 	0.023 	-0.250
 4.477 	0.223 	-0.191
 4.047 	-0.143 	-0.043
 3.998 	0.346 	0.217
 3.794 	0.408 	-0.136
 3.870 	0.103 	0.047
 4.118 	0.191 	-0.009
 3.833 	0.839 	-0.201
 4.140 	0.723 	-0.089
 4.242 	-0.526 	0.444
 3.732 	-0.353 	-0.201
 3.797 	0.460 	-0.096
 3.934 	0.770 	0.068
 4.072 	0.537 	-0.358
 4.373 	0.738 	-0.205
 3.445 	0.417 	0.041
 3.517 	0.394 	-0.250
 4.161 	0.193 	-0.321
 4.241 	0.129 	-0.403
 4.784 	-0.031 	-0.192
 5.333 	0.128 	0.182
 5.849 	-0.259 	-0.321
 4.852 	0.013 	-0.178
 3.254 	0.237 	0.445
 4.097 	-0.306 	0.112
 3.664 	-0.726 	0.445
 4.293 	-1.260 	0.190
 3.738 	0.116 	-0.098
 4.015 	0.940 	0.197
 4.072 	1.002 	0.082
 4.180 	0.530 	-0.131
 4.683 	0.913 	-0.127
 4.447 	0.713 	-0.037
 4.421 	0.830 	-0.297
 4.712 	0.359 	-0.347
 5.096 	0.478 	-0.065
 4.845 	0.101 	0.134
 4.984 	1.058 	-0.065
 3.861 	0.450 	0.200
 4.151 	-0.470 	0.082
 4.766 	-0.457 	-0.016
 4.373 	-0.847 	0.086
 3.629 	-1.016 	0.094
 3.458 	0.399 	0.084
 3.521 	0.210 	0.224
 4.037 	-0.570 	0.100
 4.253 	0.329 	0.074
 4.574 	0.859 	0.052
 4.155 	0.696 	0.047
 4.317 	0.641 	-0.086
 3.861 	1.045 	0.195
 3.880 	0.478 	-0.253
 4.190 	-0.567 	-0.193
 4.060 	-0.010 	-0.107
 4.723 	0.470 	0.189
 4.233 	0.020 	-0.211
 4.425 	-0.205 	-0.266
 4.582 	-0.509 	-0.092
 4.151 	-0.284 	0.106
 4.461 	0.119 	-0.128
 4.636 	-0.094 	-0.195
 4.520 	-0.105 	-0.085
 4.311 	0.028 	0.103
 4.401 	0.439 	-0.132
 4.146 	0.618 	-0.253
 4.142 	0.668 	-0.073
 4.174 	0.460 	0.060
 4.677 	0.034 	-0.218
 4.721 	-0.325 	-0.157
 5.456 	0.035 	-0.174
 4.303 	-0.252 	0.127
 3.548 	-0.034 	0.004
 3.836 	-0.104 	-0.273
 4.112 	0.023 	-0.122
 4.375 	0.310 	-0.330
 4.238 	0.014 	-0.024
 4.224 	0.111 	-0.189
 3.993 	-0.141 	0.387
 4.061 	0.349 	0.219
 3.595 	0.522 	-0.207
 3.236 	0.394 	0.221
 3.445 	0.023 	0.309
 3.653 	-0.202 	0.273
 4.080 	-0.789 	-0.049
 4.784 	-0.360 	-0.164
 4.789 	-0.448 	-0.387
 5.436 	0.562 	-0.148
 3.720 	0.130 	-0.228
 2.764 	0.267 	0.167
 2.370 	-0.375 	0.404
 2.442 	0.214 	0.275
 3.127 	0.397 	0.115
 3.260 	0.583 	0.142
 2.516 	0.082 	0.321
 1.655 	0.164 	0.113
 1.984 	0.115 	0.392
 2.436 	-0.453 	0.562
 3.241 	-1.171 	-0.030
 4.015 	-0.928 	-0.509
 3.972 	-0.288 	0.229
 3.624 	-0.049 	0.460
 4.352 	0.253 	-0.010
 4.684 	0.413 	-0.053
 4.490 	0.367 	-0.249
 5.289 	0.350 	-0.983
 4.920 	-0.136 	-0.192
 5.068 	-0.126 	-0.766
 5.752 	-0.113 	-1.307
 5.728 	0.918 	-0.277
 5.861 	1.234 	-0.360
 5.002 	1.139 	0.631
 4.917 	0.412 	0.580
 4.824 	-0.272 	0.413
 4.986 	-0.238 	-0.059
 4.706 	-0.625 	0.364
 5.536 	-0.672 	-0.671
 5.378 	-0.805 	0.081
 4.800 	-0.247 	0.553
 4.806 	0.325 	0.605
 5.892 	0.253 	-1.318
 5.910 	-0.417 	-1.845
 4.715 	0.775 	-0.113
 3.805 	0.039 	-0.220
 3.781 	-0.215 	0.018
 4.566 	0.637 	0.714
 5.301 	1.634 	0.294
 5.928 	1.431 	0.738
 5.569 	0.305 	0.604
 5.411 	-0.038 	0.435
 4.913 	-0.448 	0.234
 5.138 	-0.964 	-0.223
 5.264 	-0.500 	-0.352
 5.333 	-1.145 	0.144
 5.888 	-0.829 	-0.163
 5.208 	-0.180 	0.581
 3.891 	0.853 	-0.967
 3.096 	0.190 	0.967
 3.692 	-0.272 	1.157
 4.536 	-0.865 	1.160
 4.837 	-0.808 	0.952
 4.186 	0.127 	1.062
 4.707 	0.922 	0.843
 5.579 	-0.655 	0.424
 6.139 	-0.416 	0.871
 4.872 	0.622 	0.033
 4.843 	-0.472 	-0.366
 5.352 	-1.386 	-0.204
 5.853 	-0.493 	-0.815
 5.397 	-1.209 	-0.301
 3.584 	-0.663 	0.895
 4.318 	0.130 	0.760
 4.112 	0.905 	0.105
 5.087 	0.239 	0.409
 5.676 	0.087 	-0.046
 5.099 	-0.474 	-0.689
 5.263 	-0.050 	0.639
 5.698 	-0.556 	0.563
 6.132 	-0.514 	-0.212
 6.006 	-0.895 	-0.065
 5.135 	-0.685 	-0.027
 4.914 	0.693 	-0.949
 5.485 	-0.564 	-0.581
 5.452 	-1.629 	-0.400
 6.143 	-0.282 	-0.741
 6.226 	-0.759 	-0.512
 6.369 	-0.201 	-0.396
 6.835 	1.017 	-0.070
 5.078 	0.429 	0.180
 5.271 	-0.070 	0.262
 5.666 	0.176 	0.019
 5.660 	-0.250 	-0.392
 5.094 	0.377 	-1.464
 5.669 	0.074 	-0.838
 5.385 	-0.424 	0.280
 5.173 	-0.705 	-0.140
 5.587 	-0.805 	-0.290
 5.948 	0.009 	-0.834
 6.171 	-0.579 	-0.227
 5.625 	-1.102 	-0.494
 4.571 	-1.306 	0.382
 5.827 	-1.022 	-1.854
 4.806 	-0.277 	0.349
 4.797 	0.277 	0.920
 5.373 	-0.485 	-0.212
 5.593 	-0.249 	-0.391
 4.756 	-0.297 	0.596
 4.967 	-0.129 	0.082
 5.027 	0.582 	0.188
 5.524 	0.657 	-0.267
 5.856 	0.204 	-0.088
 6.151 	0.298 	-0.476
 6.051 	-0.847 	0.266
 5.711 	-0.652 	-0.193
 5.834 	-0.358 	-0.422
 5.946 	-0.192 	-0.564
 5.834 	-0.383 	-1.111
 4.619 	-0.224 	0.470
 4.058 	-0.010 	1.133
 4.698 	-0.609 	0.441
 4.616 	0.155 	-0.329
 4.787 	0.321 	-0.106
 5.381 	0.221 	0.120
 5.075 	0.413 	0.643
 4.957 	0.027 	-0.089
 4.995 	-0.077 	-0.230
 5.487 	-0.306 	-0.351
 5.770 	-0.535 	-0.159
 5.635 	0.248 	0.238
 5.210 	0.012 	0.427
 5.991 	-0.578 	-0.473
 5.581 	-0.154 	-0.328
 5.327 	0.550 	-1.276
 5.646 	0.919 	-0.341
 5.510 	-0.023 	-0.386
 5.590 	0.113 	-0.343
 4.561 	0.278 	0.374
 5.013 	-0.190 	0.001
 5.375 	-0.001 	-0.427
 5.729 	0.472 	-0.421
 5.203 	-0.641 	-0.453
 5.205 	-0.575 	-0.657
 5.337 	-0.545 	0.110
 5.482 	-0.621 	-0.443
 5.851 	0.167 	0.283
 5.552 	0.186 	-0.037
 5.526 	-0.001 	0.093
 5.769 	0.157 	-0.175
 5.544 	0.588 	-0.394
 5.596 	0.644 	-0.641
 5.663 	0.722 	-0.353
 4.913 	-0.008 	0.072
 4.873 	-0.453 	-0.081
 5.153 	-0.272 	-0.271
 5.101 	0.295 	-0.357
 5.142 	0.167 	-0.403
 5.369 	-0.209 	-0.058
 5.396 	-0.069 	-0.237
 5.588 	0.029 	-0.338
 5.458 	0.131 	-0.036
 5.236 	-0.275 	0.249
 5.417 	0.248 	-0.422
 4.846 	0.180 	0.089
 4.414 	0.007 	0.360
 4.648 	0.024 	0.061
 5.254 	0.580 	-0.141
 5.489 	0.248 	-0.021
 5.554 	0.337 	0.005
 4.894 	-0.337 	-0.945
 5.124 	0.274 	-0.557
 4.907 	0.464 	0.060
 5.521 	0.411 	-0.147
 5.049 	0.200 	-0.024
 5.186 	0.279 	-0.062
 4.933 	0.230 	-0.140
 5.485 	0.291 	0.027
 5.004 	0.177 	-0.063
 4.752 	0.622 	-0.039
 4.536 	-0.475 	-0.059
 4.741 	0.047 	-0.177
 4.751 	-0.153 	0.420
 4.414 	0.125 	0.474
 4.570 	0.056 	0.311
 5.075 	0.342 	0.050
 3.949 	-0.109 	-0.795
 4.018 	0.727 	-0.000
 4.076 	0.411 	0.285
 4.208 	0.412 	0.354
 4.359 	0.700 	0.380
 4.090 	0.176 	0.259
 4.597 	-0.428 	0.075
 5.181 	-0.034 	-0.015
 5.171 	0.785 	-0.222
 4.745 	-0.070 	-0.473
 4.694 	-0.040 	-0.562
 4.962 	-0.058 	-0.426
 5.025 	-0.500 	-0.156
 5.065 	0.183 	0.139
 5.337 	-0.164 	0.020
 5.570 	0.176 	0.002
 3.533 	0.619 	-0.315
 4.421 	0.902 	0.053
 4.454 	0.177 	-0.343
 3.918 	-0.174 	0.459
 4.600 	-0.026 	0.404
 4.410 	-0.515 	0.874
 4.672 	-0.447 	-0.202
 4.423 	-0.600 	-0.044
 4.480 	0.226 	0.333
 4.350 	-0.360 	0.158
 4.200 	-0.080 	0.186
 4.909 	-0.646 	-0.319
 3.946 	-0.377 	0.301
 4.497 	-1.117 	0.376
 5.183 	-0.430 	-0.357
 5.248 	0.155 	-0.432
 4.063 	0.691 	-0.790
 4.339 	0.997 	-0.361
 4.440 	0.632 	0.088
 4.230 	0.112 	-0.169
 4.463 	-0.147 	0.070
 4.738 	-0.391 	0.192
 5.059 	-0.680 	0.059
 4.681 	0.091 	-0.214
 3.937 	0.148 	0.522
 4.149 	-0.641 	0.357
 4.896 	-0.558 	-0.472
 4.250 	0.208 	0.253
 4.680 	-0.213 	-0.188
 4.541 	-0.990 	-0.150
 4.933 	-0.599 	-0.007
 5.262 	-0.535 	0.284
 4.782 	0.344 	-0.323
 5.026 	0.423 	-0.431
 5.224 	0.606 	-0.429
 4.877 	0.536 	-0.376
 4.731 	-0.219 	0.073
 4.440 	-0.450 	0.091
 4.641 	-0.366 	0.290
 4.767 	0.057 	0.001
 4.762 	-0.063 	0.295
 4.609 	-0.168 	0.049
 4.565 	-0.133 	0.052
 4.757 	0.172 	0.413
 4.796 	-0.480 	0.480
 4.763 	-1.403 	0.257
 4.250 	-0.985 	-0.025
 5.057 	-0.469 	0.487
 4.350 	0.190 	0.021
 4.529 	0.586 	0.118
 5.075 	0.764 	-0.220
 5.230 	0.670 	-0.028
 5.352 	-0.044 	-0.108
 5.156 	-0.474 	-0.052
 4.527 	-0.215 	0.421
 4.603 	-0.034 	0.315
 4.097 	0.354 	-0.135
 4.089 	0.074 	0.599
 3.604 	-0.165 	0.476
 4.029 	-0.816 	0.677
 4.823 	-1.399 	0.163
 5.607 	-1.456 	-0.344
 5.302 	-1.323 	-0.295
 4.988 	-0.891 	-0.173
 4.168 	-0.310 	-0.133
 4.669 	0.057 	0.008
 5.095 	0.106 	-0.086
 4.969 	-0.006 	0.073
 5.201 	-0.214 	-0.163
 4.873 	0.167 	0.192
 4.585 	0.323 	0.216
 3.539 	-0.132 	0.313
 3.349 	0.551 	0.212
 3.837 	0.396 	0.518
 4.335 	-0.569 	0.134
 5.021 	-1.396 	-0.732
 4.726 	-1.396 	-0.389
 4.257 	-1.333 	-0.217
 4.138 	-1.524 	-0.087
 4.666 	-0.862 	-0.058
 6.784 	-0.121 	-0.921
 6.902 	-0.267 	-1.068
 7.005 	-0.574 	-0.617
 6.937 	-0.081 	-1.002
 6.896 	0.057 	-0.070
 6.696 	-0.551 	-0.163
 6.231 	0.673 	-0.720
 5.046 	1.021 	0.862
 4.858 	1.718 	0.688
 5.116 	1.431 	0.475
 5.005 	0.581 	0.205
 5.283 	0.894 	0.736
 5.071 	0.209 	-0.960
 4.563 	-0.963 	1.042
 5.093 	-1.380 	1.120
 5.909 	-0.897 	0.789
 6.547 	-0.121 	-1.378
 6.139 	-0.250 	-0.750
 5.629 	-0.460 	0.640
 6.175 	0.772 	-0.556
 6.537 	1.215 	-0.197
 4.629 	-0.242 	0.769
 4.871 	0.811 	0.540
 4.688 	1.641 	0.906
 5.406 	1.640 	0.341
 4.985 	0.398 	1.114
 5.252 	0.712 	0.226
 5.148 	0.517 	-0.164
 5.185 	1.269 	-1.036
 5.666 	-0.100 	-0.459
 5.664 	-1.025 	-0.581
 6.234 	-0.643 	1.106
 4.667 	0.905 	-0.451
 4.638 	0.744 	0.249
 4.564 	0.407 	0.748
 4.015 	0.996 	1.648
 5.445 	2.027 	0.401
 5.257 	0.816 	1.134
 5.211 	0.652 	1.171
 5.627 	1.040 	1.262
 6.364 	1.039 	1.041
 5.590 	0.956 	0.602
 4.824 	0.674 	0.178
 4.865 	0.692 	-0.574
 5.232 	0.838 	-0.903
 6.227 	0.184 	-0.430
 6.625 	0.007 	-0.402
 6.167 	-0.882 	0.600
 4.734 	1.482 	0.478
 5.109 	1.036 	0.213
 4.360 	0.522 	-0.013
 4.211 	1.055 	-0.527
 4.557 	1.573 	-0.850
 5.195 	1.111 	-0.661
 5.423 	0.316 	0.199
 5.337 	0.609 	0.299
 5.187 	0.990 	-0.061
 5.258 	0.905 	-0.079
 5.539 	0.382 	-0.416
 5.477 	0.530 	-0.883
 6.401 	0.336 	-0.645
 6.448 	0.488 	-0.501
 6.860 	0.577 	-0.786
 7.040 	-0.554 	-0.934
 4.386 	2.038 	-0.384
 5.366 	0.324 	0.571
 5.548 	-0.051 	0.077
 5.259 	0.235 	0.382
 6.026 	0.112 	-0.808
 5.777 	1.428 	-0.920
 5.632 	1.086 	-0.494
 5.432 	1.025 	-0.791
 5.369 	0.957 	-0.967
 6.002 	0.499 	-0.846
 5.919 	0.351 	-0.635
 5.961 	0.258 	-0.425
 6.411 	0.077 	-0.261
 5.618 	-0.200 	-0.700
 5.008 	-0.412 	0.553
 5.593 	0.098 	0.828
 5.965 	1.185 	0.557
 5.802 	1.074 	-0.390
 5.981 	-0.188 	-0.218
 6.670 	-0.077 	-0.949
 6.147 	0.029 	0.169
 5.777 	1.418 	-0.735
 5.163 	1.393 	-0.422
 5.583 	1.065 	0.247
 5.674 	0.735 	0.218
 6.029 	0.293 	0.280
 6.527 	-0.377 	-0.057
 6.484 	0.395 	-0.274
 5.974 	0.515 	-0.281
 6.038 	-0.012 	-0.815
 5.796 	0.161 	0.886
 5.385 	0.162 	0.169
 5.998 	0.688 	-0.391
 6.078 	1.098 	-0.328
 5.949 	0.467 	-0.043
 5.554 	0.380 	0.488
 6.142 	0.945 	0.060
 6.218 	1.338 	-0.451
 5.908 	1.071 	-0.414
 6.454 	0.561 	0.174
 6.253 	-0.183 	0.394
 6.240 	-0.467 	0.374
 6.263 	-0.444 	-0.407
 6.802 	-0.395 	-0.925
 7.005 	0.170 	-0.845
 6.310 	0.753 	-0.349
 6.693 	0.503 	-0.369
 6.286 	-0.039 	-0.257
 4.563 	0.083 	0.217
 4.914 	0.378 	-0.042
 5.199 	0.204 	0.010
 5.716 	0.113 	-0.044
 5.618 	0.541 	-0.066
 5.878 	1.241 	-0.155
 5.783 	0.256 	0.202
 6.095 	0.408 	0.024
 5.872 	-0.427 	0.038
 6.278 	-0.060 	-0.078
 5.291 	-0.719 	-0.225
 5.169 	-0.360 	-0.367
 5.961 	0.296 	-0.379
 6.360 	-0.014 	-1.469
 6.167 	0.381 	-0.418
 5.746 	0.346 	0.453
 5.124 	0.234 	-0.438
 5.272 	-0.483 	-0.367
 5.487 	-0.493 	-0.659
 5.886 	-0.023 	-0.410
 5.731 	0.016 	-0.225
 5.495 	0.072 	-0.190
 5.990 	0.304 	-0.658
 5.903 	0.248 	-0.459
 6.348 	-0.126 	-0.390
 5.487 	0.343 	0.245
 5.406 	0.482 	-0.030
 4.721 	-0.317 	0.229
 4.831 	-0.233 	0.414
 5.108 	0.388 	0.781
 5.613 	1.016 	0.479
 6.178 	0.378 	0.025
 5.528 	0.011 	-0.670
 5.476 	-0.379 	-0.980
 4.868 	-0.216 	0.031
 5.016 	-0.007 	-0.168
 5.628 	0.257 	-0.420
 5.165 	0.088 	-0.160
 4.869 	0.019 	-0.029
 5.402 	0.406 	0.279
 5.210 	-0.757 	0.532
 5.225 	0.231 	0.425
 5.107 	0.714 	0.088
 4.916 	0.294 	-0.190
 4.939 	0.059 	0.273
 5.110 	0.148 	0.034
 5.427 	0.074 	-0.233
 5.731 	-0.475 	-0.492
 5.302 	-0.020 	-1.210
 5.037 	0.025 	-0.263
 4.500 	0.412 	0.330
 4.339 	0.281 	0.520
 3.705 	-0.207 	0.433
 4.220 	-0.317 	0.271
 4.776 	0.216 	0.232
 4.580 	-0.926 	0.396
 4.552 	-0.873 	0.197
 5.034 	-0.227 	-0.127
 5.175 	-0.897 	0.148
 5.765 	0.468 	0.158
 5.020 	-0.070 	0.003
 5.360 	-0.384 	0.643
 5.778 	-0.027 	-0.018
 5.433 	-0.283 	-0.086
 5.228 	-0.079 	-0.925
 4.724 	0.415 	-0.115
 4.240 	0.772 	-0.349
 4.401 	0.198 	0.467
 3.957 	-0.500 	0.470
 4.552 	-0.766 	0.165
 4.953 	-0.711 	-0.253
 4.782 	-0.596 	-0.317
 4.979 	-0.597 	0.284
 5.522 	-0.594 	-0.224
 5.676 	-0.988 	-0.469
 5.206 	-0.675 	-0.423
 5.728 	-0.020 	-0.560
 5.662 	-0.482 	-0.256
 5.560 	-0.390 	0.296
 6.056 	-0.537 	0.370
 5.820 	0.639 	-0.928
 5.149 	0.253 	-0.364
 4.650 	0.967 	-0.385
 4.517 	0.761 	-0.354
 4.663 	-0.007 	-0.388
 4.903 	-0.365 	-0.047
 4.822 	-0.606 	0.065
 5.073 	-0.396 	-0.226
 5.271 	-0.157 	-0.021
 5.670 	-0.384 	0.016
 5.279 	-0.474 	-0.591
 5.012 	-0.321 	-0.148
 5.035 	0.098 	0.051
 4.980 	-0.453 	0.356
 4.976 	-1.160 	0.419
 5.120 	-1.312 	0.211
 4.580 	0.721 	-0.160
 4.611 	0.703 	-0.669
 4.960 	0.722 	-0.441
 4.694 	0.782 	-0.055
 4.998 	0.166 	-0.109
 5.259 	-0.513 	0.443
 5.173 	-0.435 	0.309
 5.091 	-0.014 	0.274
 5.544 	-0.068 	0.021
 4.820 	-0.217 	0.037
 4.515 	-0.151 	0.047
 4.543 	-0.106 	0.291
 4.718 	-0.140 	0.562
 5.171 	-0.861 	0.526
 5.485 	-1.136 	0.200
 5.752 	-1.353 	0.525
 4.747 	0.407 	-0.141
 4.929 	0.598 	-0.312
 5.001 	0.591 	-0.359
 5.187 	0.628 	0.095
 5.246 	0.408 	-0.051
 5.541 	-0.143 	0.087
 5.436 	-0.342 	0.074
 5.072 	0.042 	0.105
 4.973 	0.322 	-0.167
 4.880 	0.346 	0.247
 4.644 	0.394 	0.410
 5.105 	0.159 	0.088
 5.409 	-0.077 	-0.273
 5.638 	-1.172 	0.016
 5.848 	-1.862 	-0.516
 6.000 	-1.675 	0.037
 4.481 	0.916 	-0.009
 4.295 	0.971 	0.255
 4.981 	1.231 	-0.346
 5.235 	0.959 	-0.047
 5.308 	0.441 	-0.303
 5.077 	-0.091 	0.205
 4.830 	0.008 	0.344
 4.773 	0.222 	0.746
 4.352 	0.465 	0.472
 4.606 	0.416 	0.332
 5.075 	0.591 	0.208
 5.739 	0.013 	-0.681
 6.297 	-0.558 	-0.741
 5.815 	-0.725 	-1.090
 6.142 	-1.431 	-0.444
 5.110 	-1.582 	0.317
 6.797 	0.161 	-0.867
 7.036 	0.181 	-1.053
 6.979 	-0.000 	-0.679
 7.244 	0.385 	-0.461
 6.762 	0.139 	-0.140
 7.014 	0.620 	-0.146
 6.873 	0.215 	-0.296
 6.469 	0.825 	0.355
 6.669 	0.744 	0.465
 6.671 	-0.067 	-0.657
 6.528 	1.044 	0.251
 6.311 	2.093 	1.015
 6.768 	0.825 	-1.145
 6.081 	0.881 	-0.479
 6.010 	0.435 	-0.520
 6.352 	-0.597 	-0.257
 6.462 	-0.037 	-0.688
 6.898 	-0.081 	-1.041
 7.151 	-0.623 	-0.266
 6.195 	0.149 	-0.171
 6.731 	1.143 	-0.908
 6.474 	0.968 	0.592
 5.975 	0.738 	0.444
 5.577 	0.963 	0.747
 6.340 	0.797 	0.374
 5.609 	1.562 	0.442
 6.389 	1.971 	0.505
 6.317 	2.035 	0.012
 6.490 	0.270 	-1.396
 6.446 	1.133 	-0.543
 5.842 	0.503 	-0.681
 6.764 	-0.346 	-0.160
 6.983 	0.348 	-0.733
 6.563 	-0.113 	-0.510
 5.704 	0.339 	0.671
 4.900 	-0.046 	0.707
 4.606 	0.432 	0.337
 5.431 	1.148 	1.114
 5.203 	1.065 	0.327
 5.262 	1.359 	0.565
 5.863 	1.561 	0.796
 5.992 	2.084 	0.825
 6.165 	1.795 	0.329
 6.143 	1.515 	-0.517
 6.354 	0.523 	-0.828
 6.359 	0.896 	-0.724
 7.169 	0.209 	-0.467
 6.660 	-0.125 	0.012
 5.595 	-0.110 	-0.343
 5.327 	1.064 	0.083
 5.974 	1.178 	0.803
 5.886 	0.221 	-0.357
 5.494 	0.712 	-0.370
 5.893 	0.772 	0.380
 5.960 	1.135 	0.187
 5.330 	1.942 	0.095
 5.778 	2.172 	-0.123
 6.552 	1.646 	-0.479
 6.664 	1.975 	-0.591
 6.425 	1.441 	-0.821
 6.508 	0.251 	-0.472
 6.811 	0.623 	-0.381
 6.927 	-0.265 	-0.629
 6.915 	-0.496 	-0.674
 5.483 	0.361 	-0.396
 5.764 	1.596 	-0.168
 6.172 	0.944 	0.457
 6.604 	0.539 	-0.428
 6.920 	0.371 	-0.746
 6.762 	0.465 	-0.489
 6.313 	1.136 	-0.296
 6.325 	0.951 	-0.164
 6.254 	1.274 	-0.161
 6.467 	1.625 	-0.401
 6.521 	1.864 	-0.583
 7.116 	1.183 	-0.711
 7.246 	0.559 	-0.346
 6.743 	0.541 	-0.050
 6.633 	-0.468 	-0.032
 7.156 	-0.654 	-0.476
 6.466 	0.239 	-0.065
 6.970 	0.412 	-0.351
 6.375 	0.586 	-0.158
 6.814 	0.321 	-0.034
 6.816 	0.641 	-0.330
 6.532 	0.576 	-0.505
 6.936 	0.949 	-0.393
 5.918 	0.963 	0.455
 5.543 	0.657 	0.648
 5.962 	0.708 	0.583
 6.749 	0.314 	0.267
 6.808 	0.868 	0.103
 6.603 	0.766 	-0.068
 6.706 	0.530 	-0.319
 6.537 	0.489 	0.440
 7.478 	0.237 	-0.119
 6.075 	0.044 	-0.287
 6.101 	0.301 	0.269
 6.485 	0.907 	-0.057
 6.511 	-0.120 	-0.233
 6.541 	0.564 	0.011
 7.009 	0.965 	0.056
 5.868 	1.720 	0.154
 6.166 	1.342 	0.420
 6.141 	0.191 	0.609
 6.646 	0.031 	0.074
 6.840 	0.034 	-0.254
 7.006 	0.583 	-0.845
 7.038 	0.295 	-0.507
 6.548 	0.635 	-0.582
 7.031 	0.904 	-0.577
 7.409 	0.421 	0.056
 4.904 	0.790 	0.147
 4.756 	0.408 	0.374
 5.188 	0.376 	-0.000
 5.610 	0.170 	0.368
 5.779 	-0.056 	0.131
 5.991 	0.283 	0.047
 6.459 	1.554 	-0.180
 6.869 	1.367 	-0.170
 6.865 	0.343 	-0.126
 7.138 	0.323 	-0.329
 6.937 	0.137 	-0.103
 6.822 	0.216 	0.040
 6.697 	-0.165 	-0.315
 6.902 	0.991 	-0.913
 6.876 	0.719 	-0.161
 6.767 	0.756 	0.376
 5.978 	0.334 	-0.335
 6.016 	0.116 	-0.354
 6.073 	0.060 	-0.404
 6.251 	-0.007 	-0.491
 6.028 	-0.091 	-0.195
 5.748 	0.499 	0.263
 5.983 	0.961 	0.256
 6.356 	0.390 	-0.254
 6.609 	0.417 	-0.021
 6.607 	0.336 	-0.113
 6.412 	0.657 	0.212
 6.232 	0.244 	0.102
 5.746 	0.104 	-0.518
 5.841 	0.466 	-0.265
 5.658 	0.372 	0.177
 6.274 	0.106 	-0.009
 6.230 	0.424 	-0.740
 6.262 	0.131 	-0.523
 6.044 	-0.353 	-0.571
 5.616 	-0.194 	-0.961
 5.784 	0.515 	-0.498
 5.154 	0.360 	0.216
 5.081 	0.126 	0.161
 4.921 	0.129 	0.546
 5.266 	0.132 	0.639
 5.572 	0.338 	0.634
 5.680 	0.224 	0.229
 5.969 	0.576 	-0.217
 5.423 	0.929 	0.310
 5.380 	0.505 	0.695
 5.691 	-0.360 	0.123
 5.753 	-0.229 	-0.070
 5.766 	0.151 	-0.367
 4.921 	-0.277 	-0.271
 4.352 	-0.135 	0.822
 4.921 	0.463 	0.414
 5.234 	0.651 	0.407
 5.875 	0.752 	-0.211
 5.261 	0.833 	-0.030
 5.094 	0.447 	0.275
 4.690 	0.197 	0.418
 4.821 	-0.030 	0.672
 5.267 	0.775 	0.595
 5.147 	1.063 	0.451
 5.374 	0.757 	0.100
 5.655 	-0.246 	-0.008
 5.942 	-0.617 	0.320
 6.402 	-0.887 	-0.006
 5.758 	0.593 	-0.586
 4.646 	0.260 	-0.401
 4.771 	0.004 	-0.242
 5.147 	0.786 	-0.037
 4.880 	1.161 	0.364
 4.794 	1.012 	0.279
 4.931 	0.919 	0.197
 4.973 	0.762 	-0.167
 4.912 	0.640 	-0.107
 4.495 	0.183 	-0.176
 4.446 	0.469 	-0.228
 4.970 	0.203 	-0.054
 5.644 	-0.173 	0.061
 5.447 	-0.812 	0.328
 5.583 	-1.037 	0.516
 6.000 	-0.718 	0.458
 5.553 	0.590 	-0.609
 5.101 	0.584 	-0.187
 5.454 	0.054 	-0.422
 5.544 	0.344 	-0.730
 4.615 	0.812 	0.040
 4.606 	0.150 	-0.016
 4.969 	0.024 	-0.178
 5.194 	0.185 	-0.286
 5.445 	0.067 	-0.216
 5.700 	-0.098 	-0.475
 5.834 	0.042 	-0.717
 5.828 	-0.273 	-0.342
 5.701 	-0.143 	-0.099
 5.309 	-0.391 	0.585
 5.233 	-0.928 	0.335
 5.644 	-1.495 	0.063
 5.607 	0.038 	-0.318
 6.093 	0.886 	-0.897
 5.460 	0.641 	-0.007
 4.481 	1.283 	-0.089
 4.776 	0.497 	-0.421
 4.680 	-0.111 	0.009
 5.073 	-0.231 	0.083
 5.326 	-0.077 	0.191
 5.723 	0.275 	-0.299
 5.781 	-0.047 	-0.135
 5.754 	0.162 	-0.148
 5.144 	0.575 	0.249
 5.167 	0.014 	0.097
 5.650 	-0.235 	0.415
 5.835 	-0.984 	0.628
 6.089 	-2.252 	0.392
 5.664 	0.769 	-0.618
 5.641 	0.423 	-0.213
 4.822 	1.407 	-0.153
 5.030 	1.239 	-0.161
 5.195 	0.602 	-0.245
 5.343 	-0.153 	-0.183
 5.469 	-0.333 	0.206
 5.569 	-0.078 	0.290
 5.302 	0.440 	0.020
 5.706 	0.423 	-0.060
 5.863 	0.274 	-0.021
 5.972 	0.476 	0.003
 6.025 	0.097 	-0.117
 6.669 	0.004 	-0.090
 6.151 	-1.124 	-0.581
 6.114 	-2.405 	-0.073
 5.443 	0.474 	-0.393
 5.817 	0.606 	-0.176
 6.004 	1.058 	-0.793
 6.234 	0.908 	-0.038
 6.065 	0.939 	-0.386
 5.321 	-0.014 	0.319
 5.350 	-0.080 	0.479
 5.500 	0.139 	0.373
 5.487 	0.329 	0.198
 5.679 	0.371 	0.048
 5.504 	0.348 	-0.374
 5.894 	0.545 	-1.040
 5.964 	0.134 	-1.369
 6.738 	-0.042 	-1.138
 6.298 	-1.091 	-0.739
 6.259 	-1.353 	0.382
 7.586 	1.013 	-0.502
 7.129 	0.638 	-0.377
 7.024 	-0.128 	-0.475
 7.124 	-0.091 	-0.611
 6.926 	0.203 	-0.152
 7.671 	-0.159 	-0.224
 6.852 	0.530 	0.104
 6.326 	0.316 	0.412
 6.662 	0.460 	0.050
 8.124 	0.343 	-0.394
 6.319 	0.272 	0.300
 6.787 	1.703 	0.558
 7.693 	-0.151 	-0.481
 6.570 	0.252 	-0.415
 6.509 	0.516 	-0.444
 6.548 	0.425 	-0.491
 6.831 	0.456 	-0.312
 7.129 	0.604 	-0.914
 6.772 	-0.746 	0.157
 6.636 	-0.177 	-0.441
 6.559 	0.550 	-0.166
 5.783 	-0.001 	0.438
 6.484 	0.059 	0.629
 6.719 	-0.257 	0.535
 6.948 	-0.650 	0.450
 7.156 	-0.278 	-0.263
 7.400 	0.337 	-0.714
 7.904 	0.781 	-0.604
 8.523 	0.312 	-0.925
 6.635 	0.411 	-0.248
 6.021 	0.891 	-0.684
 6.528 	0.391 	-0.170
 6.488 	0.420 	-0.531
 6.771 	0.297 	-0.145
 6.508 	-0.064 	-0.078
 6.038 	0.974 	0.421
 5.802 	1.170 	-0.511
 6.007 	0.164 	0.467
 6.907 	-0.378 	0.239
 7.545 	-0.690 	-0.327
 7.396 	-0.422 	0.088
 7.184 	-0.208 	0.308
 7.555 	0.425 	-0.014
 8.232 	-0.064 	-0.698
 7.929 	0.163 	-1.233
 7.105 	0.879 	0.036
 7.076 	0.921 	-0.679
 7.070 	-0.105 	-0.278
 6.967 	0.529 	-0.940
 7.045 	0.172 	-0.335
 6.456 	1.548 	0.306
 7.072 	1.190 	-0.316
 7.027 	0.649 	-0.284
 7.205 	1.231 	-0.098
 6.852 	0.158 	0.193
 7.019 	-0.006 	0.363
 7.338 	0.012 	0.117
 7.461 	0.350 	0.081
 7.649 	0.114 	-0.998
 7.500 	0.193 	-0.637
 7.006 	0.058 	-0.280
 7.228 	1.069 	-0.056
 7.255 	0.353 	-0.203
 7.287 	0.046 	-0.316
 7.385 	0.541 	-0.840
 7.706 	0.710 	-0.430
 7.568 	0.996 	-0.102
 7.541 	1.191 	-0.388
 6.862 	0.915 	-0.432
 7.159 	0.861 	-0.288
 7.742 	0.753 	-0.839
 7.953 	0.649 	0.093
 7.082 	-0.294 	0.333
 6.892 	0.066 	-0.297
 6.952 	0.138 	-0.470
 7.215 	0.609 	-0.624
 7.418 	0.676 	-0.390
 7.262 	0.571 	-0.231
 7.357 	0.497 	0.023
 6.910 	-0.241 	-0.556
 6.259 	0.623 	0.108
 6.766 	1.427 	0.137
 7.060 	1.089 	0.070
 7.176 	0.734 	-0.198
 7.500 	0.827 	-0.264
 7.336 	0.744 	-0.718
 6.824 	0.625 	-0.263
 7.017 	0.851 	0.655
 6.920 	0.243 	0.252
 6.586 	0.403 	0.702
 6.815 	0.353 	0.194
 7.065 	0.723 	-0.246
 7.486 	1.026 	-0.138
 7.399 	0.563 	-0.278
 7.109 	0.161 	-0.016
 6.708 	0.042 	-0.660
 6.563 	0.465 	-0.331
 7.202 	0.589 	0.218
 7.366 	1.423 	-0.566
 6.787 	0.260 	0.062
 6.770 	0.235 	0.199
 7.086 	0.916 	-0.307
 6.878 	1.016 	-0.138
 7.115 	1.471 	0.361
 6.983 	0.812 	0.316
 7.065 	0.997 	0.018
 7.322 	0.580 	-0.232
 7.090 	0.373 	-0.407
 7.326 	0.780 	-0.501
 6.403 	0.281 	-0.386
 6.233 	0.360 	-0.820
 6.408 	0.360 	-0.123
 6.041 	0.677 	-0.009
 5.977 	0.230 	0.293
 6.520 	1.169 	-0.768
 6.970 	1.050 	0.157
 6.172 	-0.001 	0.424
 6.314 	0.537 	-0.012
 6.729 	1.023 	-0.135
 6.634 	0.875 	-0.081
 6.650 	0.523 	0.128
 6.884 	0.192 	0.100
 6.811 	0.440 	-0.138
 6.780 	0.714 	0.186
 6.871 	0.946 	-0.300
 6.168 	0.691 	-0.778
 6.227 	0.236 	0.250
 5.931 	0.141 	0.337
 5.906 	0.589 	-0.113
 5.527 	0.268 	0.041
 5.720 	0.503 	0.069
 6.144 	0.614 	-0.088
 5.983 	0.287 	-0.049
 5.713 	0.006 	0.342
 5.906 	0.641 	0.550
 6.512 	0.408 	0.533
 6.345 	0.038 	0.110
 6.228 	-0.052 	0.144
 6.386 	-0.179 	-0.203
 6.902 	0.566 	0.173
 6.719 	0.790 	-0.661
 7.036 	0.447 	0.569
 6.271 	0.509 	0.935
 6.147 	0.116 	0.480
 6.683 	0.377 	-0.693
 6.570 	0.364 	-0.322
 6.446 	0.184 	-0.134
 6.308 	0.248 	-0.241
 6.261 	0.146 	-0.590
 6.310 	0.434 	-0.257
 6.044 	0.524 	-0.051
 5.773 	0.178 	0.457
 5.742 	0.170 	0.471
 5.860 	-0.106 	0.425
 5.953 	0.264 	0.108
 6.121 	0.068 	-0.430
 5.806 	0.906 	0.276
 5.381 	0.345 	0.338
 5.620 	0.150 	0.244
 5.894 	-0.322 	0.079
 6.135 	0.250 	-0.281
 6.299 	0.531 	-0.027
 6.133 	0.463 	0.326
 6.308 	0.147 	-0.509
 5.602 	-0.272 	-0.038
 5.517 	0.690 	0.070
 5.490 	0.668 	0.175
 5.577 	0.483 	0.249
 5.445 	0.434 	0.058
 5.321 	0.223 	0.016
 5.438 	0.486 	0.099
 5.366 	0.306 	0.255
 6.028 	0.943 	0.653
 6.040 	0.502 	0.308
 6.064 	-0.043 	0.127
 6.372 	-0.429 	-0.061
 5.774 	0.400 	-0.372
 6.156 	0.556 	-0.038
 5.517 	0.187 	-0.201
 5.568 	0.567 	-0.466
 4.155 	0.623 	0.435
 4.080 	0.482 	0.365
 4.194 	0.215 	0.191
 4.624 	0.074 	-0.173
 4.660 	0.575 	-0.259
 4.510 	0.359 	0.118
 4.963 	-0.083 	0.021
 5.252 	0.049 	0.573
 5.301 	0.752 	0.607
 5.584 	0.093 	0.562
 6.067 	-0.372 	0.315
 6.335 	-0.874 	0.287
 5.919 	0.387 	-0.615
 6.270 	0.656 	-0.395
 6.443 	0.774 	-0.269
 5.117 	0.607 	-0.268
 4.118 	0.889 	0.747
 4.858 	0.633 	0.042
 5.529 	0.576 	-0.225
 5.364 	0.704 	-0.322
 5.432 	0.672 	-0.266
 5.894 	0.179 	-0.471
 6.393 	-0.105 	-0.621
 6.221 	0.085 	-0.930
 6.065 	0.136 	-0.298
 6.017 	-0.031 	-0.014
 6.034 	-0.394 	0.329
 5.863 	-0.495 	0.524
 5.883 	0.544 	-0.456
 5.876 	0.516 	-0.512
 6.030 	0.721 	-0.199
 6.277 	1.020 	-0.561
 6.486 	1.137 	-0.465
 6.119 	0.761 	-0.117
 6.183 	0.604 	-0.190
 6.247 	0.670 	-0.146
 6.194 	0.631 	-0.263
 6.279 	0.340 	-0.416
 6.230 	0.128 	-0.174
 6.289 	0.556 	-0.228
 6.689 	0.448 	-0.449
 6.365 	0.476 	-0.240
 6.331 	0.040 	0.343
 6.298 	-0.578 	0.296
 6.059 	0.370 	-0.556
 5.992 	0.270 	-0.634
 5.915 	1.071 	0.218
 5.745 	1.116 	0.098
 5.957 	0.962 	-0.213
 6.093 	0.856 	-0.018
 5.475 	0.868 	0.061
 5.738 	0.649 	-0.095
 6.285 	0.601 	-0.272
 6.186 	0.373 	-0.311
 6.137 	0.507 	-0.072
 5.849 	0.473 	-0.351
 5.985 	0.532 	-0.526
 6.289 	0.720 	-0.574
 6.880 	0.155 	-0.475
 6.273 	-0.539 	-0.967
 5.843 	0.082 	-0.275
 5.958 	0.160 	-0.352
 6.290 	0.791 	-0.071
 6.464 	1.238 	-0.326
 6.647 	1.113 	-0.219
 5.868 	0.782 	0.328
 5.976 	0.793 	0.204
 6.074 	0.907 	0.106
 5.904 	0.943 	0.138
 5.809 	0.613 	-0.473
 6.018 	0.356 	-0.572
 6.293 	0.234 	-0.652
 6.123 	0.163 	-0.383
 6.685 	-0.270 	-0.549
 6.855 	-0.001 	-0.394
 6.945 	-0.500 	-0.435
 7.649 	0.652 	-0.386
 7.612 	0.542 	-0.552
 7.627 	0.653 	-0.389
 7.786 	0.332 	-0.247
 8.099 	0.441 	-0.271
 8.654 	0.347 	-0.448
 8.490 	0.042 	-0.118
 8.346 	-0.063 	-0.199
 8.429 	0.639 	-0.496
 8.214 	0.590 	-0.139
 8.754 	0.422 	0.088
 8.667 	0.275 	0.054
 8.204 	-0.057 	-0.655
 8.120 	0.173 	-0.589
 8.464 	0.481 	-0.561
 7.873 	0.191 	-0.241
 7.174 	0.851 	-0.177
 7.389 	0.574 	-0.575
 7.422 	0.569 	-0.235
 7.423 	0.123 	-0.126
 7.321 	-0.156 	-0.245
 7.351 	0.126 	-0.510
 7.731 	0.158 	0.142
 8.041 	0.756 	0.515
 7.743 	0.880 	0.176
 8.305 	0.517 	-0.311
 8.563 	0.682 	-0.728
 8.586 	0.521 	-0.227
 7.817 	-0.106 	-0.199
 8.325 	0.474 	0.052
 8.223 	0.207 	-0.402
 7.579 	1.027 	-0.148
 7.178 	0.848 	-0.597
 7.410 	0.568 	-0.456
 7.733 	0.529 	-0.279
 7.834 	0.437 	-0.147
 7.465 	0.375 	-0.341
 7.325 	0.700 	-0.161
 7.406 	1.112 	0.085
 7.162 	0.935 	0.030
 7.319 	0.704 	0.210
 8.199 	0.456 	-0.336
 8.471 	0.720 	-0.393
 7.909 	0.097 	0.031
 7.603 	0.553 	-0.752
 7.977 	0.279 	-0.075
 8.393 	0.348 	0.030
 7.870 	1.291 	-0.262
 7.733 	0.853 	-0.865
 7.857 	0.519 	-0.777
 7.796 	0.702 	-0.173
 7.626 	0.746 	-0.286
 7.612 	0.603 	-0.628
 7.298 	1.038 	-0.036
 7.371 	0.870 	-0.312
 7.480 	0.377 	-0.152
 7.521 	0.118 	0.074
 7.284 	-0.502 	-0.209
 7.668 	-0.083 	-0.050
 7.287 	0.401 	-0.757
 7.825 	0.212 	-0.477
 7.479 	0.278 	-0.005
 7.119 	0.689 	-0.107
 7.452 	0.680 	0.001
 7.947 	0.758 	-0.585
 7.646 	1.006 	-0.435
 7.215 	0.727 	-0.714
 7.902 	0.837 	-0.624
 7.759 	1.165 	-0.367
 7.880 	1.330 	-0.337
 7.869 	1.362 	-0.486
 7.359 	0.418 	0.176
 7.259 	0.012 	0.348
 7.369 	-0.308 	-0.171
 7.680 	-0.318 	-0.660
 8.308 	0.276 	-0.773
 7.735 	0.392 	-0.778