# vtk DataFile Version 3.0
HighT1
ASCII
DATASET STRUCTURED_POINTS
DIMENSIONS 16 16 19
ORIGIN 929.001000000000 929.001000000000 5.001000000000
SPACING 10.000000000000 10.000000000000 10.000000000000
POINT_DATA 4864
FIELD attributes 1
U 3 4864 float
2.212 	-0.734 	0.800
 2.420 	0.584 	0.822
 2.575 	0.303 	1.222
 2.337 	0.676 	0.484
 3.411 	-0.313 	0.180
 3.908 	-1.016 	-0.284
 3.251 	-0.726 	0.172
 2.958 	-0.294 	0.080
 3.302 	0.336 	0.183
 3.431 	0.379 	0.203
 3.496 	0.029 	0.203
 3.346 	-0.439 	0.264
 3.344 	-0.494 	0.050
 3.528 	-0.464 	0.033
 3.855 	-0.654 	0.033
 3.974 	-0.413 	0.207
 4.340 	-0.460 	-0.103
 4.583 	0.137 	-0.363
 3.393 	-0.205 	-0.245
 3.375 	0.606 	-0.561
 4.087 	-0.794 	-0.360
 4.534 	-0.426 	-0.373
 4.597 	0.192 	-0.406
 4.331 	-0.389 	0.376
 4.629 	-0.171 	-0.009
 3.433 	0.018 	0.010
 3.243 	0.048 	0.036
 3.201 	-0.387 	-0.065
 3.647 	-0.391 	-0.284
 3.528 	-1.104 	0.076
 3.786 	-1.320 	0.022
 4.732 	-0.581 	-0.279
 5.012 	0.482 	-0.134
 4.089 	0.060 	0.000
 3.904 	0.560 	-0.280
 4.034 	0.542 	-0.208
 4.085 	0.396 	-0.233
 3.655 	0.038 	0.177
 3.969 	-0.062 	-0.050
 3.832 	0.766 	0.233
 2.454 	-0.038 	0.555
 3.120 	0.275 	0.331
 3.757 	-0.629 	0.481
 3.840 	-0.966 	0.180
 3.822 	-1.217 	0.118
 4.562 	-0.892 	-0.071
 4.809 	-0.805 	-0.001
 3.994 	-0.538 	-0.177
 5.857 	1.089 	-0.544
 5.044 	0.530 	0.227
 3.542 	0.222 	0.232
 3.547 	0.516 	0.114
 3.961 	0.449 	-0.291
 4.991 	0.610 	-0.452
 5.327 	-0.107 	-0.432
 4.992 	0.349 	0.174
 5.207 	0.891 	-0.097
 5.334 	0.535 	-0.225
 5.227 	0.184 	-0.075
 5.271 	-0.827 	0.110
 5.181 	-0.971 	-0.029
 3.537 	-0.889 	0.029
 3.579 	-1.199 	-0.311
 3.453 	-0.028 	0.095
 3.739 	1.567 	0.342
 3.610 	0.874 	0.404
 3.399 	0.069 	0.280
 2.942 	-0.147 	0.244
 3.065 	0.151 	0.149
 3.499 	0.457 	-0.000
 4.268 	0.778 	-0.483
 4.952 	0.647 	-0.285
 5.132 	0.827 	-0.046
 5.343 	0.652 	-0.062
 5.355 	0.159 	-0.085
 4.886 	-0.092 	-0.106
 4.118 	-0.770 	0.199
 2.993 	-0.829 	-0.095
 1.998 	0.408 	0.198
 3.478 	-0.426 	0.326
 3.441 	0.433 	0.199
 3.560 	-0.141 	0.018
 3.551 	-0.320 	0.028
 3.528 	-0.167 	-0.117
 3.605 	-0.217 	-0.203
 3.723 	0.086 	-0.001
 3.889 	0.458 	0.039
 4.484 	0.664 	-0.039
 4.798 	0.859 	0.039
 4.898 	0.374 	0.102
 4.943 	-0.049 	-0.132
 4.769 	0.081 	-0.144
 4.446 	0.058 	0.157
 4.555 	0.146 	0.011
 4.915 	0.169 	-0.557
 5.883 	-0.339 	-0.586
 2.385 	0.144 	0.094
 2.482 	0.012 	0.180
 2.579 	-0.032 	0.268
 2.939 	-0.318 	0.265
 3.474 	-0.476 	0.287
 3.913 	-0.549 	0.277
 4.033 	-0.309 	0.256
 4.227 	0.211 	0.194
 4.427 	0.211 	0.125
 4.598 	0.086 	0.129
 4.598 	0.220 	0.084
 4.600 	-0.210 	0.143
 4.905 	-0.609 	0.187
 5.067 	-0.618 	0.221
 5.082 	-0.753 	0.077
 5.664 	-0.362 	-0.267
 3.746 	0.213 	0.056
 3.892 	0.488 	-0.344
 4.074 	0.132 	-0.361
 4.380 	-0.209 	-0.255
 4.488 	-0.447 	-0.155
 4.850 	-0.270 	-0.159
 5.013 	-0.012 	-0.146
 5.226 	0.026 	-0.003
 5.677 	0.283 	-0.236
 5.671 	-0.143 	0.103
 5.488 	-0.093 	0.056
 5.641 	-0.590 	-0.129
 5.842 	-0.677 	-0.384
 5.970 	-0.404 	-0.547
 6.426 	-0.088 	-0.603
 5.730 	-0.182 	0.034
 4.561 	-0.587 	0.494
 4.087 	0.347 	0.125
 4.439 	0.668 	-0.185
 4.524 	0.244 	-0.188
 4.549 	-0.095 	-0.048
 4.637 	-0.439 	-0.044
 4.941 	-0.132 	-0.023
 5.307 	-0.085 	-0.130
 5.491 	0.074 	0.025
 5.309 	0.113 	0.100
 5.034 	-0.423 	0.019
 5.383 	-0.143 	-0.461
 5.483 	-0.106 	-0.296
 5.470 	-0.422 	-0.160
 5.402 	-0.068 	-0.035
 5.634 	-0.408 	0.044
 3.359 	0.312 	0.166
 3.324 	-0.487 	0.306
 3.573 	0.348 	-0.024
 4.326 	0.089 	-0.278
 4.954 	0.177 	-0.251
 4.557 	-0.126 	0.095
 4.988 	-0.540 	0.015
 5.590 	-0.078 	-0.154
 5.418 	-0.148 	-0.051
 5.348 	-0.018 	0.101
 4.286 	-0.289 	0.050
 4.181 	0.413 	-0.097
 4.115 	-0.084 	0.183
 4.688 	-0.075 	0.073
 5.150 	-0.377 	-0.134
 5.653 	0.018 	-0.481
 5.529 	0.544 	-0.347
 5.293 	-0.277 	0.337
 3.285 	-0.095 	0.106
 3.952 	-0.119 	-0.043
 4.745 	-0.187 	-0.348
 4.825 	0.533 	0.014
 4.403 	0.026 	0.306
 3.654 	-0.284 	0.219
 3.671 	-0.027 	0.382
 3.584 	-0.806 	0.219
 4.038 	-0.504 	0.275
 4.017 	-0.518 	0.299
 4.694 	-0.576 	0.114
 5.587 	0.270 	-0.572
 5.276 	0.005 	0.032
 4.829 	0.368 	0.287
 5.455 	0.828 	-0.258
 4.762 	0.319 	0.370
 4.538 	-0.284 	0.116
 4.371 	0.133 	0.206
 3.672 	0.162 	-0.187
 3.471 	0.406 	0.280
 3.812 	0.211 	0.128
 3.212 	-1.286 	0.140
 3.989 	-0.654 	-0.393
 4.439 	-1.045 	-0.418
 4.665 	-1.105 	-0.916
 5.288 	-0.221 	-0.974
 5.704 	0.021 	-0.610
 6.091 	0.192 	-0.639
 6.302 	0.597 	-0.360
 5.938 	0.444 	0.228
 3.801 	0.656 	0.025
 3.783 	0.229 	-0.009
 3.670 	-0.549 	0.026
 3.587 	0.422 	0.510
 3.111 	0.712 	0.059
 3.479 	0.804 	-0.099
 4.672 	0.281 	-0.331
 4.875 	-0.659 	-0.170
 3.962 	-0.503 	-0.101
 3.148 	-0.879 	-0.111
 3.577 	-0.663 	-0.359
 3.843 	0.216 	-0.090
 4.606 	0.753 	-0.009
 5.042 	1.050 	0.257
 4.324 	1.016 	0.277
 3.581 	0.746 	0.254
 4.544 	0.358 	-0.419
 5.707 	0.188 	-0.365
 6.185 	0.288 	-0.820
 5.517 	0.824 	0.047
 4.743 	0.693 	-0.041
 4.708 	0.286 	0.076
 5.233 	0.176 	-0.500
 5.370 	0.205 	0.338
 5.082 	0.118 	-0.159
 3.565 	-0.062 	-0.069
 3.331 	-0.214 	-0.020
 3.161 	0.319 	0.259
 3.545 	-0.022 	0.234
 3.591 	0.608 	-0.082
 3.776 	1.186 	-0.055
 4.033 	1.019 	-0.254
 4.568 	0.113 	-0.211
 4.558 	0.517 	0.056
 5.107 	0.030 	-0.031
 5.656 	1.221 	0.200
 5.527 	0.625 	-0.014
 6.113 	0.459 	-0.118
 4.137 	0.370 	0.211
 3.976 	0.126 	0.198
 3.668 	0.078 	0.061
 3.439 	0.299 	-0.030
 4.178 	-0.118 	-0.116
 3.931 	-0.369 	0.079
 4.052 	-0.171 	0.373
 3.491 	0.408 	0.181
 3.422 	0.659 	0.112
 3.187 	0.789 	0.351
 2.668 	-0.018 	0.269
 2.898 	0.465 	0.355
 3.739 	0.087 	-0.165
 4.121 	0.854 	0.849
 4.598 	0.990 	-0.071
 4.960 	0.481 	-0.375
 5.602 	1.014 	-0.327
 5.722 	1.335 	0.095
 5.198 	-0.105 	0.064
 4.760 	0.385 	-0.340
 4.732 	-0.010 	-0.071
 4.808 	-0.222 	-0.007
 4.420 	0.274 	-0.081
 4.415 	-0.422 	0.379
 3.755 	0.761 	0.372
 3.311 	0.582 	-0.111
 4.382 	-1.064 	1.166
 4.509 	-0.263 	0.486
 4.128 	0.612 	0.271
 5.326 	0.786 	-1.559
 4.261 	1.345 	0.474
 4.163 	-0.912 	-0.302
 4.632 	-0.330 	-0.658
 4.999 	0.333 	0.144
 4.673 	0.903 	0.506
 4.122 	0.680 	0.833
 4.102 	0.493 	1.092
 3.886 	0.633 	0.717
 3.734 	0.604 	0.224
 4.246 	0.239 	0.159
 4.625 	-0.521 	0.118
 4.869 	-0.818 	-0.049
 5.371 	-0.552 	0.332
 3.793 	0.624 	0.546
 3.779 	0.676 	-0.139
 3.466 	0.514 	-0.005
 4.772 	0.741 	-0.232
 5.194 	0.043 	-0.758
 4.513 	-0.406 	-0.444
 4.937 	0.061 	-0.201
 4.887 	0.980 	0.319
 4.630 	0.483 	0.323
 4.448 	0.352 	0.160
 4.364 	0.709 	-0.319
 4.511 	0.108 	-0.378
 4.829 	-0.004 	-0.455
 5.285 	0.063 	-0.140
 5.055 	-0.194 	0.086
 5.978 	-0.006 	-0.257
 4.689 	0.866 	1.226
 5.770 	0.461 	-0.101
 5.084 	0.621 	-0.289
 5.190 	0.211 	-0.666
 5.016 	0.333 	-0.245
 4.699 	0.147 	0.147
 4.570 	-0.235 	-0.111
 5.217 	0.756 	0.089
 5.483 	0.324 	-0.232
 4.803 	0.726 	0.391
 4.537 	0.368 	-0.240
 4.735 	0.597 	-0.448
 4.640 	0.356 	-0.017
 5.028 	-0.339 	0.203
 5.845 	-0.475 	-0.242
 6.402 	0.132 	-0.765
 4.849 	1.145 	1.273
 4.788 	0.683 	0.648
 5.633 	0.164 	0.153
 6.232 	0.044 	-0.846
 6.087 	0.682 	-0.783
 5.757 	0.497 	-0.601
 5.366 	0.017 	-0.066
 5.242 	0.318 	-0.297
 6.010 	0.931 	-0.448
 4.962 	0.830 	0.025
 4.820 	0.776 	-0.300
 4.906 	1.107 	-0.566
 5.653 	-0.315 	0.092
 6.201 	-0.414 	0.004
 5.941 	-1.291 	0.241
 4.401 	1.185 	0.786
 4.827 	1.617 	0.883
 5.380 	0.860 	-0.023
 5.122 	0.458 	0.189
 5.657 	0.560 	-0.345
 6.138 	0.647 	-0.284
 6.404 	0.666 	-0.858
 6.263 	0.390 	0.239
 5.226 	0.629 	-0.400
 4.942 	0.907 	-0.147
 5.163 	1.077 	0.160
 5.299 	0.567 	0.088
 6.063 	0.289 	-0.134
 6.563 	-0.311 	-0.250
 6.788 	-0.289 	-0.674
 6.739 	-0.327 	-0.135
 4.772 	1.148 	0.641
 4.965 	0.921 	0.331
 4.881 	1.157 	0.295
 5.278 	0.908 	-0.217
 5.829 	0.695 	-0.551
 6.141 	0.889 	-0.605
 6.290 	0.668 	-0.447
 6.175 	1.033 	-0.093
 5.828 	0.671 	0.094
 5.529 	0.858 	-0.035
 5.892 	0.930 	-0.460
 6.118 	0.457 	-0.099
 6.341 	0.310 	0.002
 6.695 	0.164 	-0.181
 7.020 	0.153 	-0.504
 6.885 	0.497 	-0.724
 4.778 	0.639 	0.073
 4.647 	0.413 	0.157
 4.691 	0.295 	0.226
 4.581 	0.370 	0.173
 4.960 	0.777 	0.038
 4.933 	0.800 	0.238
 4.666 	0.713 	0.334
 4.601 	0.461 	0.343
 4.756 	0.301 	0.500
 5.247 	0.636 	0.267
 5.485 	0.863 	0.365
 5.184 	0.763 	0.538
 5.789 	0.840 	0.366
 6.415 	0.919 	-0.451
 6.732 	0.521 	-0.830
 6.880 	0.478 	-0.586
 5.083 	0.006 	0.141
 5.094 	0.268 	-0.222
 5.048 	0.128 	-0.223
 4.861 	0.237 	-0.077
 4.936 	0.391 	-0.266
 5.398 	0.344 	-0.269
 5.716 	0.121 	-0.395
 5.917 	0.159 	-0.586
 6.330 	-0.064 	-0.510
 5.869 	0.717 	-0.215
 6.096 	0.315 	0.478
 6.149 	0.208 	0.009
 5.784 	0.704 	-0.291
 6.450 	0.564 	-0.555
 6.501 	0.719 	-0.361
 6.350 	-0.090 	0.278
 4.836 	-0.249 	0.490
 5.271 	-0.363 	0.134
 5.603 	0.099 	-0.323
 5.669 	0.205 	-0.680
 5.452 	0.006 	-0.270
 5.479 	0.176 	-0.166
 5.714 	-0.172 	0.166
 5.998 	-0.178 	0.275
 5.907 	-0.106 	0.365
 6.267 	0.088 	0.057
 6.863 	0.487 	-0.199
 6.761 	0.422 	-0.296
 6.555 	0.535 	-0.789
 7.057 	0.367 	-0.553
 6.922 	0.800 	-0.568
 6.509 	-0.260 	-0.158
 4.640 	0.388 	0.275
 4.555 	-0.502 	0.644
 5.313 	0.093 	-0.164
 5.677 	0.056 	-0.454
 5.863 	0.541 	-0.633
 5.440 	-0.346 	0.071
 5.883 	-0.249 	0.185
 5.793 	-0.280 	-0.006
 6.026 	0.183 	0.167
 6.125 	0.157 	0.356
 6.404 	0.529 	-0.197
 6.534 	0.499 	-0.359
 6.390 	0.189 	-0.351
 6.578 	0.217 	-0.345
 6.985 	0.252 	-0.378
 6.359 	-0.116 	-0.090
 5.999 	0.776 	-0.108
 5.256 	0.010 	0.338
 5.983 	0.503 	-0.921
 5.918 	0.357 	-0.457
 5.977 	-0.164 	-0.118
 6.032 	-0.404 	-0.142
 5.796 	-0.546 	0.013
 5.413 	-0.399 	0.282
 4.436 	-0.734 	1.059
 5.203 	0.244 	0.730
 6.152 	0.802 	-0.125
 6.351 	0.663 	-0.304
 6.251 	0.382 	-0.457
 6.868 	0.204 	-0.592
 6.435 	0.725 	0.007
 6.406 	0.737 	-0.036
 4.402 	0.601 	0.395
 4.877 	0.511 	0.576
 5.372 	0.380 	-0.146
 6.006 	-0.132 	-0.115
 6.179 	-0.604 	-0.128
 6.538 	-0.444 	0.022
 6.010 	0.151 	0.129
 5.431 	-0.256 	0.353
 6.433 	0.246 	-0.537
 6.099 	0.337 	0.038
 5.344 	-0.038 	-0.411
 6.047 	0.237 	-0.395
 6.003 	0.047 	-0.497
 5.677 	-0.092 	-0.216
 5.241 	0.700 	-0.228
 5.067 	0.489 	-0.125
 5.354 	-0.074 	-0.262
 5.917 	-0.159 	0.001
 6.202 	-0.296 	-0.264
 6.194 	-0.349 	-0.155
 6.507 	-0.439 	-0.112
 6.221 	-0.526 	-0.508
 6.590 	0.003 	-0.476
 6.520 	0.322 	-0.326
 5.740 	-0.073 	-0.165
 5.826 	-0.307 	0.489
 6.365 	-0.500 	-0.259
 4.696 	-1.176 	0.442
 5.381 	-0.096 	-0.126
 5.211 	-0.552 	-0.302
 4.443 	0.430 	0.353
 4.191 	0.378 	0.166
 6.042 	-0.191 	-0.556
 5.892 	-0.273 	-0.513
 6.114 	-0.436 	-0.399
 6.322 	-0.192 	-0.195
 6.190 	-0.211 	-0.041
 6.430 	-0.626 	-0.082
 6.247 	-0.493 	-0.124
 6.152 	-0.114 	-0.060
 7.072 	0.191 	-0.624
 6.614 	0.073 	0.328
 5.913 	0.112 	0.195
 6.042 	0.029 	-0.048
 5.154 	-0.927 	0.298
 4.937 	-0.688 	0.035
 5.254 	-0.045 	0.504
 4.063 	0.546 	0.409
 5.178 	-0.848 	-0.390
 5.010 	-0.874 	-0.491
 5.040 	-0.745 	-0.581
 5.725 	-0.187 	0.284
 5.919 	0.330 	-0.033
 5.200 	-0.240 	-0.338
 5.134 	-0.401 	-0.153
 5.996 	0.195 	-0.593
 6.108 	0.846 	0.938
 5.860 	0.338 	0.004
 6.515 	0.426 	-0.406
 5.539 	0.622 	0.216
 5.263 	-0.520 	0.468
 5.347 	-0.589 	-0.205
 4.831 	0.420 	0.647
 4.138 	0.363 	0.788
 4.316 	-0.965 	0.013
 4.609 	-0.960 	0.269
 4.660 	-0.810 	0.290
 4.741 	-0.821 	0.208
 4.617 	-0.597 	-0.208
 5.480 	-0.076 	-0.572
 5.084 	-0.015 	-0.525
 4.786 	0.652 	-0.751
 5.522 	0.683 	0.749
 6.151 	0.825 	-0.598
 6.544 	0.865 	-0.440
 6.228 	0.963 	-0.035
 5.106 	0.158 	0.193
 5.028 	0.336 	-0.081
 4.769 	-0.215 	0.569
 5.490 	-0.116 	0.346
 5.064 	-1.326 	0.898
 4.631 	-1.279 	1.184
 4.843 	-1.290 	0.228
 5.459 	-1.073 	-1.012
 5.768 	0.070 	-0.696
 6.652 	0.115 	-0.382
 5.478 	-0.514 	-0.519
 5.493 	-0.413 	-0.070
 4.977 	0.838 	0.770
 4.189 	0.889 	1.244
 4.266 	1.016 	1.024
 3.770 	1.150 	0.903
 4.736 	1.311 	-0.019
 5.283 	1.976 	0.017
 4.949 	1.167 	0.105
 5.087 	0.525 	-0.366
 6.469 	-0.686 	-0.314
 6.933 	-0.924 	0.050
 6.041 	-0.786 	0.546
 6.260 	-0.771 	-0.305
 6.139 	-0.356 	-0.111
 5.873 	-0.102 	-0.477
 5.373 	-0.136 	-0.101
 4.983 	-0.095 	-0.432
 5.299 	0.995 	0.208
 5.451 	1.204 	0.763
 5.145 	0.888 	0.793
 4.669 	0.272 	0.153
 4.720 	0.906 	0.175
 4.926 	1.493 	-0.012
 5.437 	0.496 	-0.138
 5.780 	0.523 	-0.574
 6.198 	-0.635 	-0.237
 7.053 	-0.779 	-0.115
 7.192 	-0.104 	0.464
 7.210 	-0.121 	-0.133
 7.018 	-0.232 	-0.478
 6.706 	0.182 	-0.124
 5.710 	0.554 	-0.204
 5.027 	0.062 	0.032
 5.068 	0.521 	0.491
 5.747 	0.953 	-0.336
 5.483 	0.750 	0.377
 5.303 	0.605 	-0.182
 4.837 	0.508 	-0.145
 4.776 	1.213 	-0.190
 5.015 	0.576 	0.198
 5.113 	0.622 	0.310
 6.449 	-0.331 	-0.457
 6.448 	-0.035 	0.535
 6.986 	0.220 	-0.154
 7.124 	0.108 	-0.557
 6.938 	0.045 	-0.913
 6.997 	0.420 	-0.338
 5.973 	0.669 	-0.262
 5.781 	0.119 	-0.050
 6.108 	-0.332 	-0.557
 5.827 	0.165 	0.195
 5.770 	0.937 	-0.052
 5.979 	0.870 	-0.450
 5.821 	0.935 	-0.533
 5.297 	1.225 	-0.291
 5.587 	0.323 	0.034
 5.215 	0.163 	0.269
 6.313 	-0.064 	0.268
 6.275 	0.339 	0.547
 6.795 	0.428 	0.171
 6.984 	0.697 	-0.577
 6.763 	0.089 	-0.925
 6.609 	0.340 	-0.381
 6.613 	0.715 	-0.061
 6.234 	0.348 	0.253
 6.166 	0.068 	-0.179
 5.800 	0.194 	-0.014
 5.415 	0.952 	0.146
 5.161 	1.175 	-0.191
 5.624 	0.871 	-0.625
 6.269 	0.883 	-0.659
 6.764 	0.019 	-0.784
 7.176 	0.080 	-0.526
 5.148 	0.464 	0.939
 5.730 	0.568 	0.837
 6.203 	0.154 	0.275
 6.852 	0.409 	-0.244
 6.517 	0.545 	-0.841
 6.646 	0.628 	-0.463
 6.483 	0.142 	-0.133
 6.114 	0.217 	0.216
 6.127 	0.164 	0.170
 6.257 	0.175 	-0.236
 6.450 	0.640 	-0.148
 6.358 	0.832 	0.031
 6.534 	0.396 	-0.266
 6.887 	-0.028 	-0.522
 6.944 	-0.313 	-0.532
 7.191 	0.032 	-0.647
 5.557 	0.644 	0.512
 5.163 	0.222 	0.210
 5.216 	-0.156 	0.102
 5.375 	-0.044 	-0.013
 5.746 	0.272 	-0.042
 5.771 	0.561 	0.121
 5.549 	0.496 	0.326
 5.645 	0.121 	0.230
 6.076 	-0.232 	0.272
 6.387 	0.009 	0.075
 6.606 	0.450 	0.075
 6.898 	0.632 	0.151
 6.752 	0.811 	-0.112
 6.739 	-0.245 	-0.593
 6.380 	-0.593 	-1.021
 6.249 	-0.510 	-0.709
 5.755 	0.808 	0.116
 5.844 	0.054 	-0.175
 5.654 	0.029 	-0.179
 5.804 	0.108 	-0.052
 5.609 	-0.218 	0.009
 5.947 	0.153 	0.055
 6.219 	0.093 	0.015
 6.364 	-0.256 	-0.139
 6.391 	0.121 	0.027
 6.614 	0.268 	0.196
 6.366 	0.674 	0.349
 6.725 	0.786 	0.181
 7.014 	0.739 	-0.586
 6.848 	0.004 	-0.428
 6.481 	-0.326 	-0.021
 6.225 	-0.304 	-0.113
 6.617 	0.011 	0.221
 6.636 	0.062 	0.141
 6.114 	0.525 	-0.366
 5.974 	0.397 	-0.533
 5.812 	0.075 	-0.404
 5.803 	-0.365 	-0.072
 5.780 	-0.389 	-0.052
 6.469 	-0.384 	-0.058
 6.756 	-0.402 	-0.020
 6.770 	-0.034 	-0.096
 6.697 	0.221 	0.007
 6.959 	0.724 	-0.537
 7.076 	1.000 	-0.219
 6.856 	0.007 	-0.243
 6.746 	-0.315 	-0.214
 6.742 	0.161 	0.237
 5.603 	-0.260 	-0.502
 6.231 	0.293 	-0.000
 6.170 	0.537 	-0.194
 6.236 	0.541 	-0.270
 5.483 	-0.088 	-0.183
 5.215 	-0.476 	0.258
 5.241 	-0.474 	0.339
 5.578 	-0.835 	0.398
 6.218 	-0.345 	0.123
 6.122 	-0.019 	-0.089
 6.410 	0.228 	-0.061
 6.390 	0.672 	0.020
 6.460 	0.102 	-0.272
 6.706 	-0.398 	-0.559
 7.061 	0.183 	-0.449
 6.737 	-0.018 	-0.161
 4.352 	-0.764 	0.035
 4.862 	-0.254 	0.077
 5.653 	0.619 	-0.089
 5.631 	-0.011 	0.025
 5.939 	-0.535 	0.196
 6.063 	-0.902 	0.119
 6.349 	-0.936 	0.256
 5.977 	-0.030 	0.266
 5.873 	-0.532 	0.005
 6.314 	-0.363 	0.437
 6.431 	-0.602 	0.214
 6.350 	0.132 	0.138
 6.745 	-0.715 	-0.477
 6.456 	-0.337 	-0.524
 6.141 	0.328 	-0.017
 5.388 	0.387 	0.200
 5.376 	-0.347 	0.498
 5.576 	-0.274 	-0.062
 5.870 	-0.418 	-0.420
 6.294 	-0.746 	-0.352
 6.673 	-0.786 	0.002
 6.588 	-0.625 	-0.149
 6.685 	-0.346 	-0.192
 6.962 	-0.220 	0.029
 6.416 	-0.268 	-0.196
 6.045 	-0.221 	0.336
 6.211 	-0.519 	0.351
 6.483 	-0.570 	-0.328
 6.427 	-0.335 	-0.670
 6.411 	0.029 	-0.205
 5.511 	0.097 	0.352
 4.795 	0.430 	0.517
 6.149 	-0.028 	0.010
 6.274 	-0.406 	0.176
 6.117 	-0.743 	0.116
 6.063 	-0.723 	-0.138
 6.045 	-0.790 	-0.103
 6.074 	-0.905 	-0.161
 6.543 	-0.591 	-0.182
 6.551 	0.274 	-0.364
 6.035 	0.192 	0.077
 5.997 	0.064 	0.356
 5.740 	-0.337 	-0.152
 5.916 	-0.773 	0.017
 5.786 	-0.047 	0.191
 5.517 	0.197 	0.471
 5.347 	0.561 	0.553
 5.196 	0.561 	0.264
 5.720 	-0.496 	-0.006
 5.650 	-0.685 	0.138
 5.677 	-0.769 	-0.140
 5.567 	-0.794 	-0.105
 5.620 	-0.793 	-0.181
 5.441 	-0.991 	-0.488
 5.696 	-0.644 	-0.365
 6.092 	0.079 	-0.175
 6.224 	0.336 	0.168
 6.166 	0.054 	0.216
 6.028 	0.079 	-0.039
 5.732 	0.087 	0.559
 5.238 	0.500 	-0.072
 4.463 	-0.119 	0.072
 4.775 	0.786 	1.120
 5.173 	0.641 	0.334
 5.188 	-0.981 	-0.078
 5.141 	-1.229 	0.126
 5.082 	-1.069 	-0.022
 4.970 	-0.910 	-0.102
 5.373 	-0.602 	-0.103
 5.408 	-0.825 	-0.214
 5.178 	-0.605 	-0.546
 5.250 	-0.022 	-0.591
 5.573 	-0.024 	-0.231
 6.132 	0.230 	-0.139
 6.553 	0.300 	-0.349
 5.734 	0.313 	0.034
 5.600 	0.898 	0.166
 4.839 	-0.168 	-0.255
 4.622 	1.292 	1.361
 4.855 	0.463 	0.843
 5.479 	-0.652 	-0.061
 4.584 	-1.268 	0.302
 4.357 	-1.504 	0.219
 4.548 	-0.936 	0.329
 5.131 	-0.657 	-0.071
 5.109 	-0.522 	-0.533
 5.095 	-0.577 	-0.640
 4.989 	-0.505 	-0.455
 4.904 	-0.154 	-0.477
 5.531 	-0.033 	-0.670
 5.729 	0.132 	-0.847
 6.307 	0.573 	-0.534
 6.708 	0.746 	-0.248
 6.683 	0.642 	-0.083
 6.778 	0.766 	0.234
 7.183 	-0.108 	-0.031
 6.195 	-0.700 	0.383
 6.602 	-0.794 	0.643
 6.492 	-0.806 	-0.273
 5.947 	0.022 	-0.036
 6.093 	0.466 	-0.243
 6.266 	-0.254 	0.092
 6.145 	-0.195 	0.172
 5.393 	-0.289 	-0.345
 5.646 	-0.129 	0.456
 5.408 	0.671 	1.179
 5.874 	1.654 	1.138
 5.639 	0.712 	0.569
 5.581 	1.219 	0.542
 5.472 	1.938 	0.152
 5.820 	1.774 	0.314
 5.900 	0.768 	-0.033
 6.440 	-0.443 	-0.335
 6.881 	-0.060 	-0.280
 7.133 	-0.325 	0.388
 6.278 	-0.055 	-0.393
 6.113 	-0.306 	-0.104
 6.791 	-0.344 	-0.451
 6.419 	0.009 	-0.234
 5.230 	0.049 	-0.141
 5.252 	0.367 	0.167
 5.804 	1.015 	0.986
 6.113 	1.517 	0.545
 6.295 	0.936 	0.503
 5.579 	0.397 	0.537
 5.531 	1.396 	0.285
 5.911 	1.535 	-0.067
 5.722 	0.527 	-0.219
 6.801 	-0.725 	-0.447
 7.023 	-0.331 	-0.534
 6.841 	-0.273 	0.101
 6.884 	-0.094 	-0.132
 6.750 	-0.545 	-0.534
 6.582 	0.184 	-0.035
 5.816 	0.519 	-0.152
 5.213 	0.607 	0.090
 5.376 	0.193 	0.455
 5.568 	0.233 	0.349
 5.839 	0.644 	0.608
 6.396 	0.929 	0.356
 6.037 	0.374 	-0.003
 5.637 	1.080 	0.033
 5.141 	0.927 	0.391
 5.135 	0.213 	0.601
 6.606 	-0.638 	-0.423
 6.840 	-0.255 	-0.380
 7.184 	0.047 	-0.500
 6.876 	-0.147 	-0.440
 6.677 	-0.019 	-0.803
 6.122 	0.712 	0.073
 5.764 	0.609 	0.129
 5.785 	0.347 	-0.180
 6.585 	0.541 	-0.755
 6.309 	-0.169 	0.455
 6.589 	-0.175 	-0.093
 5.567 	0.569 	-0.325
 5.840 	0.407 	-0.068
 5.710 	0.972 	-0.228
 5.671 	0.596 	0.225
 5.831 	0.361 	0.192
 6.668 	-0.556 	-0.026
 6.877 	-0.212 	-0.171
 7.013 	-0.017 	-0.487
 7.019 	-0.185 	-0.530
 6.788 	0.081 	-0.524
 6.575 	0.558 	-0.058
 6.559 	0.519 	-0.033
 6.496 	0.107 	0.173
 6.534 	-0.022 	0.025
 6.471 	0.130 	0.085
 6.985 	-0.111 	0.014
 6.929 	0.184 	-0.248
 6.624 	0.669 	-0.288
 6.483 	0.856 	-0.292
 6.893 	0.184 	-0.379
 6.467 	0.535 	-0.467
 6.184 	-0.186 	0.474
 5.823 	-0.231 	0.600
 6.130 	-0.014 	0.346
 6.810 	0.007 	-0.061
 7.158 	-0.099 	-0.759
 6.758 	0.318 	-0.455
 6.614 	0.323 	0.279
 6.609 	-0.029 	0.628
 6.945 	-0.222 	0.166
 7.247 	-0.196 	-0.263
 7.579 	0.124 	-0.169
 7.246 	0.009 	-0.047
 6.795 	0.319 	-0.113
 6.670 	0.060 	-0.289
 6.745 	-0.073 	-0.543
 6.774 	0.551 	-0.592
 6.280 	0.593 	0.710
 6.328 	0.261 	0.292
 6.092 	-0.204 	0.188
 6.075 	-0.101 	0.011
 6.169 	0.176 	-0.076
 6.367 	0.604 	0.011
 6.822 	0.648 	0.180
 6.984 	0.078 	0.037
 7.103 	-0.237 	-0.338
 7.581 	0.073 	-0.112
 7.493 	0.055 	-0.220
 6.951 	0.606 	-0.135
 6.704 	0.460 	-0.085
 6.698 	-0.319 	-0.137
 6.638 	-0.420 	-0.035
 6.835 	-0.209 	0.077
 6.289 	0.461 	0.257
 7.018 	0.294 	-0.164
 7.128 	0.094 	-0.248
 6.799 	0.192 	-0.300
 6.309 	0.754 	-0.242
 6.420 	0.670 	-0.213
 6.892 	0.402 	-0.059
 6.989 	0.050 	-0.263
 6.891 	0.117 	0.017
 6.485 	0.348 	0.369
 6.382 	0.420 	0.081
 6.459 	0.706 	-0.112
 7.020 	-0.033 	-0.233
 6.793 	-0.232 	-0.319
 6.742 	-0.263 	-0.249
 6.852 	-0.489 	-0.283
 6.902 	-0.047 	0.037
 7.249 	0.250 	0.234
 6.768 	0.392 	-0.324
 6.271 	0.201 	-0.335
 6.239 	0.528 	-0.378
 6.387 	0.459 	-0.078
 6.612 	0.295 	0.066
 6.679 	0.190 	0.031
 6.841 	0.352 	-0.033
 6.793 	0.278 	0.217
 6.933 	0.275 	0.089
 6.781 	0.178 	0.026
 6.722 	-0.195 	-0.163
 6.771 	-0.128 	-0.630
 6.865 	-0.130 	-0.619
 7.022 	-0.242 	0.007
 5.066 	-1.049 	-0.178
 6.359 	0.393 	-0.381
 6.568 	0.664 	-0.279
 6.354 	0.554 	0.046
 5.998 	0.477 	0.493
 5.881 	0.197 	0.499
 6.182 	0.089 	0.393
 5.920 	-0.413 	0.620
 6.069 	-0.356 	0.642
 6.356 	-0.030 	0.411
 6.323 	0.136 	0.159
 6.347 	0.056 	0.016
 6.628 	-0.163 	-0.097
 6.800 	-0.699 	-0.491
 7.223 	-0.283 	-0.687
 7.400 	0.023 	-0.331
 4.990 	-0.882 	0.211
 4.469 	-0.741 	0.560
 4.963 	-0.046 	0.625
 5.345 	0.214 	0.775
 5.510 	0.413 	0.236
 5.850 	-0.203 	-0.093
 6.597 	-0.537 	0.051
 7.004 	-0.824 	-0.084
 6.917 	-0.327 	-0.060
 6.094 	-0.408 	0.191
 6.115 	0.081 	0.459
 6.540 	-0.342 	0.012
 7.270 	-0.758 	-0.217
 7.071 	-0.638 	-0.580
 6.223 	-0.070 	0.215
 5.503 	0.213 	0.580
 6.339 	-0.894 	0.083
 6.477 	-0.697 	-0.222
 6.125 	-0.447 	0.011
 6.314 	-0.231 	-0.030
 6.740 	-0.484 	0.108
 7.009 	-0.852 	-0.034
 6.828 	-0.916 	-0.341
 6.908 	-0.773 	-0.344
 6.849 	-0.353 	-0.451
 7.356 	-0.029 	-0.354
 6.886 	-0.102 	0.294
 7.479 	-0.290 	-0.077
 6.666 	-0.356 	-0.355
 5.963 	0.103 	0.267
 5.041 	0.169 	0.542
 5.361 	0.277 	0.142
 6.425 	-0.932 	-0.041
 6.608 	-0.943 	-0.150
 6.729 	-0.674 	-0.301
 6.716 	-0.619 	-0.235
 6.868 	-0.836 	-0.209
 6.762 	-1.010 	-0.307
 6.614 	-0.911 	-0.269
 6.577 	-0.671 	-0.234
 6.468 	0.192 	0.432
 7.224 	0.033 	-0.206
 6.606 	-0.108 	0.454
 5.871 	-0.332 	-0.410
 5.920 	0.051 	0.361
 5.577 	0.109 	0.727
 6.013 	-0.311 	0.202
 6.728 	0.169 	-0.146
 6.134 	-1.155 	0.119
 6.433 	-0.695 	0.234
 6.530 	-0.579 	-0.047
 6.697 	-0.527 	-0.054
 6.624 	-0.701 	-0.344
 6.719 	-0.754 	-0.111
 6.384 	-0.703 	-0.269
 5.423 	-0.673 	-0.369
 6.433 	-0.041 	0.063
 6.930 	-0.146 	0.271
 6.396 	-0.031 	0.291
 6.363 	-0.477 	-0.478
 6.577 	0.154 	0.348
 5.975 	0.370 	0.220
 6.100 	-0.297 	0.441
 6.262 	-0.061 	0.389
 5.999 	-0.956 	0.258
 6.282 	-0.594 	0.223
 6.523 	-0.691 	0.117
 6.641 	-0.582 	0.038
 6.180 	-0.323 	-0.331
 6.535 	-0.337 	-0.247
 6.181 	-1.315 	-0.027
 6.373 	-0.409 	-0.124
 5.752 	-0.193 	-0.565
 5.698 	0.059 	-0.352
 6.079 	0.233 	-0.175
 6.085 	-0.493 	-0.454
 6.334 	0.409 	-0.178
 6.679 	0.424 	0.131
 6.649 	0.188 	0.697
 7.254 	-0.231 	0.422
 5.729 	-1.062 	0.518
 6.215 	-0.985 	0.229
 6.414 	-0.571 	0.140
 6.707 	-0.476 	0.104
 6.564 	-0.301 	-0.249
 6.668 	-0.323 	-0.243
 6.994 	-0.392 	-0.602
 6.981 	-0.568 	-0.073
 6.158 	-0.252 	-0.184
 6.160 	-0.171 	-0.564
 6.426 	-0.108 	-0.667
 7.135 	-0.005 	-0.625
 6.438 	-0.631 	-0.633
 6.929 	0.583 	-0.042
 6.747 	0.267 	0.532
 6.353 	-0.250 	0.328
 5.966 	0.240 	0.070
 6.033 	0.078 	0.311
 5.977 	0.083 	0.080
 6.139 	-0.008 	-0.010
 6.383 	-0.377 	-0.046
 6.971 	-0.004 	-0.065
 7.024 	0.368 	0.186
 7.339 	0.479 	-0.078
 5.850 	-0.205 	-0.034
 6.169 	-0.328 	0.325
 6.469 	0.318 	0.353
 6.527 	0.817 	0.388
 6.372 	0.758 	0.956
 6.684 	1.165 	0.449
 6.376 	1.611 	0.599
 5.851 	1.177 	0.499
 6.741 	-0.207 	-0.136
 6.489 	-0.100 	0.026
 6.420 	0.098 	0.229
 6.717 	0.106 	-0.200
 6.828 	0.126 	-0.657
 6.613 	-0.347 	-0.209
 6.691 	-0.115 	0.114
 6.616 	0.739 	-0.098
 5.666 	0.074 	0.257
 5.951 	0.074 	0.754
 6.161 	0.746 	0.952
 6.284 	1.163 	0.804
 6.148 	0.335 	0.861
 6.263 	1.035 	0.228
 6.179 	1.463 	0.589
 6.070 	0.904 	0.144
 7.413 	-0.426 	-0.099
 6.977 	-0.265 	-0.221
 7.105 	-0.088 	-0.417
 6.985 	0.068 	-0.203
 6.966 	0.203 	-0.433
 6.653 	-0.120 	-0.269
 6.680 	0.469 	0.075
 6.567 	0.666 	0.249
 5.914 	0.851 	0.003
 5.638 	0.129 	0.265
 5.673 	0.464 	0.490
 6.054 	0.558 	0.591
 6.093 	0.319 	0.391
 5.628 	0.820 	0.422
 5.451 	1.416 	0.147
 5.412 	0.914 	0.701
 7.455 	-0.764 	-0.484
 7.407 	-0.467 	-0.819
 7.702 	-0.151 	-0.720
 7.433 	0.167 	-0.322
 7.009 	0.205 	-0.265
 6.388 	0.145 	-0.034
 6.147 	0.849 	0.307
 6.737 	0.931 	-0.277
 6.054 	0.955 	-0.116
 6.123 	0.729 	0.105
 6.312 	0.297 	0.180
 6.362 	0.088 	0.167
 6.066 	0.172 	0.073
 5.372 	0.976 	0.210
 5.563 	1.315 	0.653
 5.814 	0.782 	-0.089
 6.678 	-0.577 	-0.364
 6.920 	-0.260 	-0.475
 7.260 	-0.009 	-0.477
 7.186 	0.432 	-0.333
 6.750 	0.659 	-0.106
 6.239 	0.714 	0.408
 6.176 	0.730 	0.259
 6.225 	0.411 	0.281
 6.515 	0.417 	0.135
 6.807 	0.274 	0.069
 6.918 	0.156 	-0.047
 6.811 	0.077 	0.088
 6.887 	0.589 	-0.012
 6.646 	0.809 	-0.034
 6.795 	0.647 	0.068
 6.271 	0.960 	-0.211
 6.202 	-0.321 	0.214
 6.659 	-0.112 	0.412
 6.551 	-0.216 	0.070
 7.024 	0.397 	-0.240
 7.056 	0.715 	-0.441
 6.838 	0.580 	0.001
 6.841 	0.634 	0.378
 7.129 	0.324 	0.582
 7.092 	0.165 	-0.132
 7.232 	0.235 	-0.333
 7.268 	0.356 	-0.087
 7.069 	0.040 	0.017
 6.934 	0.397 	0.181
 7.265 	0.891 	-0.109
 7.076 	0.740 	-0.097
 6.570 	1.102 	-0.549
 6.273 	-0.617 	0.281
 6.612 	-0.386 	0.129
 6.904 	-0.332 	0.110
 6.893 	-0.100 	0.033
 6.698 	0.031 	-0.194
 6.924 	0.115 	-0.439
 7.220 	0.205 	-0.263
 7.583 	0.204 	-0.273
 7.512 	0.195 	-0.399
 7.388 	0.041 	-0.342
 7.373 	0.223 	-0.179
 7.085 	0.275 	-0.002
 7.008 	0.388 	0.032
 6.893 	0.749 	-0.100
 6.971 	0.966 	-0.236
 6.889 	0.935 	-0.068
 5.999 	-0.361 	0.285
 5.995 	-0.410 	0.000
 6.294 	-0.324 	-0.303
 6.578 	-0.286 	-0.312
 6.355 	-0.203 	-0.262
 6.468 	-0.022 	-0.249
 6.652 	-0.019 	-0.271
 6.806 	0.146 	-0.237
 6.813 	0.180 	-0.065
 6.602 	0.018 	0.380
 6.622 	0.060 	0.102
 6.839 	0.366 	-0.051
 6.780 	0.401 	0.021
 6.670 	0.765 	-0.209
 6.629 	0.923 	-0.445
 6.754 	0.727 	-0.346
 6.095 	-0.430 	0.247
 5.698 	-0.823 	-0.185
 5.645 	-0.483 	-0.319
 5.996 	0.015 	-0.544
 5.936 	-0.015 	-0.373
 6.131 	0.193 	-0.046
 6.180 	0.127 	0.080
 6.280 	0.401 	0.030
 6.396 	0.056 	0.220
 6.601 	-0.307 	0.329
 6.822 	-0.325 	0.376
 6.948 	0.091 	0.313
 6.734 	0.112 	0.026
 6.738 	0.093 	0.001
 6.863 	0.232 	0.125
 7.289 	-0.011 	0.116
 5.315 	-0.603 	0.059
 5.478 	-0.582 	0.198
 5.310 	-0.327 	0.121
 5.016 	-0.260 	0.388
 5.293 	-0.164 	0.690
 5.578 	-0.044 	0.731
 5.738 	0.133 	0.842
 5.864 	-0.188 	0.934
 6.091 	-0.524 	1.165
 6.396 	-0.878 	0.924
 6.677 	-0.650 	0.384
 6.826 	-0.531 	0.181
 7.066 	-0.166 	-0.035
 7.109 	-0.717 	-0.227
 7.436 	-0.692 	-0.053
 7.306 	-0.397 	-0.167
 5.086 	-0.248 	0.102
 4.815 	-0.502 	0.803
 4.799 	-0.274 	0.717
 5.262 	-0.042 	0.302
 5.861 	-0.197 	0.110
 6.486 	-0.573 	0.045
 7.004 	-0.481 	0.137
 7.129 	-0.489 	-0.023
 6.739 	-0.526 	0.001
 6.815 	-0.571 	0.093
 6.747 	-0.744 	-0.122
 6.950 	-0.537 	-0.335
 7.179 	-0.535 	-0.470
 6.964 	-0.854 	-0.139
 6.348 	-0.316 	0.517
 5.813 	0.037 	0.549
 5.910 	-0.400 	0.217
 6.098 	-0.624 	0.100
 5.873 	-0.170 	0.519
 6.285 	-0.398 	0.886
 7.059 	-0.739 	0.629
 7.152 	-1.027 	0.149
 6.908 	-0.736 	-0.213
 6.664 	-0.378 	-0.331
 6.765 	-0.211 	-0.375
 6.871 	-0.190 	-0.260
 7.187 	-0.167 	-0.018
 7.191 	-0.351 	0.147
 6.858 	-0.740 	0.058
 6.447 	0.069 	0.187
 5.731 	0.188 	0.656
 6.387 	-0.247 	0.328
 6.532 	-0.795 	0.017
 6.553 	-0.750 	-0.079
 6.623 	-0.641 	-0.085
 6.702 	-1.093 	-0.014
 7.126 	-1.067 	-0.091
 6.860 	-0.886 	-0.262
 6.603 	-0.824 	-0.040
 6.636 	-0.680 	-0.081
 6.583 	-0.599 	0.051
 6.604 	-0.349 	-0.187
 6.944 	-0.260 	0.214
 6.849 	-0.135 	0.258
 6.107 	-0.049 	0.427
 6.095 	0.383 	0.232
 6.895 	0.076 	0.010
 6.922 	-0.556 	-0.138
 6.574 	-1.164 	0.072
 6.785 	-0.980 	-0.056
 6.957 	-0.984 	-0.325
 7.280 	-1.181 	-0.138
 6.979 	-1.214 	-0.488
 6.397 	-0.763 	-0.098
 6.412 	-1.023 	-0.007
 6.585 	-0.783 	0.096
 5.925 	-0.645 	-0.312
 5.992 	-0.632 	0.224
 6.514 	-0.348 	0.363
 6.610 	-0.041 	0.074
 6.333 	0.151 	0.678
 7.026 	-0.275 	0.322
 7.043 	-0.427 	-0.112
 7.094 	-0.257 	0.027
 6.705 	-1.341 	0.225
 7.201 	-1.114 	-0.086
 7.435 	-0.933 	-0.225
 7.186 	-1.242 	-0.067
 6.883 	-0.880 	-0.244
 6.821 	-0.480 	-0.243
 6.642 	-0.618 	-0.237
 6.996 	-1.334 	-0.024
 7.576 	-0.589 	-0.288
 7.470 	-0.942 	-0.486
 7.770 	-0.668 	-0.515
 6.964 	-0.160 	-0.252
 6.572 	-0.487 	-0.091
 6.418 	-0.750 	-0.208
 6.482 	-0.602 	0.346
 6.657 	-0.497 	0.551
 6.831 	-1.525 	0.161
 6.956 	-1.539 	0.285
 7.213 	-1.029 	0.167
 7.349 	-0.696 	-0.220
 7.471 	-0.895 	-0.194
 7.306 	-0.844 	-0.347
 7.224 	-1.579 	-0.351
 7.162 	-1.011 	0.526
 6.982 	-0.588 	-0.079
 6.908 	-0.967 	-0.398
 7.161 	-0.858 	-0.366
 7.404 	-0.543 	-0.283
 7.353 	0.084 	-0.322
 6.739 	-0.827 	0.008
 6.204 	-0.506 	0.641
 6.357 	-0.300 	0.304
 6.394 	0.045 	0.264
 6.387 	-0.073 	0.308
 6.397 	0.043 	0.300
 6.676 	-0.466 	-0.129
 6.832 	-0.447 	-0.107
 6.824 	-0.207 	0.563
 7.353 	0.170 	0.247
 7.654 	0.663 	0.387
 7.280 	0.355 	0.439
 6.639 	0.110 	0.193
 7.132 	-0.094 	-0.236
 6.985 	0.394 	0.036
 6.670 	0.763 	0.780
 6.485 	1.279 	0.380
 6.416 	1.640 	0.586
 6.756 	1.561 	0.500
 7.058 	0.171 	0.147
 6.628 	-0.276 	0.424
 6.957 	-0.538 	0.339
 7.658 	-0.349 	-0.299
 7.850 	-0.582 	-0.732
 7.519 	-0.033 	-0.197
 6.762 	0.037 	0.466
 6.582 	0.453 	0.663
 5.823 	0.340 	0.175
 5.661 	-0.123 	0.269
 5.899 	0.231 	0.630
 5.851 	0.401 	1.228
 6.263 	0.720 	1.104
 6.075 	0.918 	0.640
 6.225 	1.382 	0.466
 6.273 	1.221 	0.432
 7.415 	0.084 	0.077
 7.764 	-0.284 	-0.052
 7.731 	-0.464 	-0.525
 8.018 	-0.465 	-0.213
 8.028 	-0.516 	-0.785
 8.066 	0.410 	-0.352
 7.420 	0.257 	0.041
 6.706 	0.313 	0.587
 6.836 	0.527 	0.247
 5.431 	0.586 	0.110
 5.283 	0.267 	0.617
 5.541 	0.262 	0.644
 5.877 	0.598 	0.613
 5.725 	0.744 	0.634
 5.521 	1.117 	0.713
 5.208 	1.295 	1.052
 8.389 	0.073 	-0.295
 8.252 	-0.228 	-0.586
 7.605 	-0.449 	-0.693
 7.650 	-0.142 	-0.331
 7.290 	0.211 	-0.361
 7.499 	0.431 	0.252
 7.260 	0.178 	0.200
 6.806 	0.470 	0.361
 6.687 	0.464 	0.091
 6.124 	0.907 	0.072
 6.385 	0.619 	-0.106
 6.479 	0.129 	0.038
 5.966 	0.260 	0.404
 5.802 	0.592 	0.268
 5.962 	1.022 	0.562
 5.929 	1.261 	0.369
 7.598 	-0.229 	-0.726
 7.442 	-0.042 	-0.618
 7.405 	-0.226 	-0.309
 6.926 	0.181 	-0.483
 7.061 	0.353 	-0.072
 7.188 	0.366 	0.410
 6.933 	0.519 	0.381
 6.416 	0.498 	0.467
 6.482 	0.360 	0.324