<?xml version="1.0"?>
<VTKFile type="PolyData" version="0.1" byte_order="LittleEndian">
  <PolyData>
    <Piece NumberOfPoints="     17" NumberOfVerts="  0" NumberOfLines="      0"
           NumberOfStrips="  0" NumberOfPolys="      0">
      <Points>
        <DataArray type="Float32" NumberOfComponents="3" format="ascii">
                       3.30357                      -2.34309                      92.49311
                       3.47406                      -4.88530                      95.06127
                       3.65174                      -7.43046                      97.62602
                       3.83952                      -9.97948                     100.18621
                       4.03993                     -12.53287                     102.74108
                       4.25572                     -15.09089                     105.29005
                       4.49011                     -17.65369                     107.83256
                       4.74693                     -20.22136                     110.36797
                       5.03068                     -22.79384                     112.89561
                       5.34627                     -25.37088                     115.41480
                       5.69857                     -27.95201                     117.92491
                       6.09186                     -30.53652                     120.42543
                       6.52894                     -33.12347                     122.91614
                       7.01011                     -35.71189                     125.39721
                       7.53198                     -38.30084                     127.86952
                       8.08604                     -40.88968                     130.33501
                       8.65705                     -43.47830                     132.79691
        </DataArray>
      </Points>
      <PointData>
        <DataArray type="Float32" Name="Force" NumberOfComponents="3" format="ascii">
                     175.01470                      59.83439                      47.66024
                     568.40946                     184.82689                     143.45330
                    1872.21482                    -521.67648                    -653.15308
                    3103.83660                    -883.93519                   -1115.42540
                    1864.29275                    -463.73812                    -612.48392
                    3974.00606                    -845.03134                   -1187.35437
                    4737.36464                    -832.51003                   -1283.06165
                    5180.41659                    -731.13739                   -1281.05684
                    5534.45933                    -628.51049                   -1286.68610
                    7018.04582                    -617.51012                   -1554.57806
                    8100.89422                    -529.57405                   -1748.76156
                    9421.73267                    -461.64396                   -2054.65700
                    5473.21235                    -201.04565                   -1204.52237
                   11063.39945                    -268.03081                   -2454.43026
                   10909.00490                    -120.92052                   -2445.10595
                   16035.42978                      15.27488                   -3593.75542
                    6979.82268                      84.21713                   -1516.00081
        </DataArray>
        <DataArray type="Float32" Name="Moment" NumberOfComponents="3" format="ascii">
                     -16.96013                      12.07915                      18.89040
                     153.03508                     194.42605                     273.07993
                    1000.09795                    1117.46686                    1561.83391
                    1064.87871                    1444.72573                    2020.96443
                      60.49994                      43.69287                     220.73431
                    -798.84525                   -1352.23401                   -1391.37430
                    -570.64517                    -486.62828                   -1401.50864
                    -263.77972                     985.71148                   -1200.41921
                    -114.03124                    1613.59400                    -886.34037
                       0.22859                    2230.97536                    -464.57027
                     380.39236                    3621.69237                     947.87648
                     973.82828                    5105.35522                    3448.22807
                    -135.54735                      40.44328                    -576.28988
                   -1438.57197                   -4749.97976                   -5787.60483
                   -1293.33773                   -4596.53285                   -5394.51224
                    -282.90327                    -107.33230                    -957.00226
                     -80.79079                     432.31535                      52.50944
        </DataArray>
      </PointData>
    </Piece>
  </PolyData>
</VTKFile>
