<?xml version="1.0"?>
<VTKFile type="PolyData" version="0.1" byte_order="LittleEndian">
  <PolyData>
    <Piece NumberOfPoints="     19" NumberOfVerts="  0" NumberOfLines="     18"
           NumberOfStrips="  0" NumberOfPolys="      0">
      <Points>
        <DataArray type="Float32" NumberOfComponents="3" format="ascii">
                       2.53668                      -1.36901                      89.47020
                       2.40666                      -2.58904                      88.86813
                       2.11574                      -4.98565                      87.58230
                       1.81339                      -7.36112                      86.25604
                       1.43409                     -10.31694                      84.57128
                       1.05962                     -13.92761                      82.66291
                       0.74130                     -17.59491                      80.85814
                       0.44468                     -21.26062                      79.04641
                       0.17831                     -24.92541                      77.22803
                      -0.05150                     -28.58815                      75.40047
                      -0.24331                     -32.24725                      73.56120
                      -0.38387                     -35.90267                      71.70993
                      -0.46655                     -39.55398                      69.84700
                      -0.48795                     -43.20079                      67.97344
                      -0.44790                     -46.84279                      66.09072
                      -0.37518                     -49.87459                      64.51665
                      -0.29681                     -52.30196                      63.26216
                      -0.20874                     -54.75446                      62.05560
                      -0.16951                     -55.96138                      61.41568
        </DataArray>
      </Points>
      <PointData>
        <DataArray type="Float32" Name="Force" NumberOfComponents="3" format="ascii">
                       0.57552                      -2.49874                       4.97379
                      80.54588                     -18.68028                      20.78113
                     108.07656                     -38.64508                      55.87199
                      99.91193                     -46.14781                      73.25677
                     787.33355                     125.08739                    -413.67908
                    1027.14620                     140.41842                    -482.76065
                    1198.99554                     136.33681                    -492.31273
                    1546.59573                     153.68850                    -566.10596
                    1689.67640                     148.64390                    -547.42330
                    1959.30137                     164.06504                    -572.85685
                    2429.27783                     201.51440                    -638.70526
                    2804.16322                     242.94641                    -668.82274
                    3285.40477                     314.52197                    -730.10285
                    3625.24851                     377.70507                    -740.35093
                    3932.03782                     440.16399                    -738.95923
                    4113.71154                     473.90150                    -717.06127
                    4029.32819                     459.90341                    -656.86908
                    2920.67259                     324.11035                    -448.59183
                    1292.81284                      86.81472                     -87.84005
        </DataArray>
        <DataArray type="Float32" Name="Moment" NumberOfComponents="3" format="ascii">
                       0.00000                       0.00000                       0.00000
                       0.00000                       0.00000                       0.00000
                       0.00000                       0.00000                       0.00000
                       0.00000                       0.00000                       0.00000
                      20.98465                     211.83084                     103.99193
                      39.27461                     416.54912                     204.72244
                      48.22076                     545.65364                     268.54710
                      61.34681                     756.59728                     373.00264
                      72.84421                    1010.48809                     499.22252
                      69.36216                    1135.54697                     562.45279
                      56.36687                    1182.11102                     587.34943
                      40.25145                    1246.38725                     621.50539
                      17.58269                    1133.59580                     567.46396
                      -1.75831                    1131.64761                     568.72317
                     -18.72438                    1091.43464                     550.48403
                     -28.04463                    1035.47178                     523.44773
                     -29.18344                     922.27932                     466.71362
                     -15.48789                     466.23760                     236.02162
                     -12.84339                     392.04572                     198.44294
        </DataArray>
        <DataArray type="Float32" Name="TranslationalVelocity" NumberOfComponents="3" format="ascii">
                      -0.51157                       0.58549                      -1.27170
                      -0.63807                       1.16031                      -2.40918
                      -0.88586                       2.38917                      -4.64360
                      -1.13191                       3.65637                      -6.85734
                      -1.43966                       5.26453                      -9.60986
                      -1.82048                       7.07844                     -12.96791
                      -2.21341                       8.78809                     -16.37361
                      -2.61199                      10.49998                     -19.77299
                      -3.01666                      12.21285                     -23.16674
                      -3.42720                      13.92838                     -26.55410
                      -3.84231                      15.64895                     -29.93445
                      -4.26163                      17.37323                     -33.30784
                      -4.68372                      19.10025                     -36.67447
                      -5.10682                      20.82884                     -40.03458
                      -5.52902                      22.55790                     -43.38849
                      -5.87899                      23.99855                     -46.17956
                      -6.15752                      25.14427                     -48.41385
                      -6.43698                      26.24483                     -50.67126
                      -6.57390                      26.82944                     -51.78222
        </DataArray>
        <DataArray type="Float32" Name="RotationalVelocity" NumberOfComponents="3" format="ascii">
                       0.93151                      -0.00927                      -0.10814
                       0.93135                      -0.00921                      -0.10823
                       0.93095                      -0.00905                      -0.10847
                       0.93045                      -0.00883                      -0.10881
                       0.92966                      -0.00847                      -0.10939
                       0.92855                      -0.00789                      -0.11032
                       0.92736                      -0.00721                      -0.11146
                       0.92617                      -0.00646                      -0.11272
                       0.92503                      -0.00570                      -0.11403
                       0.92397                      -0.00498                      -0.11528
                       0.92306                      -0.00436                      -0.11634
                       0.92228                      -0.00388                      -0.11715
                       0.92166                      -0.00358                      -0.11763
                       0.92118                      -0.00348                      -0.11773
                       0.92086                      -0.00358                      -0.11745
                       0.92071                      -0.00382                      -0.11693
                       0.92069                      -0.00410                      -0.11636
                       0.92072                      -0.00442                      -0.11571
                       0.92077                      -0.00460                      -0.11535
        </DataArray>
        <DataArray type="Float32" Name="TranslationalAcceleration" NumberOfComponents="3" format="ascii">
                       1.28418                       1.26144                       0.78577
                       1.32939                       2.36220                       1.26978
                       1.42402                       4.52904                       2.31475
                       1.52421                       6.67808                       3.39436
                       1.65894                       9.35186                       4.76169
                       1.83134                      12.60768                       6.27767
                       2.02058                      15.90380                       7.67936
                       2.23478                      19.19472                       9.07015
                       2.47751                      22.48177                      10.44815
                       2.75220                      25.76522                      11.81485
                       3.05812                      29.04528                      13.17407
                       3.40073                      32.32343                      14.52371
                       3.78077                      35.60097                      15.86398
                       4.19680                      38.87895                      17.19545
                       4.64417                      42.15791                      18.51922
                       5.03447                      44.89108                      19.61793
                       5.35324                      47.08042                      20.48875
                       5.66835                      49.28821                      21.31590
                       5.82672                      50.37766                      21.76269
        </DataArray>
        <DataArray type="Float32" Name="OrientationX" NumberOfComponents="3" format="ascii">
                       0.93992                       0.06473                      -0.33521
                       0.93996                       0.06515                      -0.33501
                       0.94008                       0.06633                      -0.33443
                       0.94025                       0.06795                      -0.33363
                       0.94052                       0.07064                      -0.33231
                       0.95090                       0.06046                      -0.30354
                       0.95795                       0.05510                      -0.28161
                       0.96381                       0.05210                      -0.26146
                       0.96960                       0.04990                      -0.23955
                       0.97512                       0.04897                      -0.21618
                       0.97995                       0.05043                      -0.19277
                       0.98423                       0.05350                      -0.16861
                       0.98763                       0.05849                      -0.14547
                       0.98984                       0.06570                      -0.12610
                       0.99161                       0.07178                      -0.10750
                       0.99287                       0.07433                      -0.09323
                       0.99373                       0.07398                      -0.08378
                       0.99419                       0.07309                      -0.07908
                       0.99420                       0.07273                      -0.07926
        </DataArray>
        <DataArray type="Float32" Name="OrientationY" NumberOfComponents="3" format="ascii">
                       0.32801                      -0.44355                       0.83407
                       0.32800                      -0.44364                       0.83403
                       0.32798                      -0.44386                       0.83392
                       0.32795                      -0.44414                       0.83378
                       0.32791                      -0.44455                       0.83358
                       0.29768                      -0.44720                       0.84345
                       0.27567                      -0.44912                       0.84988
                       0.25632                      -0.45080                       0.85503
                       0.23577                      -0.45246                       0.86006
                       0.21452                      -0.45409                       0.86475
                       0.19434                      -0.45560                       0.86871
                       0.17426                      -0.45710                       0.87218
                       0.15602                      -0.45854                       0.87487
                       0.14219                      -0.45976                       0.87659
                       0.12856                      -0.46099                       0.87804
                       0.11714                      -0.46201                       0.87911
                       0.10863                      -0.46274                       0.87981
                       0.10406                      -0.46312                       0.88017
                       0.10405                      -0.46312                       0.88017
        </DataArray>
        <DataArray type="Float32" Name="OrientationZ" NumberOfComponents="3" format="ascii">
                      -0.09469                      -0.89391                      -0.43813
                      -0.09429                      -0.89384                      -0.43837
                      -0.09312                      -0.89364                      -0.43902
                      -0.09152                      -0.89338                      -0.43988
                      -0.08884                      -0.89297                      -0.44127
                      -0.08475                      -0.89239                      -0.44324
                      -0.07965                      -0.89177                      -0.44543
                      -0.07332                      -0.89111                      -0.44783
                      -0.06547                      -0.89039                      -0.45047
                      -0.05582                      -0.88961                      -0.45330
                      -0.04401                      -0.88876                      -0.45626
                      -0.03041                      -0.88780                      -0.45921
                      -0.01553                      -0.88675                      -0.46199
                      -0.00038                      -0.88561                      -0.46443
                       0.01346                      -0.88450                      -0.46635
                       0.02227                      -0.88376                      -0.46742
                       0.02632                      -0.88340                      -0.46788
                       0.02771                      -0.88328                      -0.46803
                       0.02731                      -0.88331                      -0.46800
        </DataArray>
      </PointData>
      <Lines>
        <DataArray type="Int32" Name="connectivity" format="ascii">
      0      1
      1      2
      2      3
      3      4
      4      5
      5      6
      6      7
      7      8
      8      9
      9     10
     10     11
     11     12
     12     13
     13     14
     14     15
     15     16
     16     17
     17     18
        </DataArray>
        <DataArray type="Int32" Name="offsets" format="ascii">
      2
      4
      6
      8
     10
     12
     14
     16
     18
     20
     22
     24
     26
     28
     30
     32
     34
     36
        </DataArray>
      </Lines>
    </Piece>
  </PolyData>
</VTKFile>
