<?xml version="1.0"?>
<VTKFile type="PolyData" version="0.1" byte_order="LittleEndian">
  <PolyData>
    <Piece NumberOfPoints="     19" NumberOfVerts="  0" NumberOfLines="     18"
           NumberOfStrips="  0" NumberOfPolys="      0">
      <Points>
        <DataArray type="Float32" NumberOfComponents="3" format="ascii">
                      -4.93457                       0.00000                      91.49858
                      -4.87577                      -0.00345                      92.86401
                      -4.78055                      -0.10501                      95.59576
                      -4.69592                      -0.25142                      98.32797
                      -4.59646                      -0.46120                     101.74358
                      -4.42426                      -0.56987                     105.83997
                      -4.22802                      -0.54851                     109.93530
                      -4.03406                      -0.52457                     114.03074
                      -3.83998                      -0.49625                     118.12617
                      -3.64662                      -0.46545                     122.22164
                      -3.45530                      -0.43584                     126.31719
                      -3.26529                      -0.40591                     130.41280
                      -3.07725                      -0.37569                     134.50850
                      -2.89188                      -0.34522                     138.60431
                      -2.70745                      -0.31464                     142.70016
                      -2.55439                      -0.28909                     146.11344
                      -2.43250                      -0.26074                     148.84402
                      -2.31192                      -0.17737                     151.57466
                      -2.25231                      -0.17737                     152.93996
        </DataArray>
      </Points>
      <PointData>
        <DataArray type="Float32" Name="RefOrientationX" NumberOfComponents="3" format="ascii">
                       0.97222                      -0.23019                      -0.04245
                       0.97222                      -0.23019                      -0.04245
                       0.97222                      -0.23019                      -0.04245
                       0.97222                      -0.23019                      -0.04245
                       0.97222                      -0.23019                      -0.04245
                       0.97906                      -0.19903                      -0.04275
                       0.98338                      -0.17643                      -0.04294
                       0.98672                      -0.15662                      -0.04308
                       0.98982                      -0.13563                      -0.04322
                       0.99254                      -0.11397                      -0.04334
                       0.99468                      -0.09343                      -0.04343
                       0.99638                      -0.07303                      -0.04350
                       0.99756                      -0.05451                      -0.04355
                       0.99823                      -0.04046                      -0.04358
                       0.99869                      -0.02663                      -0.04360
                       0.99893                      -0.01506                      -0.04361
                       0.99903                      -0.00646                      -0.04362
                       0.99905                      -0.00185                      -0.04362
                       0.99905                      -0.00185                      -0.04362
        </DataArray>
        <DataArray type="Float32" Name="RefOrientationY" NumberOfComponents="3" format="ascii">
                       0.22997                       0.97315                      -0.01004
                       0.22997                       0.97315                      -0.01004
                       0.22997                       0.97315                      -0.01004
                       0.22997                       0.97315                      -0.01004
                       0.22997                       0.97315                      -0.01004
                       0.19884                       0.97999                      -0.00868
                       0.17626                       0.98431                      -0.00770
                       0.15648                       0.98766                      -0.00683
                       0.13550                       0.99076                      -0.00592
                       0.11386                       0.99348                      -0.00497
                       0.09334                       0.99563                      -0.00408
                       0.07296                       0.99733                      -0.00319
                       0.05446                       0.99851                      -0.00238
                       0.04042                       0.99918                      -0.00176
                       0.02661                       0.99965                      -0.00116
                       0.01505                       0.99989                      -0.00066
                       0.00645                       0.99998                      -0.00028
                       0.00185                       1.00000                      -0.00008
                       0.00185                       1.00000                      -0.00008
        </DataArray>
        <DataArray type="Float32" Name="RefOrientationZ" NumberOfComponents="3" format="ascii">
                       0.04362                       0.00000                       0.99905
                       0.04362                       0.00000                       0.99905
                       0.04362                       0.00000                       0.99905
                       0.04362                       0.00000                       0.99905
                       0.04362                       0.00000                       0.99905
                       0.04362                       0.00000                       0.99905
                       0.04362                       0.00000                       0.99905
                       0.04362                       0.00000                       0.99905
                       0.04362                       0.00000                       0.99905
                       0.04362                       0.00000                       0.99905
                       0.04362                       0.00000                       0.99905
                       0.04362                       0.00000                       0.99905
                       0.04362                       0.00000                       0.99905
                       0.04362                       0.00000                       0.99905
                       0.04362                       0.00000                       0.99905
                       0.04362                       0.00000                       0.99905
                       0.04362                       0.00000                       0.99905
                       0.04362                       0.00000                       0.99905
                       0.04362                       0.00000                       0.99905
        </DataArray>
      </PointData>
      <Lines>
        <DataArray type="Int32" Name="connectivity" format="ascii">
      0      1
      1      2
      2      3
      3      4
      4      5
      5      6
      6      7
      7      8
      8      9
      9     10
     10     11
     11     12
     12     13
     13     14
     14     15
     15     16
     16     17
     17     18
        </DataArray>
        <DataArray type="Int32" Name="offsets" format="ascii">
      2
      4
      6
      8
     10
     12
     14
     16
     18
     20
     22
     24
     26
     28
     30
     32
     34
     36
        </DataArray>
      </Lines>
    </Piece>
  </PolyData>
</VTKFile>
