<?xml version="1.0"?>
<VTKFile type="PolyData" version="0.1" byte_order="LittleEndian">
  <PolyData>
    <Piece NumberOfPoints="     19" NumberOfVerts="  0" NumberOfLines="     18"
           NumberOfStrips="  0" NumberOfPolys="      0">
      <Points>
        <DataArray type="Float32" NumberOfComponents="3" format="ascii">
                       2.56587                      -1.91803                      87.46122
                       2.05549                      -4.00035                      84.54732
                       1.55351                      -6.07865                      81.62910
                       1.06335                      -8.15173                      78.70516
                       0.58805                     -10.21887                      75.77458
                       0.13084                     -12.27971                      72.83671
                      -0.30454                     -14.33403                      69.89096
                      -0.71365                     -16.38164                      66.93680
                      -1.09141                     -18.42244                      63.97378
                      -1.43224                     -20.45643                      61.00163
                      -1.73066                     -22.48370                      58.02035
                      -1.98187                     -24.50446                      55.03031
                      -2.18278                     -26.51902                      52.03230
                      -2.33315                     -28.52788                      49.02747
                      -2.43700                     -30.53184                      46.01733
                      -2.50422                     -32.53213                      43.00363
                      -2.55252                     -34.53054                      39.98826
                      -2.57470                     -35.52953                      38.48040
                       2.82268                      -0.87605                      88.91730
        </DataArray>
      </Points>
      <PointData>
        <DataArray type="Float32" Name="TranslationalVelocity" NumberOfComponents="3" format="ascii">
                       0.02219                       2.47892                      -1.70651
                      -0.23467                       5.22764                      -3.62579
                      -0.47549                       7.97539                      -5.54125
                      -0.69458                      10.72237                      -7.45211
                      -0.88739                      13.46867                      -9.35796
                      -1.04824                      16.21458                     -11.25905
                      -1.16862                      18.96096                     -13.15645
                      -1.23639                      21.70927                     -15.05185
                      -1.23563                      24.46130                     -16.94721
                      -1.14739                      27.21896                     -18.84424
                      -0.95111                      29.98419                     -20.74387
                      -0.62693                      32.75871                     -22.64580
                      -0.15881                      35.54398                     -24.54846
                       0.46140                      38.34095                     -26.44939
                       1.22913                      41.14958                     -28.34619
                       2.12129                      43.96799                     -30.23793
                       3.08979                      46.79202                     -32.12674
                       3.58533                      48.20477                     -33.07091
                       0.15377                       1.10428                      -0.74601
        </DataArray>
        <DataArray type="Float32" Name="RotationalVelocity" NumberOfComponents="3" format="ascii">
                       0.92416                       0.00957                      -0.11290
                       0.92329                       0.00687                      -0.11080
                       0.92231                       0.00264                      -0.10760
                       0.92123                      -0.00257                      -0.10368
                       0.92013                      -0.00881                      -0.09902
                       0.91924                      -0.01658                      -0.09329
                       0.91888                      -0.02668                      -0.08599
                       0.91922                      -0.04000                      -0.07652
                       0.92036                      -0.05732                      -0.06430
                       0.92226                      -0.07921                      -0.04897
                       0.92478                      -0.10575                      -0.03040
                       0.92767                      -0.13644                      -0.00893
                       0.93070                      -0.16997                       0.01455
                       0.93360                      -0.20407                       0.03847
                       0.93603                      -0.23536                       0.06045
                       0.93768                      -0.25910                       0.07717
                       0.93835                      -0.26911                       0.08422
                       0.93842                      -0.26982                       0.08471
                       0.92457                       0.01044                      -0.11359
        </DataArray>
        <DataArray type="Float32" Name="TranslationalAcceleration" NumberOfComponents="3" format="ascii">
                       0.81599                       1.45085                       2.46019
                       1.10290                       2.98331                       5.19450
                       1.34073                       4.45092                       7.97269
                       1.50893                       5.83632                      10.80806
                       1.58798                       7.12892                      13.70905
                       1.54688                       8.32217                      16.68365
                       1.33596                       9.41115                      19.74261
                       0.88269                      10.39125                      22.89999
                       0.09117                      11.25792                      26.17167
                      -1.15344                      12.00634                      29.57323
                      -2.97594                      12.63145                      33.11733
                      -5.49757                      13.12850                      36.81098
                      -8.81757                      13.49418                      40.65383
                     -12.99007                      13.72886                      44.63740
                     -17.99647                      13.84155                      48.74406
                     -23.71319                      13.85637                      52.94622
                     -29.87466                      13.81790                      57.20642
                     -33.02328                      13.79232                      59.34574
                       0.66339                       0.67108                       1.10188
        </DataArray>
        <DataArray type="Float32" Name="RotationalAcceleration" NumberOfComponents="3" format="ascii">
                      -0.08315                       0.00031                       0.00674
                      -0.10015                       0.00992                       0.00287
                      -0.12426                       0.02577                      -0.00422
                      -0.15265                       0.04560                      -0.01339
                      -0.18375                       0.07082                      -0.02595
                      -0.21728                       0.10506                      -0.04453
                      -0.25366                       0.15319                      -0.07256
                      -0.29315                       0.22075                      -0.11396
                      -0.33564                       0.31271                      -0.17231
                      -0.38059                       0.43250                      -0.25015
                      -0.42684                       0.58091                      -0.34827
                      -0.47265                       0.75511                      -0.46494
                      -0.51617                       0.94760                      -0.59511
                      -0.55526                       1.14518                      -0.72972
                      -0.58711                       1.32800                      -0.85503
                      -0.60862                       1.46848                      -0.95185
                      -0.61688                       1.53030                      -0.99468
                      -0.61734                       1.53643                      -0.99899
                      -0.07688                      -0.00238                       0.00755
        </DataArray>
        <DataArray type="Float32" Name="OrientationX" NumberOfComponents="3" format="ascii">
                       0.94473                       0.16391                      -0.28392
                       0.94503                       0.16513                      -0.28221
                       0.94549                       0.16703                      -0.27954
                       0.94991                       0.15876                      -0.26919
                       0.95887                       0.13665                      -0.24878
                       0.96395                       0.12573                      -0.23452
                       0.96886                       0.11519                      -0.21919
                       0.97376                       0.10450                      -0.20218
                       0.97843                       0.09436                      -0.18378
                       0.98264                       0.08569                      -0.16453
                       0.98647                       0.07798                      -0.14422
                       0.98976                       0.07162                      -0.12351
                       0.99221                       0.06822                      -0.10423
                       0.99410                       0.06580                      -0.08621
                       0.99562                       0.06229                      -0.06971
                       0.99680                       0.05679                      -0.05630
                       0.99742                       0.05136                      -0.05014
                       0.99758                       0.04889                      -0.04941
                       0.94463                       0.16350                      -0.28449
        </DataArray>
        <DataArray type="Float32" Name="OrientationY" NumberOfComponents="3" format="ascii">
                       0.29550                      -0.80081                       0.52095
                       0.29540                      -0.80121                       0.52038
                       0.29527                      -0.80176                       0.51962
                       0.28250                      -0.80456                       0.52238
                       0.25277                      -0.80981                       0.52944
                       0.23563                      -0.81282                       0.53273
                       0.21819                      -0.81566                       0.53581
                       0.19970                      -0.81839                       0.53884
                       0.18091                      -0.82092                       0.54163
                       0.16286                      -0.82314                       0.54398
                       0.14505                      -0.82515                       0.54598
                       0.12816                      -0.82690                       0.54755
                       0.11457                      -0.82828                       0.54848
                       0.10252                      -0.82944                       0.54910
                       0.09044                      -0.83050                       0.54962
                       0.07843                      -0.83141                       0.55010
                       0.07050                      -0.83191                       0.55042
                       0.06804                      -0.83203                       0.55054
                       0.29554                      -0.80065                       0.52117
        </DataArray>
        <DataArray type="Float32" Name="OrientationZ" NumberOfComponents="3" format="ascii">
                      -0.14198                      -0.57606                      -0.80499
                      -0.14018                      -0.57515                      -0.80595
                      -0.13733                      -0.57383                      -0.80737
                      -0.13365                      -0.57226                      -0.80911
                      -0.12912                      -0.57055                      -0.81105
                      -0.12365                      -0.56878                      -0.81314
                      -0.11706                      -0.56695                      -0.81540
                      -0.10915                      -0.56508                      -0.81779
                      -0.09976                      -0.56320                      -0.82028
                      -0.08881                      -0.56133                      -0.82281
                      -0.07642                      -0.55951                      -0.82529
                      -0.06292                      -0.55777                      -0.82761
                      -0.04891                      -0.55615                      -0.82964
                      -0.03537                      -0.55470                      -0.83130
                      -0.02365                      -0.55352                      -0.83250
                      -0.01557                      -0.55275                      -0.83320
                      -0.01344                      -0.55253                      -0.83338
                      -0.01419                      -0.55257                      -0.83334
                      -0.14257                      -0.57639                      -0.80464
        </DataArray>
      </PointData>
      <Lines>
        <DataArray type="Int32" Name="connectivity" format="ascii">
      0      1
      1      2
      2      3
      3      4
      4      5
      5      6
      6      7
      7      8
      8      9
      9     10
     10     11
     11     12
     12     13
     13     14
     14     15
     15     16
     16     17
     18      0
        </DataArray>
        <DataArray type="Int32" Name="offsets" format="ascii">
      2
      4
      6
      8
     10
     12
     14
     16
     18
     20
     22
     24
     26
     28
     30
     32
     34
     36
        </DataArray>
      </Lines>
    </Piece>
  </PolyData>
</VTKFile>
