<?xml version="1.0"?>
<VTKFile type="PolyData" version="0.1" byte_order="LittleEndian">
  <PolyData>
    <Piece NumberOfPoints="     19" NumberOfVerts="  0" NumberOfLines="     18"
           NumberOfStrips="  0" NumberOfPolys="      0">
      <Points>
        <DataArray type="Float32" NumberOfComponents="3" format="ascii">
                       3.23943                       0.00000                      93.41535
                       3.51693                       0.00000                      97.02234
                       3.79443                       0.00000                     100.62933
                       4.07192                       0.00000                     104.23631
                       4.34942                       0.00000                     107.84330
                       4.62692                       0.00000                     111.45029
                       4.90442                       0.00000                     115.05728
                       5.18192                       0.00000                     118.66427
                       5.45942                       0.00000                     122.27126
                       5.73692                       0.00000                     125.87824
                       6.01441                       0.00000                     129.48523
                       6.29191                       0.00000                     133.09222
                       6.56941                       0.00000                     136.69921
                       6.84691                       0.00000                     140.30620
                       7.12441                       0.00000                     143.91319
                       7.40191                       0.00000                     147.52017
                       7.67941                       0.00000                     151.12716
                       7.81816                       0.00000                     152.93066
                       3.10068                       0.00000                      91.61185
        </DataArray>
      </Points>
      <PointData>
        <DataArray type="Float32" Name="TranslationalVelocity" NumberOfComponents="3" format="ascii">
                       0.00000                      -3.11552                       0.00000
                       0.00000                      -6.52183                       0.00000
                       0.00000                      -9.92814                       0.00000
                       0.00000                     -13.33445                       0.00000
                       0.00000                     -16.74075                       0.00000
                       0.00000                     -20.14706                       0.00000
                       0.00000                     -23.55337                       0.00000
                       0.00000                     -26.95967                       0.00000
                       0.00000                     -30.36598                       0.00000
                       0.00000                     -33.77229                       0.00000
                       0.00000                     -37.17859                       0.00000
                       0.00000                     -40.58490                       0.00000
                       0.00000                     -43.99121                       0.00000
                       0.00000                     -47.39751                       0.00000
                       0.00000                     -50.80382                       0.00000
                       0.00000                     -54.21013                       0.00000
                       0.00000                     -57.61643                       0.00000
                       0.00000                     -59.31959                       0.00000
                       0.00000                      -1.41237                       0.00000
        </DataArray>
        <DataArray type="Float32" Name="RotationalVelocity" NumberOfComponents="3" format="ascii">
                       0.93565                      -0.00000                      -0.11321
                       0.93565                      -0.00000                      -0.11321
                       0.93565                      -0.00000                      -0.11321
                       0.93565                      -0.00000                      -0.11321
                       0.93565                      -0.00000                      -0.11321
                       0.93565                      -0.00000                      -0.11321
                       0.93565                      -0.00000                      -0.11321
                       0.93565                      -0.00000                      -0.11321
                       0.93565                      -0.00000                      -0.11321
                       0.93565                      -0.00000                      -0.11321
                       0.93565                      -0.00000                      -0.11321
                       0.93565                      -0.00000                      -0.11321
                       0.93565                      -0.00000                      -0.11321
                       0.93565                      -0.00000                      -0.11321
                       0.93565                      -0.00000                      -0.11321
                       0.93565                      -0.00000                      -0.11321
                       0.93565                      -0.00000                      -0.11321
                       0.93565                      -0.00000                      -0.11321
                       0.93565                      -0.00000                      -0.11321
        </DataArray>
        <DataArray type="Float32" Name="TranslationalAcceleration" NumberOfComponents="3" format="ascii">
                      -0.36903                      -0.08589                      -3.19283
                      -0.83804                      -0.22991                      -6.37354
                      -1.09780                      -0.37643                      -9.57035
                      -1.06733                      -0.53186                     -12.78948
                      -0.67929                      -0.69939                     -16.03613
                       0.12531                      -0.87894                     -19.31482
                       1.40046                      -1.07071                     -22.62971
                       3.19656                      -1.27535                     -25.98468
                       5.56004                      -1.49207                     -29.38330
                       8.53090                      -1.71840                     -32.82865
                      12.13835                      -1.95023                     -36.32298
                      16.39447                      -2.18196                     -39.86721
                      21.28600                      -2.40748                     -43.46032
                      26.76419                      -2.62161                     -47.09857
                      32.73280                      -2.82098                     -50.77455
                      39.03414                      -3.00518                     -54.47612
                      45.43334                      -3.17910                     -58.18523
                      48.62270                      -3.26451                     -60.03899
                      -0.09341                      -0.01365                      -1.60564
        </DataArray>
        <DataArray type="Float32" Name="RotationalAcceleration" NumberOfComponents="3" format="ascii">
                       0.03890                      -0.04591                      -0.01502
                       0.03864                      -0.00030                      -0.01500
                       0.04029                       0.07010                      -0.01513
                       0.04354                       0.16063                      -0.01538
                       0.04696                       0.26836                      -0.01564
                       0.05017                       0.39160                      -0.01589
                       0.05370                       0.52927                      -0.01616
                       0.05726                       0.68046                      -0.01644
                       0.06036                       0.84387                      -0.01668
                       0.06256                       1.01724                      -0.01684
                       0.06339                       1.19684                      -0.01691
                       0.06250                       1.37692                      -0.01684
                       0.05997                       1.54917                      -0.01664
                       0.05622                       1.70221                      -0.01636
                       0.05183                       1.82109                      -0.01602
                       0.04786                       1.88671                      -0.01571
                       0.04616                       1.87535                      -0.01558
                       0.04616                       1.84715                      -0.01558
                       0.03947                      -0.06181                      -0.01507
        </DataArray>
        <DataArray type="Float32" Name="OrientationX" NumberOfComponents="3" format="ascii">
                       0.97028                      -0.23019                      -0.07465
                       0.97028                      -0.23019                      -0.07465
                       0.97028                      -0.23019                      -0.07465
                       0.97325                      -0.21721                      -0.07488
                       0.97949                      -0.18686                      -0.07536
                       0.98263                      -0.16947                      -0.07560
                       0.98550                      -0.15180                      -0.07582
                       0.98819                      -0.13307                      -0.07602
                       0.99055                      -0.11405                      -0.07621
                       0.99247                      -0.09581                      -0.07635
                       0.99403                      -0.07780                      -0.07647
                       0.99521                      -0.06073                      -0.07657
                       0.99595                      -0.04698                      -0.07662
                       0.99645                      -0.03478                      -0.07666
                       0.99680                      -0.02255                      -0.07669
                       0.99700                      -0.01043                      -0.07670
                       0.99705                      -0.00246                      -0.07671
                       0.99705                       0.00000                      -0.07671
                       0.97028                      -0.23019                      -0.07465
        </DataArray>
        <DataArray type="Float32" Name="OrientationY" NumberOfComponents="3" format="ascii">
                       0.22951                       0.97315                      -0.01766
                       0.22951                       0.97315                      -0.01766
                       0.22951                       0.97315                      -0.01766
                       0.21657                       0.97612                      -0.01666
                       0.18631                       0.98239                      -0.01433
                       0.16897                       0.98554                      -0.01300
                       0.15136                       0.98841                      -0.01164
                       0.13268                       0.99111                      -0.01021
                       0.11372                       0.99347                      -0.00875
                       0.09553                       0.99540                      -0.00735
                       0.07758                       0.99697                      -0.00597
                       0.06055                       0.99815                      -0.00466
                       0.04684                       0.99890                      -0.00360
                       0.03467                       0.99940                      -0.00267
                       0.02249                       0.99975                      -0.00173
                       0.01040                       0.99995                      -0.00080
                       0.00245                       1.00000                      -0.00019
                      -0.00000                       1.00000                      -0.00000
                       0.22951                       0.97315                      -0.01766
        </DataArray>
        <DataArray type="Float32" Name="OrientationZ" NumberOfComponents="3" format="ascii">
                       0.07671                       0.00000                       0.99705
                       0.07671                       0.00000                       0.99705
                       0.07671                       0.00000                       0.99705
                       0.07671                       0.00000                       0.99705
                       0.07671                       0.00000                       0.99705
                       0.07671                       0.00000                       0.99705
                       0.07671                       0.00000                       0.99705
                       0.07671                       0.00000                       0.99705
                       0.07671                       0.00000                       0.99705
                       0.07671                       0.00000                       0.99705
                       0.07671                       0.00000                       0.99705
                       0.07671                       0.00000                       0.99705
                       0.07671                       0.00000                       0.99705
                       0.07671                       0.00000                       0.99705
                       0.07671                       0.00000                       0.99705
                       0.07671                       0.00000                       0.99705
                       0.07671                       0.00000                       0.99705
                       0.07671                       0.00000                       0.99705
                       0.07671                       0.00000                       0.99705
        </DataArray>
      </PointData>
      <Lines>
        <DataArray type="Int32" Name="connectivity" format="ascii">
      0      1
      1      2
      2      3
      3      4
      4      5
      5      6
      6      7
      7      8
      8      9
      9     10
     10     11
     11     12
     12     13
     13     14
     14     15
     15     16
     16     17
     18      0
        </DataArray>
        <DataArray type="Int32" Name="offsets" format="ascii">
      2
      4
      6
      8
     10
     12
     14
     16
     18
     20
     22
     24
     26
     28
     30
     32
     34
     36
        </DataArray>
      </Lines>
    </Piece>
  </PolyData>
</VTKFile>
