<?xml version="1.0"?>
<VTKFile type="PolyData" version="0.1" byte_order="LittleEndian">
  <PolyData>
    <Piece NumberOfPoints="     19" NumberOfVerts="  0" NumberOfLines="     18"
           NumberOfStrips="  0" NumberOfPolys="      0">
      <Points>
        <DataArray type="Float32" NumberOfComponents="3" format="ascii">
                       2.23161                      -2.52037                      87.97400
                       1.80901                      -5.23497                      85.62036
                       1.39386                      -7.94731                      83.26277
                       0.98916                     -10.65668                      80.89996
                       0.59754                     -13.36267                      78.53108
                       0.22186                     -16.06506                      76.15554
                      -0.13450                     -18.76370                      73.77277
                      -0.46744                     -21.45842                      71.38220
                      -0.77211                     -24.14908                      68.98332
                      -1.04320                     -26.83557                      66.57576
                      -1.27534                     -29.51778                      64.15939
                      -1.46379                     -32.19566                      61.73445
                      -1.60532                     -34.86922                      59.30156
                      -1.69938                     -37.53857                      56.86172
                      -1.74940                     -40.20409                      54.41633
                      -1.76436                     -42.86659                      51.96712
                      -1.76064                     -45.52750                      49.51606
                      -1.75666                     -46.85776                      48.29033
                       2.44436                      -1.16260                      89.15004
        </DataArray>
      </Points>
      <PointData>
        <DataArray type="Float32" Name="TranslationalVelocity" NumberOfComponents="3" format="ascii">
                      -0.30533                       2.01636                      -2.29961
                      -0.58812                       4.24722                      -4.82183
                      -0.86914                       6.48334                      -7.34494
                      -1.14750                       8.72626                      -9.86914
                      -1.42232                      10.97687                     -12.39459
                      -1.69310                      13.23562                     -14.92129
                      -1.95993                      15.50265                     -17.44893
                      -2.22368                      17.77794                     -19.97696
                      -2.48602                      20.06120                     -22.50461
                      -2.74932                      22.35188                     -25.03104
                      -3.01655                      24.64914                     -27.55539
                      -3.29098                      26.95179                     -30.07695
                      -3.57582                      29.25840                     -32.59523
                      -3.87376                      31.56739                     -35.11000
                      -4.18638                      33.87726                     -37.62144
                      -4.51346                      36.18687                     -40.13020
                      -4.85223                      38.49589                     -42.63736
                      -5.02400                      39.65026                     -43.89071
                      -0.16360                       0.90201                      -1.03870
        </DataArray>
        <DataArray type="Float32" Name="RotationalVelocity" NumberOfComponents="3" format="ascii">
                       0.92846                      -0.00132                      -0.10553
                       0.92934                      -0.00161                      -0.10536
                       0.93057                      -0.00207                      -0.10506
                       0.93204                      -0.00271                      -0.10458
                       0.93363                      -0.00349                      -0.10397
                       0.93525                      -0.00432                      -0.10330
                       0.93679                      -0.00505                      -0.10273
                       0.93818                      -0.00554                      -0.10243
                       0.93937                      -0.00563                      -0.10254
                       0.94034                      -0.00521                      -0.10321
                       0.94108                      -0.00418                      -0.10453
                       0.94161                      -0.00254                      -0.10652
                       0.94196                      -0.00032                      -0.10914
                       0.94215                       0.00230                      -0.11221
                       0.94221                       0.00508                      -0.11543
                       0.94217                       0.00761                      -0.11834
                       0.94205                       0.00934                      -0.12033
                       0.94197                       0.00994                      -0.12100
                       0.92811                      -0.00121                      -0.10560
        </DataArray>
        <DataArray type="Float32" Name="TranslationalAcceleration" NumberOfComponents="3" format="ascii">
                       1.25588                       2.18226                       2.06888
                       1.38951                       4.59280                       4.11600
                       1.54726                       6.99024                       6.18470
                       1.73729                       9.37167                       8.27998
                       1.96550                      11.73532                      10.40480
                       2.23552                      14.08014                      12.56073
                       2.54907                      16.40559                      14.74832
                       2.90599                      18.71157                      16.96738
                       3.30422                      20.99825                      19.21733
                       3.73992                      23.26610                      21.49719
                       4.20764                      25.51599                      23.80562
                       4.70055                      27.74924                      26.14076
                       5.21072                      29.96764                      28.50006
                       5.72953                      32.17340                      30.88020
                       6.24806                      34.36909                      33.27707
                       6.75772                      36.55764                      35.68584
                       7.25084                      38.74227                      38.10112
                       7.49239                      39.83401                      39.30969
                       1.19395                       0.97419                       1.04995
        </DataArray>
        <DataArray type="Float32" Name="RotationalAcceleration" NumberOfComponents="3" format="ascii">
                       0.01916                       0.04946                       0.00063
                       0.01397                       0.04646                       0.00504
                       0.00711                       0.04198                       0.01146
                      -0.00072                       0.03632                       0.01943
                      -0.00915                       0.02987                       0.02841
                      -0.01787                       0.02299                       0.03795
                      -0.02659                       0.01596                       0.04765
                      -0.03518                       0.00913                       0.05710
                      -0.04356                       0.00282                       0.06592
                      -0.05168                      -0.00266                       0.07373
                      -0.05948                      -0.00706                       0.08022
                      -0.06687                      -0.01015                       0.08514
                      -0.07371                      -0.01180                       0.08829
                      -0.07979                      -0.01194                       0.08956
                      -0.08483                      -0.01060                       0.08892
                      -0.08842                      -0.00792                       0.08648
                      -0.09004                      -0.00418                       0.08246
                      -0.09028                      -0.00209                       0.08009
                       0.02124                       0.05056                      -0.00102
        </DataArray>
        <DataArray type="Float32" Name="OrientationX" NumberOfComponents="3" format="ascii">
                       0.94322                       0.12037                      -0.30960
                       0.94343                       0.12175                      -0.30841
                       0.94376                       0.12391                      -0.30653
                       0.94822                       0.11798                      -0.29489
                       0.95747                       0.10098                      -0.27029
                       0.96260                       0.09327                      -0.25436
                       0.96756                       0.08613                      -0.23752
                       0.97249                       0.07918                      -0.21906
                       0.97719                       0.07306                      -0.19941
                       0.98140                       0.06854                      -0.17930
                       0.98522                       0.06521                      -0.15840
                       0.98849                       0.06329                      -0.13740
                       0.99090                       0.06395                      -0.11844
                       0.99275                       0.06537                      -0.10084
                       0.99428                       0.06551                      -0.08432
                       0.99553                       0.06320                      -0.07014
                       0.99625                       0.05952                      -0.06276
                       0.99646                       0.05745                      -0.06133
                       0.94314                       0.11991                      -0.31000
        </DataArray>
        <DataArray type="Float32" Name="OrientationY" NumberOfComponents="3" format="ascii">
                       0.31066                      -0.64966                       0.69385
                       0.31061                      -0.64999                       0.69356
                       0.31054                      -0.65044                       0.69317
                       0.29787                      -0.65258                       0.69672
                       0.26826                      -0.65653                       0.70499
                       0.25121                      -0.65882                       0.70912
                       0.23387                      -0.66099                       0.71302
                       0.21546                      -0.66310                       0.71685
                       0.19673                      -0.66507                       0.72040
                       0.17875                      -0.66685                       0.72344
                       0.16098                      -0.66850                       0.72608
                       0.14412                      -0.66999                       0.72824
                       0.13053                      -0.67122                       0.72967
                       0.11849                      -0.67231                       0.73073
                       0.10642                      -0.67334                       0.73164
                       0.09441                      -0.67428                       0.73242
                       0.08648                      -0.67483                       0.73289
                       0.08403                      -0.67497                       0.73304
                       0.31068                      -0.64953                       0.69397
        </DataArray>
        <DataArray type="Float32" Name="OrientationZ" NumberOfComponents="3" format="ascii">
                      -0.11761                      -0.75063                      -0.65016
                      -0.11602                      -0.75012                      -0.65104
                      -0.11349                      -0.74938                      -0.65234
                      -0.11024                      -0.74848                      -0.65393
                      -0.10626                      -0.74751                      -0.65569
                      -0.10144                      -0.74650                      -0.65761
                      -0.09559                      -0.74544                      -0.65969
                      -0.08850                      -0.74433                      -0.66192
                      -0.07999                      -0.74320                      -0.66427
                      -0.06998                      -0.74203                      -0.66670
                      -0.05854                      -0.74085                      -0.66912
                      -0.04597                      -0.73966                      -0.67141
                      -0.03283                      -0.73849                      -0.67346
                      -0.02003                      -0.73738                      -0.67518
                      -0.00885                      -0.73643                      -0.67646
                      -0.00101                      -0.73577                      -0.67723
                       0.00127                      -0.73557                      -0.67745
                       0.00071                      -0.73561                      -0.67741
                      -0.11814                      -0.75082                      -0.64985
        </DataArray>
      </PointData>
      <Lines>
        <DataArray type="Int32" Name="connectivity" format="ascii">
      0      1
      1      2
      2      3
      3      4
      4      5
      5      6
      6      7
      7      8
      8      9
      9     10
     10     11
     11     12
     12     13
     13     14
     14     15
     15     16
     16     17
     18      0
        </DataArray>
        <DataArray type="Int32" Name="offsets" format="ascii">
      2
      4
      6
      8
     10
     12
     14
     16
     18
     20
     22
     24
     26
     28
     30
     32
     34
     36
        </DataArray>
      </Lines>
    </Piece>
  </PolyData>
</VTKFile>
