<?xml version="1.0"?>
<VTKFile type="PolyData" version="0.1" byte_order="LittleEndian">
  <PolyData>
    <Piece NumberOfPoints="     17" NumberOfVerts="  0" NumberOfLines="      0"
           NumberOfStrips="  0" NumberOfPolys="      0">
      <Points>
        <DataArray type="Float32" NumberOfComponents="3" format="ascii">
                       2.91587                       0.17249                      93.42160
                       3.17950                       0.39195                      97.02295
                       3.45170                       0.61135                     100.62366
                       3.73571                       0.83044                     104.22348
                       4.03420                       1.04913                     107.82214
                       4.35008                       1.26733                     111.41935
                       4.68698                       1.48480                     115.01468
                       5.04953                       1.70115                     118.60758
                       5.44334                       1.91601                     122.19726
                       5.87473                       2.12907                     125.78272
                       6.35020                       2.34019                     129.36269
                       6.87560                       2.54945                     132.93577
                       7.45509                       2.75714                     136.50058
                       8.08981                       2.96363                     140.05607
                       8.77627                       3.16940                     143.60203
                       9.50460                       3.37491                     147.13973
                      10.25639                       3.58042                     150.67259
        </DataArray>
      </Points>
      <PointData>
        <DataArray type="Float32" Name="Force" NumberOfComponents="3" format="ascii">
                     190.32639                      78.81533                     -18.59573
                     629.20612                     242.20678                     -62.23905
                    2429.54386                    -861.23694                    -138.74483
                    4266.45593                   -1696.55936                    -246.81309
                    2616.60396                    -958.01305                    -165.83136
                    5595.70886                   -1786.76227                    -396.02697
                    6698.72055                   -1837.75153                    -537.22572
                    7451.45700                   -1778.30820                    -676.93079
                    7992.68299                   -1689.79845                    -819.92082
                   10048.18744                   -1901.40833                   -1164.36470
                   11586.94842                   -1993.23398                   -1519.77863
                   13221.42879                   -2131.30371                   -1952.53821
                    7601.51617                   -1172.81012                   -1220.98479
                   15219.76878                   -2245.93724                   -2642.80446
                   14729.15702                   -2056.78169                   -2770.11388
                   20967.74589                   -2683.70911                   -4194.81089
                    8424.83120                    -884.51705                   -1735.55574
        </DataArray>
        <DataArray type="Float32" Name="Moment" NumberOfComponents="3" format="ascii">
                     -19.88870                      22.51945                       4.96424
                     157.05443                     434.00289                      30.03537
                    1068.81161                    2539.52380                     184.94730
                    1434.97320                    3529.04356                     819.53470
                     119.56965                     311.44656                     599.17669
                    -906.28115                   -2654.75455                    1128.36340
                    -574.24837                   -1774.39142                     595.49080
                    -186.89031                    -132.26128                    -172.47495
                      -6.86610                     745.98344                    -421.67688
                     182.01428                    1808.03260                    -346.96127
                     656.74884                    4660.14820                    -431.05605
                    1271.23461                    8483.12120                    -260.29672
                     -24.59511                    -473.74683                     387.53579
                   -1303.47381                  -10273.93181                    1577.83037
                   -1109.13066                   -9582.95628                    1524.41618
                    -134.91893                   -1378.35683                    1066.26128
                    -131.89140                      15.78811                     109.05588
        </DataArray>
      </PointData>
    </Piece>
  </PolyData>
</VTKFile>
