<?xml version="1.0"?>
<VTKFile type="PolyData" version="0.1" byte_order="LittleEndian">
  <PolyData>
    <Piece NumberOfPoints="     19" NumberOfVerts="  0" NumberOfLines="     18"
           NumberOfStrips="  0" NumberOfPolys="      0">
      <Points>
        <DataArray type="Float32" NumberOfComponents="3" format="ascii">
                       3.20966                       1.11285                      91.11767
                       3.26140                       2.15774                      91.99711
                       3.35281                       4.18633                      93.82976
                       3.44159                       6.18705                      95.69625
                       3.55620                       8.67278                      98.04822
                       3.74516                      11.75203                     100.75237
                       3.96262                      14.91853                     103.34965
                       4.19854                      18.08988                     105.93933
                       4.46028                      21.26690                     108.51946
                       4.75370                      24.44782                     111.09121
                       5.08072                      27.62955                     113.65767
                       5.45316                      30.81263                     116.21608
                       5.87713                      33.99642                     118.76538
                       6.35592                      37.18028                     121.30472
                       6.89027                      40.36350                     123.83360
                       7.37143                      43.01553                     125.93389
                       7.77353                      45.14170                     127.60427
                       8.17457                      47.30270                     129.23142
                       8.37876                      48.35674                     130.07697
        </DataArray>
      </Points>
      <PointData>
        <DataArray type="Float32" Name="Force" NumberOfComponents="3" format="ascii">
                      -0.03433                       0.22727                      -0.26928
                      74.07392                      13.31135                     -20.30470
                      86.48014                      33.72960                     -45.58933
                      73.12213                      44.78898                     -58.17440
                     733.66967                    -157.88190                     138.78850
                    1000.53934                    -212.18092                     179.63877
                    1134.69633                    -193.93949                     139.75440
                    1438.98287                    -208.78205                     120.12306
                    1569.13427                    -194.66993                      74.40475
                    1810.27585                    -203.68153                      36.47697
                    2228.78431                    -233.37917                     -12.88698
                    2553.04076                    -260.49036                     -72.23235
                    2964.46400                    -314.35831                    -132.73346
                    3225.69385                    -350.43712                    -205.27684
                    3429.93099                    -378.36027                    -281.47510
                    3505.96595                    -379.36798                    -343.32245
                    3353.03495                    -343.50683                    -373.18445
                    2378.47807                    -224.86990                    -293.64651
                    1203.83247                     -53.43530                    -221.91111
        </DataArray>
        <DataArray type="Float32" Name="Moment" NumberOfComponents="3" format="ascii">
                       0.00000                       0.00000                       0.00000
                       0.00000                       0.00000                       0.00000
                       0.00000                       0.00000                       0.00000
                       0.00000                       0.00000                       0.00000
                      -9.97367                    -175.25526                    -146.64221
                     -18.72689                    -302.27605                    -252.73062
                     -28.63679                    -420.90573                    -351.58956
                     -44.10383                    -584.63344                    -487.80238
                     -66.50671                    -786.56798                    -655.37722
                     -84.40752                    -881.50665                    -733.22257
                    -100.75864                    -920.08029                    -763.69398
                    -121.07888                    -965.09755                    -799.09777
                    -123.83641                    -865.89534                    -715.02064
                    -138.30029                    -858.78010                    -707.17168
                    -147.13645                    -827.94085                    -680.01729
                    -147.60911                    -783.06721                    -642.08416
                    -134.13006                    -692.70147                    -567.53465
                     -68.45081                    -349.84021                    -286.53576
                     -60.64797                    -310.41776                    -254.25828
        </DataArray>
        <DataArray type="Float32" Name="TranslationalVelocity" NumberOfComponents="3" format="ascii">
                      -0.18355                      -0.89127                       1.04208
                      -0.06808                      -1.70026                       1.99648
                       0.15537                      -3.38405                       3.84918
                       0.37607                      -5.09802                       5.67598
                       0.65158                      -7.25736                       7.94494
                       0.99668                      -9.74560                      10.75466
                       1.35611                     -12.13847                      13.64241
                       1.72152                     -14.52550                      16.53283
                       2.09689                     -16.90615                      19.42660
                       2.48785                     -19.28268                      22.32187
                       2.89868                     -21.65874                      25.21551
                       3.33948                     -24.03398                      28.10682
                       3.81836                     -26.40909                      30.99368
                       4.34162                     -28.78464                      33.87378
                       4.91158                     -31.16117                      36.74506
                       5.41884                     -33.14243                      39.13088
                       5.84316                     -34.72227                      41.03992
                       6.28000                     -36.26324                      42.97904
                       6.49604                     -37.06333                      43.92436
        </DataArray>
        <DataArray type="Float32" Name="RotationalVelocity" NumberOfComponents="3" format="ascii">
                       0.91313                      -0.00714                      -0.11644
                       0.91304                      -0.00710                      -0.11648
                       0.91285                      -0.00695                      -0.11665
                       0.91261                      -0.00674                      -0.11688
                       0.91226                      -0.00641                      -0.11726
                       0.91177                      -0.00593                      -0.11781
                       0.91126                      -0.00525                      -0.11858
                       0.91076                      -0.00416                      -0.11985
                       0.91030                      -0.00237                      -0.12196
                       0.90986                       0.00040                      -0.12525
                       0.90937                       0.00451                      -0.13012
                       0.90877                       0.00988                      -0.13650
                       0.90801                       0.01636                      -0.14419
                       0.90710                       0.02352                      -0.15269
                       0.90611                       0.03063                      -0.16112
                       0.90536                       0.03565                      -0.16706
                       0.90493                       0.03841                      -0.17033
                       0.90468                       0.04002                      -0.17224
                       0.90463                       0.04033                      -0.17260
        </DataArray>
        <DataArray type="Float32" Name="TranslationalAcceleration" NumberOfComponents="3" format="ascii">
                      -1.57479                      -0.71061                      -1.06010
                      -1.74126                      -1.61101                      -1.77560
                      -2.08061                      -3.37099                      -3.25919
                      -2.40807                      -5.13965                      -4.74045
                      -2.78424                      -7.39664                      -6.55370
                      -3.14813                     -10.27094                      -8.53531
                      -3.39568                     -13.31258                     -10.30325
                      -3.52750                     -16.46089                     -11.94445
                      -3.54054                     -19.71447                     -13.46215
                      -3.44479                     -23.06740                     -14.86660
                      -3.26955                     -26.50231                     -16.18068
                      -3.03467                     -30.02190                     -17.40332
                      -2.77889                     -33.61612                     -18.54446
                      -2.54451                     -37.27270                     -19.61294
                      -2.37178                     -40.97682                     -20.61750
                      -2.29492                     -44.08709                     -21.41388
                      -2.28543                     -46.58580                     -22.02105
                      -2.31616                     -49.09693                     -22.56603
                      -2.34868                     -50.34280                     -22.87398
        </DataArray>
        <DataArray type="Float32" Name="OrientationX" NumberOfComponents="3" format="ascii">
                       0.99018                      -0.11520                       0.07918
                       0.99017                      -0.11548                       0.07895
                       0.99013                      -0.11628                       0.07828
                       0.99007                      -0.11738                       0.07736
                       0.98997                      -0.11920                       0.07585
                       0.99359                      -0.10182                       0.04910
                       0.99547                      -0.09066                       0.02859
                       0.99657                      -0.08215                       0.00962
                       0.99720                      -0.07397                      -0.01113
                       0.99721                      -0.06669                      -0.03341
                       0.99652                      -0.06171                      -0.05605
                       0.99513                      -0.05816                      -0.07963
                       0.99311                      -0.05681                      -0.10248
                       0.99079                      -0.05859                      -0.12205
                       0.98824                      -0.05970                      -0.14074
                       0.98619                      -0.05876                      -0.15482
                       0.98487                      -0.05635                      -0.16389
                       0.98421                      -0.05463                      -0.16839
                       0.98424                      -0.05446                      -0.16825
        </DataArray>
        <DataArray type="Float32" Name="OrientationY" NumberOfComponents="3" format="ascii">
                       0.13458                       0.63240                      -0.76286
                       0.13457                       0.63218                      -0.76305
                       0.13454                       0.63162                      -0.76352
                       0.13451                       0.63093                      -0.76409
                       0.13445                       0.62988                      -0.76497
                       0.10272                       0.63198                      -0.76815
                       0.07974                       0.63269                      -0.77029
                       0.05962                       0.63290                      -0.77193
                       0.03834                       0.63309                      -0.77313
                       0.01642                       0.63322                      -0.77379
                      -0.00432                       0.63325                      -0.77393
                      -0.02488                       0.63330                      -0.77351
                      -0.04350                       0.63332                      -0.77267
                      -0.05763                       0.63325                      -0.77180
                      -0.07148                       0.63337                      -0.77054
                      -0.08299                       0.63365                      -0.76915
                      -0.09152                       0.63397                      -0.76792
                      -0.09607                       0.63416                      -0.76721
                      -0.09607                       0.63416                      -0.76721
        </DataArray>
        <DataArray type="Float32" Name="OrientationZ" NumberOfComponents="3" format="ascii">
                       0.03781                       0.76603                       0.64170
                       0.03821                       0.76617                       0.64150
                       0.03934                       0.76651                       0.64102
                       0.04088                       0.76691                       0.64045
                       0.04341                       0.76749                       0.63959
                       0.04718                       0.76827                       0.63839
                       0.05174                       0.76908                       0.63705
                       0.05732                       0.76986                       0.63563
                       0.06423                       0.77054                       0.63415
                       0.07276                       0.77109                       0.63256
                       0.08325                       0.77148                       0.63078
                       0.09542                       0.77172                       0.62876
                       0.10880                       0.77180                       0.62649
                       0.12251                       0.77173                       0.62404
                       0.13515                       0.77154                       0.62165
                       0.14330                       0.77138                       0.62003
                       0.14717                       0.77130                       0.61922
                       0.14870                       0.77127                       0.61889
                       0.14848                       0.77128                       0.61893
        </DataArray>
      </PointData>
      <Lines>
        <DataArray type="Int32" Name="connectivity" format="ascii">
      0      1
      1      2
      2      3
      3      4
      4      5
      5      6
      6      7
      7      8
      8      9
      9     10
     10     11
     11     12
     12     13
     13     14
     14     15
     15     16
     16     17
     17     18
        </DataArray>
        <DataArray type="Int32" Name="offsets" format="ascii">
      2
      4
      6
      8
     10
     12
     14
     16
     18
     20
     22
     24
     26
     28
     30
     32
     34
     36
        </DataArray>
      </Lines>
    </Piece>
  </PolyData>
</VTKFile>
