<?xml version="1.0"?>
<VTKFile type="PolyData" version="0.1" byte_order="LittleEndian">
  <PolyData>
    <Piece NumberOfPoints="     17" NumberOfVerts="  0" NumberOfLines="      0"
           NumberOfStrips="  0" NumberOfPolys="      0">
      <Points>
        <DataArray type="Float32" NumberOfComponents="3" format="ascii">
                       2.49010                       1.48581                      87.24730
                       1.94425                       3.13758                      84.07539
                       1.40635                       4.78879                      80.90182
                       0.87939                       6.43946                      77.72614
                       0.36584                       8.08960                      74.54799
                      -0.13174                       9.73921                      71.36704
                      -0.61029                      11.38844                      68.18297
                      -1.06606                      13.03754                      64.99550
                      -1.49454                      14.68676                      61.80432
                      -1.89076                      16.33622                      58.60911
                      -2.24966                      17.98590                      55.40962
                      -2.56675                      19.63554                      52.20570
                      -2.83895                      21.28469                      48.99740
                      -3.06569                      22.93289                      45.78507
                      -3.25017                      24.57974                      42.56929
                      -3.40087                      26.22514                      39.35097
                      -3.53327                      27.86958                      36.13130
        </DataArray>
      </Points>
      <PointData>
        <DataArray type="Float32" Name="Force" NumberOfComponents="3" format="ascii">
                     149.77025                     -42.17529                     -47.86500
                     525.66450                    -145.97979                    -165.21407
                    2047.91335                     690.65668                      19.21910
                    3358.64046                    1118.07666                      35.75956
                    2049.03562                     606.86074                      -9.33738
                    4494.47229                    1183.04498                     -76.41094
                    5490.39436                    1255.86687                    -154.67786
                    6140.47333                    1204.41682                    -225.47056
                    6594.36721                    1119.74469                    -267.84200
                    8305.21077                    1209.96649                    -347.24980
                    9534.05199                    1181.78757                    -379.85900
                   10863.33165                    1161.83555                    -370.86852
                    6233.15162                     588.04197                    -183.26804
                   12453.56502                    1014.16244                    -309.47732
                   12049.28239                     804.73758                    -243.23083
                   17165.18257                     875.26991                    -320.65702
                    7005.64842                     220.26086                    -175.69740
        </DataArray>
        <DataArray type="Float32" Name="Moment" NumberOfComponents="3" format="ascii">
                     -17.90768                     -16.62097                     -10.22882
                      95.66259                    -311.82180                    -227.47972
                     714.71342                   -1764.99080                   -1182.63457
                     663.74773                   -2168.09390                   -1604.28458
                      18.61292                    -129.71765                    -251.12432
                    -577.19979                    1936.74401                     902.37930
                    -343.51971                    1187.88016                     873.21433
                     -17.18494                    -292.25666                     765.64163
                      97.61400                    -988.95271                     508.93308
                     151.17189                   -1691.46499                       4.37328
                     336.06221                   -3678.93283                   -1169.28560
                     512.40715                   -6218.17130                   -3007.04912
                     -40.93421                     350.69762                     195.43348
                    -569.40700                    7417.25513                    3839.95207
                    -443.86752                    6909.49667                    3519.37184
                    -177.84151                    1039.56428                     482.60116
                    -100.23451                    -190.90298                      52.38706
        </DataArray>
      </PointData>
    </Piece>
  </PolyData>
</VTKFile>
