<?xml version="1.0"?>
<VTKFile type="PolyData" version="0.1" byte_order="LittleEndian">
  <PolyData>
    <Piece NumberOfPoints="     19" NumberOfVerts="  0" NumberOfLines="     18"
           NumberOfStrips="  0" NumberOfPolys="      0">
      <Points>
        <DataArray type="Float32" NumberOfComponents="3" format="ascii">
                       2.87687                      -1.52019                      90.12126
                       2.81358                      -2.88520                      90.09607
                       2.65440                      -5.61211                      89.95367
                       2.48319                      -8.33759                      89.76530
                       2.26785                     -11.74360                      89.49859
                       2.09396                     -15.83623                      89.30490
                       1.98026                     -19.93336                      89.22572
                       1.89030                     -24.03091                      89.13674
                       1.83304                     -28.12890                      89.03833
                       1.81509                     -32.22699                      88.92771
                       1.83780                     -36.32469                      88.80219
                       1.91490                     -40.42129                      88.66118
                       2.05307                     -44.51580                      88.50490
                       2.25552                     -48.60715                      88.33430
                       2.52196                     -52.69439                      88.15092
                       2.78468                     -56.09732                      87.99065
                       3.01566                     -58.81825                      87.86689
                       3.25720                     -61.54132                      87.79694
                       3.37226                     -62.90099                      87.72070
        </DataArray>
      </Points>
      <PointData>
        <DataArray type="Float32" Name="Force" NumberOfComponents="3" format="ascii">
                       0.81149                      -0.14115                       6.62597
                      90.71831                      -4.54844                      27.14932
                     116.15104                      -6.15900                      65.25750
                     105.23825                      -5.81631                      84.91367
                     781.18397                     -23.43925                    -434.47805
                    1005.24206                     -26.26533                    -492.32850
                    1172.66091                     -24.72790                    -500.73747
                    1514.06811                     -21.81938                    -579.08366
                    1658.69814                     -10.12016                    -563.61586
                    1921.71695                       8.34485                    -597.07237
                    2375.87887                      40.47149                    -674.22802
                    2723.35280                      86.19169                    -716.36466
                    3171.10039                     151.30484                    -799.87049
                    3457.91093                     220.70858                    -824.42486
                    3699.05998                     290.03851                    -834.01784
                    3825.72120                     334.62689                    -817.31127
                    3726.08907                     340.43747                    -755.50164
                    2720.70370                     251.67225                    -533.26985
                    1254.50369                     111.86960                    -135.39416
        </DataArray>
        <DataArray type="Float32" Name="Moment" NumberOfComponents="3" format="ascii">
                       0.00000                       0.00000                       0.00000
                       0.00000                       0.00000                       0.00000
                       0.00000                       0.00000                       0.00000
                       0.00000                       0.00000                       0.00000
                      10.23792                     261.28124                       4.31199
                      17.65721                     511.91602                       8.74238
                      18.65280                     650.30465                      11.56841
                      19.17733                     889.93705                      16.60884
                      15.25033                    1190.81491                      23.49910
                       2.88718                    1316.74362                      27.69576
                     -14.65780                    1380.19229                      31.19609
                     -36.52492                    1447.51615                      35.30830
                     -52.69030                    1282.88528                      33.78111
                     -72.58050                    1271.52095                      35.97499
                     -87.68605                    1224.18821                      36.81669
                     -93.44393                    1156.44631                      36.07882
                     -86.63811                    1020.02171                      32.33918
                     -43.88610                     508.78442                      16.21291
                     -36.80367                     429.23736                      13.65101
        </DataArray>
        <DataArray type="Float32" Name="TranslationalVelocity" NumberOfComponents="3" format="ascii">
                      -0.80766                       0.06861                      -1.41996
                      -0.96173                       0.09905                      -2.68273
                      -1.26832                       0.24861                      -5.20510
                      -1.57448                       0.44175                      -7.72380
                      -1.95755                       0.71158                     -10.86685
                      -2.42182                       0.90866                     -14.63466
                      -2.89150                       0.99329                     -18.39634
                      -3.36431                       1.08410                     -22.14860
                      -3.83857                       1.17963                     -25.89206
                      -4.31073                       1.28168                     -29.62767
                      -4.77674                       1.39260                     -33.35710
                      -5.23007                       1.51162                     -37.08063
                      -5.66399                       1.63839                     -40.79899
                      -6.07237                       1.77261                     -44.51261
                      -6.45125                       1.91400                     -48.22180
                      -6.74490                       2.03654                     -51.31004
                      -6.96662                       2.12989                     -53.77965
                      -7.18146                       2.17420                     -56.25167
                      -7.28708                       2.23445                     -57.48618
        </DataArray>
        <DataArray type="Float32" Name="RotationalVelocity" NumberOfComponents="3" format="ascii">
                       0.92477                      -0.01436                      -0.11308
                       0.92444                      -0.01435                      -0.11313
                       0.92363                      -0.01431                      -0.11326
                       0.92262                      -0.01426                      -0.11344
                       0.92105                      -0.01418                      -0.11381
                       0.91888                      -0.01407                      -0.11449
                       0.91659                      -0.01395                      -0.11530
                       0.91438                      -0.01384                      -0.11592
                       0.91241                      -0.01375                      -0.11598
                       0.91079                      -0.01369                      -0.11508
                       0.90963                      -0.01367                      -0.11272
                       0.90888                      -0.01370                      -0.10885
                       0.90852                      -0.01377                      -0.10350
                       0.90846                      -0.01387                      -0.09699
                       0.90863                      -0.01398                      -0.08998
                       0.90887                      -0.01408                      -0.08459
                       0.90908                      -0.01414                      -0.08122
                       0.90929                      -0.01419                      -0.07879
                       0.90939                      -0.01421                      -0.07800
        </DataArray>
        <DataArray type="Float32" Name="TranslationalAcceleration" NumberOfComponents="3" format="ascii">
                      -0.05419                       1.11560                       0.13268
                      -0.00973                       2.29851                       0.20266
                       0.08504                       4.65736                       0.42432
                       0.17451                       7.00984                       0.68444
                       0.27012                       9.94247                       1.03300
                       0.33842                      13.45857                       1.33002
                       0.35007                      16.96626                       1.51965
                       0.31143                      20.45787                       1.71150
                       0.21986                      23.93333                       1.90407
                       0.07616                      27.39266                       2.09842
                      -0.11125                      30.83741                       2.29650
                      -0.34142                      34.26569                       2.49628
                      -0.60531                      37.67711                       2.69686
                      -0.89148                      41.07171                       2.89786
                      -1.18666                      44.45061                       3.09950
                      -1.42973                      47.25703                       3.26820
                      -1.61703                      49.49847                       3.39667
                      -1.79453                      51.74252                       3.47898
                      -1.87800                      52.86306                       3.55469
        </DataArray>
        <DataArray type="Float32" Name="OrientationX" NumberOfComponents="3" format="ascii">
                       0.93693                      -0.03755                      -0.34750
                       0.93695                      -0.03703                      -0.34749
                       0.93702                      -0.03556                      -0.34747
                       0.93710                      -0.03354                      -0.34744
                       0.93724                      -0.03020                      -0.34737
                       0.94800                      -0.02618                      -0.31718
                       0.95523                      -0.02078                      -0.29515
                       0.96114                      -0.01399                      -0.27571
                       0.96693                      -0.00567                      -0.25500
                       0.97235                       0.00446                      -0.23349
                       0.97692                       0.01678                      -0.21294
                       0.98084                       0.03083                      -0.19236
                       0.98375                       0.04611                      -0.17351
                       0.98536                       0.06164                      -0.15897
                       0.98659                       0.07564                      -0.14467
                       0.98755                       0.08430                      -0.13281
                       0.98836                       0.08804                      -0.12409
                       0.98883                       0.08914                      -0.11947
                       0.98887                       0.08863                      -0.11949
        </DataArray>
        <DataArray type="Float32" Name="OrientationY" NumberOfComponents="3" format="ascii">
                       0.34651                      -0.03060                       0.93755
                       0.34650                      -0.03077                       0.93755
                       0.34648                      -0.03117                       0.93754
                       0.34646                      -0.03167                       0.93753
                       0.34643                      -0.03241                       0.93752
                       0.31632                      -0.03252                       0.94810
                       0.29439                      -0.03306                       0.95511
                       0.27512                      -0.03378                       0.96082
                       0.25466                      -0.03462                       0.96641
                       0.23350                      -0.03560                       0.97170
                       0.21343                      -0.03671                       0.97627
                       0.19346                      -0.03801                       0.98037
                       0.17535                      -0.03945                       0.98372
                       0.16163                      -0.04084                       0.98601
                       0.14812                      -0.04229                       0.98806
                       0.13680                      -0.04352                       0.98964
                       0.12835                      -0.04442                       0.99073
                       0.12381                      -0.04489                       0.99129
                       0.12380                      -0.04489                       0.99129
        </DataArray>
        <DataArray type="Float32" Name="OrientationZ" NumberOfComponents="3" format="ascii">
                      -0.04584                      -0.99883                      -0.01566
                      -0.04541                      -0.99884                      -0.01600
                      -0.04417                      -0.99888                      -0.01689
                      -0.04245                      -0.99894                      -0.01805
                      -0.03957                      -0.99902                      -0.01991
                      -0.03514                      -0.99913                      -0.02255
                      -0.02961                      -0.99924                      -0.02546
                      -0.02276                      -0.99933                      -0.02862
                      -0.01431                      -0.99938                      -0.03203
                      -0.00398                      -0.99936                      -0.03566
                       0.00856                      -0.99918                      -0.03945
                       0.02291                      -0.99880                      -0.04325
                       0.03851                      -0.99816                      -0.04689
                       0.05429                      -0.99726                      -0.05020
                       0.06861                      -0.99624                      -0.05293
                       0.07764                      -0.99549                      -0.05451
                       0.08171                      -0.99513                      -0.05520
                       0.08300                      -0.99501                      -0.05543
                       0.08250                      -0.99505                      -0.05536
        </DataArray>
      </PointData>
      <Lines>
        <DataArray type="Int32" Name="connectivity" format="ascii">
      0      1
      1      2
      2      3
      3      4
      4      5
      5      6
      6      7
      7      8
      8      9
      9     10
     10     11
     11     12
     12     13
     13     14
     14     15
     15     16
     16     17
     17     18
        </DataArray>
        <DataArray type="Int32" Name="offsets" format="ascii">
      2
      4
      6
      8
     10
     12
     14
     16
     18
     20
     22
     24
     26
     28
     30
     32
     34
     36
        </DataArray>
      </Lines>
    </Piece>
  </PolyData>
</VTKFile>
