<?xml version="1.0"?>
<VTKFile type="PolyData" version="0.1" byte_order="LittleEndian">
  <PolyData>
    <Piece NumberOfPoints="     19" NumberOfVerts="  0" NumberOfLines="     18"
           NumberOfStrips="  0" NumberOfPolys="      0">
      <Points>
        <DataArray type="Float32" NumberOfComponents="3" format="ascii">
                       2.60408                      -1.00351                      87.02782
                       2.02281                      -2.07971                      83.62323
                       1.45149                      -3.15491                      80.21663
                       0.89395                      -4.22860                      76.80729
                       0.35339                      -5.30052                      73.39466
                      -0.16679                      -6.37050                      69.97825
                      -0.66255                      -7.43830                      66.55755
                      -1.12892                      -8.50355                      63.13193
                      -1.56001                      -9.56591                      59.70082
                      -1.94928                     -10.62509                      56.26374
                      -2.29008                     -11.68094                      52.82052
                      -2.57647                     -12.73346                      49.37133
                      -2.80439                     -13.78282                      45.91681
                      -2.97299                     -14.82934                      42.45798
                      -3.08642                     -15.87347                      38.99610
                      -3.15574                     -16.91595                      35.53244
                      -3.20124                     -17.95765                      32.06808
                      -3.22121                     -18.47842                      30.33583
                       2.89666                      -0.46523                      88.72973
        </DataArray>
      </Points>
      <PointData>
        <DataArray type="Float32" Name="TranslationalVelocity" NumberOfComponents="3" format="ascii">
                       0.14947                       2.89396                      -0.84830
                      -0.01371                       6.06799                      -1.82377
                      -0.18896                       9.23357                      -2.79352
                      -0.38148                      12.38825                      -3.75556
                      -0.59597                      15.53052                      -4.70861
                      -0.83596                      18.65984                      -5.65219
                      -1.10321                      21.77629                      -6.58634
                      -1.39738                      24.88047                      -7.51165
                      -1.71598                      27.97322                      -8.42928
                      -2.05447                      31.05545                      -9.34082
                      -2.40642                      34.12790                     -10.24813
                      -2.76402                      37.19110                     -11.15311
                      -3.11865                      40.24535                     -12.05735
                      -3.46165                      43.29103                     -12.96190
                      -3.78538                      46.32892                     -13.86724
                      -4.08445                      49.36070                     -14.77343
                      -4.35712                      52.38947                     -15.68031
                      -4.48690                      53.90359                     -16.13390
                       0.22870                       1.30518                      -0.35943
        </DataArray>
        <DataArray type="Float32" Name="RotationalVelocity" NumberOfComponents="3" format="ascii">
                       0.91372                       0.01013                      -0.11518
                       0.91143                       0.01277                      -0.11562
                       0.90817                       0.01690                      -0.11636
                       0.90421                       0.02241                      -0.11742
                       0.89993                       0.02908                      -0.11879
                       0.89560                       0.03649                      -0.12039
                       0.89140                       0.04406                      -0.12206
                       0.88752                       0.05122                      -0.12365
                       0.88407                       0.05740                      -0.12501
                       0.88113                       0.06204                      -0.12597
                       0.87870                       0.06472                      -0.12640
                       0.87676                       0.06513                      -0.12620
                       0.87527                       0.06319                      -0.12532
                       0.87419                       0.05902                      -0.12382
                       0.87348                       0.05308                      -0.12181
                       0.87313                       0.04611                      -0.11955
                       0.87319                       0.03928                      -0.11740
                       0.87333                       0.03606                      -0.11641
                       0.91460                       0.00918                      -0.11503
        </DataArray>
        <DataArray type="Float32" Name="TranslationalAcceleration" NumberOfComponents="3" format="ascii">
                      -0.14788                       1.13614                       2.32846
                       0.26996                       2.44826                       5.08872
                       0.59696                       3.74958                       7.84977
                       0.79645                       5.03428                      10.61381
                       0.83765                       6.29911                      13.38280
                       0.70449                       7.54518                      16.15641
                       0.40179                       8.77676                      18.93085
                      -0.04128                      10.00064                      21.69849
                      -0.57057                      11.22580                      24.44832
                      -1.10915                      12.46208                      27.16764
                      -1.56225                      13.71872                      29.84443
                      -1.82528                      15.00317                      32.47034
                      -1.79486                      16.32038                      35.04316
                      -1.38315                      17.67238                      37.56801
                      -0.53541                      19.05761                      40.05621
                       0.74896                      20.46981                      42.52167
                       2.39219                      21.89789                      44.97539
                       3.28810                      22.61422                      46.20032
                      -0.37487                       0.47812                       0.94833
        </DataArray>
        <DataArray type="Float32" Name="RotationalAcceleration" NumberOfComponents="3" format="ascii">
                       0.11355                      -0.03848                      -0.03084
                       0.11194                      -0.01951                      -0.03657
                       0.10890                       0.00928                      -0.04515
                       0.10429                       0.04765                      -0.05649
                       0.09935                       0.09268                      -0.06988
                       0.09526                       0.13941                      -0.08396
                       0.09289                       0.18158                      -0.09689
                       0.09321                       0.21241                      -0.10670
                       0.09677                       0.22538                      -0.11142
                       0.10364                       0.21498                      -0.10932
                       0.11337                       0.17751                      -0.09914
                       0.12508                       0.11188                      -0.08040
                       0.13771                       0.02038                      -0.05364
                       0.15011                      -0.09054                      -0.02068
                       0.16099                      -0.20954                       0.01509
                       0.16901                      -0.31958                       0.04851
                       0.17328                      -0.39719                       0.07233
                       0.17439                      -0.42453                       0.08079
                       0.11411                      -0.04567                      -0.02866
        </DataArray>
        <DataArray type="Float32" Name="OrientationX" NumberOfComponents="3" format="ascii">
                       0.95106                       0.20739                      -0.22909
                       0.95141                       0.20804                      -0.22704
                       0.95195                       0.20905                      -0.22382
                       0.95604                       0.19792                      -0.21637
                       0.96413                       0.17043                      -0.20348
                       0.96879                       0.15564                      -0.19295
                       0.97331                       0.14095                      -0.18111
                       0.97783                       0.12570                      -0.16748
                       0.98216                       0.11068                      -0.15205
                       0.98609                       0.09693                      -0.13502
                       0.98966                       0.08391                      -0.11634
                       0.99271                       0.07219                      -0.09654
                       0.99499                       0.06382                      -0.07699
                       0.99668                       0.05681                      -0.05828
                       0.99793                       0.04919                      -0.04146
                       0.99877                       0.04046                      -0.02860
                       0.99916                       0.03370                      -0.02347
                       0.99924                       0.03117                      -0.02335
                       0.95094                       0.20717                      -0.22977
        </DataArray>
        <DataArray type="Float32" Name="OrientationY" NumberOfComponents="3" format="ascii">
                       0.26330                      -0.93190                       0.24947
                       0.26335                      -0.93182                       0.24974
                       0.26341                      -0.93170                       0.25009
                       0.25078                      -0.93428                       0.25344
                       0.22109                      -0.93985                       0.26040
                       0.20408                      -0.94258                       0.26436
                       0.18677                      -0.94509                       0.26817
                       0.16837                      -0.94748                       0.27192
                       0.14964                      -0.94961                       0.27540
                       0.13164                      -0.95139                       0.27844
                       0.11384                      -0.95291                       0.28108
                       0.09693                      -0.95414                       0.28323
                       0.08329                      -0.95499                       0.28472
                       0.07119                      -0.95565                       0.28579
                       0.05904                      -0.95623                       0.28658
                       0.04698                      -0.95674                       0.28713
                       0.03903                      -0.95703                       0.28736
                       0.03657                      -0.95711                       0.28742
                       0.26329                      -0.93193                       0.24937
        </DataArray>
        <DataArray type="Float32" Name="OrientationZ" NumberOfComponents="3" format="ascii">
                      -0.16175                      -0.29758                      -0.94089
                      -0.15960                      -0.29739                      -0.94132
                      -0.15625                      -0.29703                      -0.94200
                      -0.15199                      -0.29656                      -0.94284
                      -0.14686                      -0.29605                      -0.94382
                      -0.14073                      -0.29549                      -0.94492
                      -0.13337                      -0.29484                      -0.94619
                      -0.12450                      -0.29409                      -0.94763
                      -0.11391                      -0.29324                      -0.94923
                      -0.10147                      -0.29234                      -0.95092
                      -0.08727                      -0.29141                      -0.95261
                      -0.07167                      -0.29052                      -0.95418
                      -0.05536                      -0.28970                      -0.95551
                      -0.03945                      -0.28899                      -0.95652
                      -0.02554                      -0.28844                      -0.95716
                      -0.01574                      -0.28812                      -0.95747
                      -0.01278                      -0.28804                      -0.95753
                      -0.01339                      -0.28805                      -0.95752
                      -0.16247                      -0.29763                      -0.94075
        </DataArray>
      </PointData>
      <Lines>
        <DataArray type="Int32" Name="connectivity" format="ascii">
      0      1
      1      2
      2      3
      3      4
      4      5
      5      6
      6      7
      7      8
      8      9
      9     10
     10     11
     11     12
     12     13
     13     14
     14     15
     15     16
     16     17
     18      0
        </DataArray>
        <DataArray type="Int32" Name="offsets" format="ascii">
      2
      4
      6
      8
     10
     12
     14
     16
     18
     20
     22
     24
     26
     28
     30
     32
     34
     36
        </DataArray>
      </Lines>
    </Piece>
  </PolyData>
</VTKFile>
