<?xml version="1.0"?>
<VTKFile type="PolyData" version="0.1" byte_order="LittleEndian">
  <PolyData>
    <Piece NumberOfPoints="     19" NumberOfVerts="  0" NumberOfLines="     18"
           NumberOfStrips="  0" NumberOfPolys="      0">
      <Points>
        <DataArray type="Float32" NumberOfComponents="3" format="ascii">
                       2.82673                      -0.84823                      88.89898
                       2.62900                      -1.60661                      87.77931
                       2.20621                      -3.04353                      85.49061
                       1.77415                      -4.44086                      83.17680
                       1.23488                      -6.16111                      80.26681
                       0.66551                      -8.33883                      76.83899
                       0.15076                     -10.61727                      73.47023
                      -0.33853                     -12.88948                      70.09344
                      -0.79315                     -15.15665                      66.70834
                      -1.20597                     -17.41696                      63.31322
                      -1.57533                     -19.66819                      59.90700
                      -1.88686                     -21.91072                      56.48919
                      -2.13354                     -24.14484                      53.06049
                      -2.31197                     -26.37108                      49.62232
                      -2.42260                     -28.59016                      46.17653
                      -2.47169                     -30.43515                      43.30105
                      -2.48946                     -31.91579                      41.00331
                      -2.49954                     -33.44244                      38.73446
                      -2.50796                     -34.17055                      37.57792
        </DataArray>
      </Points>
      <PointData>
        <DataArray type="Float32" Name="Force" NumberOfComponents="3" format="ascii">
                       0.27679                      -3.38001                       2.25457
                      59.06698                     -25.86879                       7.23444
                      85.69567                     -59.33624                      25.49656
                      82.30966                     -75.11270                      37.01829
                     684.71269                     225.11024                    -268.12120
                     875.85021                     240.20840                    -304.95549
                     998.59552                     224.37002                    -306.27629
                    1248.77469                     235.34295                    -340.43271
                    1296.04661                     197.97927                    -306.95469
                    1404.85488                     180.11947                    -289.79293
                    1621.33086                     168.22182                    -280.55420
                    1652.64087                     138.97407                    -232.79120
                    1692.28803                     122.48680                    -190.58929
                    1522.55371                      87.79151                    -125.32316
                    1276.69432                      53.50285                     -68.08613
                    1210.85153                      42.66705                     -45.18767
                    1393.76684                      57.35620                     -50.30500
                    1140.03199                      45.91675                     -38.62924
                    1229.91701                      53.10907                     -44.88090
        </DataArray>
        <DataArray type="Float32" Name="Moment" NumberOfComponents="3" format="ascii">
                       0.00000                       0.00000                       0.00000
                       0.00000                       0.00000                       0.00000
                       0.00000                       0.00000                       0.00000
                       0.00000                       0.00000                       0.00000
                      28.70515                     116.47885                     171.09935
                      58.67484                     246.97181                     363.05322
                      72.52625                     320.07254                     470.94428
                      94.91780                     445.40032                     656.08493
                     118.95636                     605.08793                     892.53517
                     118.84095                     673.06124                     994.45395
                     109.87451                     720.84394                    1067.18990
                      94.64269                     757.60779                    1124.17574
                      58.28692                     612.60023                     911.24580
                      38.20905                     587.09666                     875.47614
                      20.98973                     555.33073                     829.96710
                      10.42338                     505.58911                     756.69239
                       5.47694                     424.54338                     635.79704
                       2.26119                     215.79079                     323.23290
                       2.66876                     232.58434                     348.35951
        </DataArray>
        <DataArray type="Float32" Name="TranslationalVelocity" NumberOfComponents="3" format="ascii">
                       0.16938                       1.12094                      -0.72066
                       0.07325                       2.17634                      -1.41852
                      -0.10854                       4.33468                      -2.74015
                      -0.27916                       6.51379                      -4.02475
                      -0.47557                       9.24805                      -5.60605
                      -0.69937                      12.45277                      -7.60746
                      -0.90117                      15.58737                      -9.69970
                      -1.06077                      18.71708                     -11.78539
                      -1.16440                      21.84295                     -13.86762
                      -1.19248                      24.96843                     -15.94721
                      -1.13262                      28.09750                     -18.02356
                      -0.95078                      31.23216                     -20.09851
                      -0.62222                      34.37471                     -22.17131
                      -0.12912                      37.52696                     -24.23951
                       0.53219                      40.69015                     -26.29948
                       1.19637                      43.33383                     -28.00870
                       1.78731                      45.44890                     -29.37760
                       2.39717                      47.53847                     -30.78773
                       2.70744                      48.60354                     -31.46118
        </DataArray>
        <DataArray type="Float32" Name="RotationalVelocity" NumberOfComponents="3" format="ascii">
                       0.92310                       0.01000                      -0.11340
                       0.92266                       0.00939                      -0.11290
                       0.92167                       0.00762                      -0.11152
                       0.92053                       0.00521                      -0.10968
                       0.91890                       0.00127                      -0.10671
                       0.91674                      -0.00452                      -0.10238
                       0.91460                      -0.01169                      -0.09712
                       0.91287                      -0.02102                      -0.09045
                       0.91184                      -0.03351                      -0.08176
                       0.91168                      -0.05014                      -0.07039
                       0.91247                      -0.07214                      -0.05555
                       0.91394                      -0.09902                      -0.03749
                       0.91581                      -0.12990                      -0.01677
                       0.91781                      -0.16277                       0.00528
                       0.91963                      -0.19428                       0.02643
                       0.92075                      -0.21560                       0.04076
                       0.92131                      -0.22660                       0.04816
                       0.92159                      -0.23212                       0.05187
                       0.92164                      -0.23253                       0.05214
        </DataArray>
        <DataArray type="Float32" Name="TranslationalAcceleration" NumberOfComponents="3" format="ascii">
                       0.58758                       0.67489                       0.93728
                       0.73621                       1.27904                       1.93986
                       1.03320                       2.40349                       3.99103
                       1.30500                       3.45152                       6.08198
                       1.58325                       4.66240                       8.74669
                       1.80028                       6.09731                      11.95934
                       1.85393                       7.47924                      15.22289
                       1.68078                       8.70054                      18.60168
                       1.16691                       9.75337                      22.11648
                       0.15113                      10.62684                      25.79169
                      -1.47976                      11.32713                      29.63107
                      -3.99788                      11.82567                      33.66487
                      -7.61117                      12.11204                      37.89314
                     -12.47364                      12.17972                      42.29965
                     -18.62812                      12.03140                      46.85073
                     -24.63275                      11.76576                      50.72256
                     -29.90744                      11.49067                      53.85507
                     -35.36024                      11.24830                      57.00598
                     -38.11182                      11.08543                      58.58594
        </DataArray>
        <DataArray type="Float32" Name="OrientationX" NumberOfComponents="3" format="ascii">
                       0.94503                       0.16735                      -0.28091
                       0.94511                       0.16766                      -0.28046
                       0.94533                       0.16853                      -0.27918
                       0.94564                       0.16971                      -0.27743
                       0.94613                       0.17168                      -0.27452
                       0.95572                       0.14857                      -0.25403
                       0.96235                       0.13325                      -0.23691
                       0.96795                       0.12101                      -0.22005
                       0.97352                       0.10866                      -0.20114
                       0.97885                       0.09679                      -0.18022
                       0.98360                       0.08706                      -0.15794
                       0.98785                       0.07842                      -0.13415
                       0.99129                       0.07199                      -0.11029
                       0.99364                       0.06935                      -0.08867
                       0.99547                       0.06598                      -0.06850
                       0.99663                       0.06143                      -0.05430
                       0.99734                       0.05650                      -0.04611
                       0.99767                       0.05333                      -0.04253
                       0.99767                       0.05303                      -0.04299
        </DataArray>
        <DataArray type="Float32" Name="OrientationY" NumberOfComponents="3" format="ascii">
                       0.29338                      -0.81331                       0.50246
                       0.29335                      -0.81341                       0.50230
                       0.29328                      -0.81368                       0.50191
                       0.29320                      -0.81400                       0.50144
                       0.29308                      -0.81448                       0.50072
                       0.26258                      -0.82025                       0.50818
                       0.24036                      -0.82419                       0.51278
                       0.22082                      -0.82743                       0.51632
                       0.20009                      -0.83054                       0.51977
                       0.17869                      -0.83342                       0.52295
                       0.15838                      -0.83588                       0.52556
                       0.13820                      -0.83808                       0.52774
                       0.11989                      -0.83993                       0.52928
                       0.10602                      -0.84132                       0.53004
                       0.09236                      -0.84257                       0.53061
                       0.08092                      -0.84349                       0.53101
                       0.07238                      -0.84410                       0.53128
                       0.06779                      -0.84439                       0.53142
                       0.06779                      -0.84439                       0.53142
        </DataArray>
        <DataArray type="Float32" Name="OrientationZ" NumberOfComponents="3" format="ascii">
                      -0.14438                      -0.55725                      -0.81770
                      -0.14392                      -0.55700                      -0.81795
                      -0.14258                      -0.55635                      -0.81862
                      -0.14073                      -0.55552                      -0.81951
                      -0.13763                      -0.55421                      -0.82092
                      -0.13287                      -0.55238                      -0.82294
                      -0.12693                      -0.55042                      -0.82518
                      -0.11960                      -0.54837                      -0.82764
                      -0.11058                      -0.54625                      -0.83029
                      -0.09958                      -0.54410                      -0.83309
                      -0.08626                      -0.54196                      -0.83597
                      -0.07105                      -0.53987                      -0.83874
                      -0.05453                      -0.53789                      -0.84125
                      -0.03785                      -0.53608                      -0.84332
                      -0.02271                      -0.53454                      -0.84484
                      -0.01318                      -0.53362                      -0.84562
                      -0.00891                      -0.53321                      -0.84594
                      -0.00757                      -0.53307                      -0.84604
                      -0.00812                      -0.53310                      -0.84602
        </DataArray>
      </PointData>
      <Lines>
        <DataArray type="Int32" Name="connectivity" format="ascii">
      0      1
      1      2
      2      3
      3      4
      4      5
      5      6
      6      7
      7      8
      8      9
      9     10
     10     11
     11     12
     12     13
     13     14
     14     15
     15     16
     16     17
     17     18
        </DataArray>
        <DataArray type="Int32" Name="offsets" format="ascii">
      2
      4
      6
      8
     10
     12
     14
     16
     18
     20
     22
     24
     26
     28
     30
     32
     34
     36
        </DataArray>
      </Lines>
    </Piece>
  </PolyData>
</VTKFile>
