<?xml version="1.0"?>
<VTKFile type="PolyData" version="0.1" byte_order="LittleEndian">
  <PolyData>
    <Piece NumberOfPoints="     17" NumberOfVerts="  0" NumberOfLines="      0"
           NumberOfStrips="  0" NumberOfPolys="      0">
      <Points>
        <DataArray type="Float32" NumberOfComponents="3" format="ascii">
                       3.30357                      -2.42435                      92.41302
                       3.46351                      -5.05442                      94.89184
                       3.63057                      -7.68730                      97.36719
                       3.80762                     -10.32385                      99.83793
                       3.99718                     -12.96457                     102.30329
                       4.20196                     -15.60970                     104.76269
                       4.42516                     -18.25939                     107.21556
                       4.67058                     -20.91372                     109.66127
                       4.94269                     -23.57263                     112.09916
                       5.24637                     -26.23589                     114.52854
                       5.58649                     -28.90303                     116.94881
                       5.96728                     -31.57334                     119.35949
                       6.39155                     -34.24594                     121.76036
                       6.85963                     -36.91983                     124.15166
                       7.36815                     -39.59414                     126.53427
                       7.90868                     -42.26825                     128.91013
                       8.46608                     -44.94208                     131.28243
        </DataArray>
      </Points>
      <PointData>
        <DataArray type="Float32" Name="Force" NumberOfComponents="3" format="ascii">
                     176.78873                      58.37017                      50.57617
                     574.03020                     179.93312                     152.04310
                    1883.38879                    -509.80606                    -675.33169
                    3121.61694                    -863.00905                   -1152.64229
                    1875.83978                    -453.08903                    -632.46897
                    4002.14735                    -827.31043                   -1226.14550
                    4777.76824                    -817.76810                   -1325.72139
                    5234.49117                    -721.51094                   -1324.94093
                    5601.32565                    -623.20905                   -1331.77176
                    7109.94821                    -615.48904                   -1609.05536
                    8218.78754                    -531.40940                   -1810.60772
                    9573.66123                    -465.60459                   -2127.75394
                    5566.62246                    -203.85369                   -1247.26398
                   11255.68897                    -273.44900                   -2538.71934
                   11090.71863                    -123.24275                   -2521.02028
                   16225.06923                      22.37318                   -3671.51875
                    6978.21656                      93.80977                   -1519.05405
        </DataArray>
        <DataArray type="Float32" Name="Moment" NumberOfComponents="3" format="ascii">
                     -17.02178                      11.60262                      19.46942
                     155.04310                     185.64747                     281.42042
                    1011.49194                    1067.84819                    1608.91880
                    1076.82307                    1382.96297                    2080.37812
                      61.28097                      37.53941                     222.80687
                    -809.06042                   -1310.97037                   -1444.85380
                    -574.90174                    -448.78078                   -1416.14200
                    -255.82825                    1014.56306                   -1147.45330
                     -98.93177                    1624.23481                    -797.01631
                      25.46592                    2215.89807                    -329.74542
                     428.49150                    3562.35366                    1168.85673
                    1051.98451                    4981.30756                    3764.05993
                    -129.98730                      15.26696                    -538.75296
                   -1499.12376                   -4716.53714                   -5962.88719
                   -1351.43644                   -4561.06615                   -5568.80156
                    -298.16811                    -217.50454                    -956.04645
                     -83.53064                     398.12298                      59.30793
        </DataArray>
      </PointData>
    </Piece>
  </PolyData>
</VTKFile>
