<?xml version="1.0"?>
<VTKFile type="PolyData" version="0.1" byte_order="LittleEndian">
  <PolyData>
    <Piece NumberOfPoints="     17" NumberOfVerts="  0" NumberOfLines="      0"
           NumberOfStrips="  0" NumberOfPolys="      0">
      <Points>
        <DataArray type="Float32" NumberOfComponents="3" format="ascii">
                       2.34902                       3.05607                      88.97829
                       2.05225                       6.43629                      87.72393
                       1.76335                       9.81664                      86.46808
                       1.48529                      13.19722                      85.21043
                       1.22053                      16.57809                      83.95069
                       0.97173                      19.95928                      82.68859
                       0.74232                      23.34089                      81.42394
                       0.53674                      26.72302                      80.15661
                       0.36043                      30.10572                      78.88640
                       0.21953                      33.48886                      77.61301
                       0.12043                      36.87210                      76.33602
                       0.06894                      40.25486                      75.05495
                       0.06928                      43.63629                      73.76936
                       0.12278                      47.01553                      72.47907
                       0.22635                      50.39193                      71.18427
                       0.37063                      53.76546                      69.88567
                       0.53801                      57.13712                      68.58484
        </DataArray>
      </Points>
      <PointData>
        <DataArray type="Float32" Name="Force" NumberOfComponents="3" format="ascii">
                     160.37880                     -11.50466                     -69.28995
                     535.68328                     -38.43493                    -227.00434
                    2220.90664                     379.54329                     529.08325
                    3810.17375                     643.96034                     921.18302
                    2313.89577                     349.99366                     470.59318
                    4939.18044                     650.81739                     803.70489
                    5883.47410                     649.78316                     722.33374
                    6481.00830                     582.15432                     580.64258
                    6913.50386                     489.66657                     450.75798
                    8690.96259                     451.70934                     401.47798
                    9989.27656                     327.35336                     323.46044
                   11398.90651                     165.44520                     290.05047
                    6544.51976                       3.24952                     137.29565
                   13071.76770                    -180.10083                     211.16084
                   12620.23290                    -377.27656                     126.12221
                   17891.35823                    -803.54951                       0.06231
                    7298.00461                    -410.83192                    -128.54269
        </DataArray>
        <DataArray type="Float32" Name="Moment" NumberOfComponents="3" format="ascii">
                     -19.26749                      -3.47711                     -17.38724
                     103.00353                     -73.50332                    -399.22497
                     732.03219                    -405.20003                   -2309.25230
                     731.56693                    -184.25330                   -3192.56372
                      -0.31243                     344.34592                    -386.77284
                    -630.47977                    1360.84497                    2054.80199
                    -376.32853                     678.58372                    1463.54634
                    -113.87298                    -472.10054                     323.65735
                     -19.65554                    -956.14700                    -339.82837
                      10.60663                   -1230.76878                   -1203.59382
                      98.05071                   -2025.38807                   -3486.41607
                     156.64666                   -2765.34707                   -6678.95340
                     -22.83626                     134.48857                     401.37886
                    -155.79961                    3109.48357                    8193.75250
                     -49.73700                    2908.19887                    7600.56094
                    -135.47382                     402.99670                    1179.43268
                    -121.75025                    -204.16486                     -84.01497
        </DataArray>
      </PointData>
    </Piece>
  </PolyData>
</VTKFile>
