<?xml version="1.0"?>
<VTKFile type="PolyData" version="0.1" byte_order="LittleEndian">
  <PolyData>
    <Piece NumberOfPoints="     17" NumberOfVerts="  0" NumberOfLines="      0"
           NumberOfStrips="  0" NumberOfPolys="      0">
      <Points>
        <DataArray type="Float32" NumberOfComponents="3" format="ascii">
                       2.27419                      -2.73296                      88.24563
                       1.88433                      -5.68309                      86.18841
                       1.50190                      -8.63153                      84.12740
                       1.12984                     -11.57775                      82.06132
                       0.77075                     -14.52144                      79.98935
                       0.42746                     -17.46244                      77.91090
                       0.10337                     -20.40060                      75.82537
                      -0.19735                     -23.33576                      73.73215
                      -0.46973                     -26.26775                      71.63064
                      -0.70826                     -29.19641                      69.52040
                      -0.90737                     -32.12154                      67.40123
                      -1.06206                     -35.04297                      65.27327
                      -1.16888                     -37.96055                      63.13709
                      -1.22709                     -40.87421                      60.99368
                      -1.24002                     -43.78418                      58.84441
                      -1.21675                     -46.69114                      56.69108
                      -1.17388                     -49.59646                      54.53576
        </DataArray>
      </Points>
      <PointData>
        <DataArray type="Float32" Name="Force" NumberOfComponents="3" format="ascii">
                     182.60151                     -65.72824                      59.57986
                     636.85732                    -199.05463                     167.31224
                    2180.04779                     401.59843                    -970.06805
                    3648.97408                     706.23348                   -1651.64488
                    2228.95680                     381.85944                    -923.87816
                    4842.39028                     728.73114                   -1825.11707
                    5875.83485                     770.61415                   -1986.14914
                    6541.44585                     757.59798                   -1975.81757
                    7072.03730                     757.71416                   -1932.17217
                    9005.78940                     921.40543                   -2227.02207
                   10460.26610                    1064.20956                   -2345.08084
                   12093.24062                    1284.94239                   -2493.27550
                    7000.24930                     771.07155                   -1349.62032
                   14086.69705                    1602.00890                   -2521.78812
                   13737.57393                    1608.39100                   -2243.24690
                   19712.96760                    2295.30867                   -2884.37135
                    8105.44794                     862.58200                   -1023.35042
        </DataArray>
        <DataArray type="Float32" Name="Moment" NumberOfComponents="3" format="ascii">
                     -19.96255                     -16.66791                      20.08901
                     185.75917                    -303.05043                     274.67670
                    1149.93804                   -1731.58203                    1500.60172
                    1235.40371                   -2364.46172                    1897.61127
                      47.34499                    -398.77362                       9.07857
                   -1049.57341                    1130.48057                   -2046.35766
                    -667.56455                    1078.19207                   -1200.36273
                     -92.44977                     827.28703                     425.82963
                     162.77325                     476.20595                    1175.90459
                     370.09177                    -170.89479                    1866.54559
                     961.76586                   -1790.95831                    3831.79129
                    1713.33937                   -4351.11190                    6310.36160
                    -120.24152                     298.99634                    -378.67823
                   -2068.09871                    5633.38034                   -7604.96616
                   -1843.29628                    5248.02990                   -7150.44634
                    -421.04747                     787.72225                   -1096.22854
                    -100.58529                      39.36296                     246.79275
        </DataArray>
      </PointData>
    </Piece>
  </PolyData>
</VTKFile>
