<?xml version="1.0"?>
<VTKFile type="PolyData" version="0.1" byte_order="LittleEndian">
  <PolyData>
    <Piece NumberOfPoints="     19" NumberOfVerts="  0" NumberOfLines="     18"
           NumberOfStrips="  0" NumberOfPolys="      0">
      <Points>
        <DataArray type="Float32" NumberOfComponents="3" format="ascii">
                       2.77668                       0.02664                      91.62208
                       2.87389                       0.07411                      92.98450
                       3.04752                       0.07449                      95.71430
                       3.21488                       0.03024                      98.44635
                       3.42634                      -0.05178                     101.86258
                       3.74693                      -0.00720                     105.95171
                       4.11107                       0.16725                     110.03242
                       4.49783                       0.34398                     114.11094
                       4.91604                       0.52423                     118.18617
                       5.37315                       0.70547                     122.25713
                       5.87173                       0.88377                     126.32327
                       6.42664                       1.06023                     130.38213
                       7.04595                       1.23499                     134.43169
                       7.73424                       1.40847                     138.47012
                       8.49223                       1.58115                     142.49608
                       9.16910                       1.72489                     145.84228
                       9.73333                       1.84788                     148.51419
                      10.30338                       2.02594                     151.18288
                      10.58830                       2.07332                     152.51868
        </DataArray>
      </Points>
      <PointData>
        <DataArray type="Float32" Name="Force" NumberOfComponents="3" format="ascii">
                      -0.00906                       2.16025                      -0.08000
                      79.00689                      25.70489                      -6.64394
                      97.05986                      61.34063                      -9.40106
                      85.43805                      80.01574                      -9.40037
                     845.44586                    -333.59209                     -53.48449
                    1189.70534                    -481.91270                     -80.05959
                    1363.54841                    -455.21530                    -102.79449
                    1726.71880                    -487.42086                    -145.14027
                    1893.70553                    -459.33187                    -178.00297
                    2188.64149                    -465.51333                    -231.29358
                    2674.09502                    -501.60500                    -320.32569
                    3080.38657                    -521.46036                    -418.65863
                    3560.08037                    -566.77372                    -546.28811
                    3905.90546                    -582.66290                    -670.22756
                    4198.85248                    -588.80779                    -791.45698
                    4358.92686                    -570.65210                    -870.26062
                    4262.65808                    -514.39661                    -874.84372
                    3092.41671                    -342.70913                    -642.37571
                    1202.06759                      11.45253                    -254.90188
        </DataArray>
        <DataArray type="Float32" Name="Moment" NumberOfComponents="3" format="ascii">
                       0.00000                       0.00000                       0.00000
                       0.00000                       0.00000                       0.00000
                       0.00000                       0.00000                       0.00000
                       0.00000                       0.00000                       0.00000
                     -20.09270                      -9.62354                    -257.58782
                     -30.45756                     -13.81055                    -369.47535
                     -47.67619                     -20.29235                    -542.55251
                     -74.62573                     -29.52015                    -788.67783
                    -105.69608                     -38.41451                   -1025.33253
                    -132.15882                     -43.61576                   -1162.78437
                    -154.52146                     -45.76504                   -1218.28849
                    -182.76590                     -48.33699                   -1284.54008
                    -188.55136                     -44.58267                   -1182.50739
                    -206.56898                     -44.03027                   -1165.55056
                    -215.36395                     -42.05678                   -1111.26457
                    -213.87259                     -39.60638                   -1045.26561
                    -194.88060                     -35.21534                    -928.84555
                     -99.91757                     -17.87896                    -471.46782
                     -85.15697                     -15.25441                    -402.26903
        </DataArray>
        <DataArray type="Float32" Name="TranslationalVelocity" NumberOfComponents="3" format="ascii">
                      -0.34740                      -1.44629                       0.03747
                      -0.35343                      -2.72637                       0.08250
                      -0.37654                      -5.28740                       0.08442
                      -0.40724                      -7.84493                       0.04520
                      -0.45434                     -11.03417                      -0.02753
                      -0.50643                     -14.84403                       0.01989
                      -0.56028                     -18.63265                       0.18871
                      -0.63239                     -22.40317                       0.36090
                      -0.72393                     -26.15598                       0.53811
                      -0.83506                     -29.89211                       0.71857
                      -0.96295                     -33.61430                       0.89889
                      -1.10664                     -37.32192                       1.08091
                      -1.26205                     -41.01578                       1.26504
                      -1.42406                     -44.69656                       1.45149
                      -1.58695                     -48.36510                       1.63997
                      -1.71944                     -51.41439                       1.79795
                      -1.82019                     -53.84953                       1.93134
                      -1.90893                     -56.28175                       2.11254
                      -1.95649                     -57.49909                       2.16580
        </DataArray>
        <DataArray type="Float32" Name="RotationalVelocity" NumberOfComponents="3" format="ascii">
                       0.93249                      -0.00786                      -0.10795
                       0.93186                      -0.00819                      -0.10790
                       0.93029                      -0.00908                      -0.10775
                       0.92833                      -0.01031                      -0.10756
                       0.92530                      -0.01244                      -0.10727
                       0.92113                      -0.01583                      -0.10684
                       0.91673                      -0.01998                      -0.10637
                       0.91234                      -0.02461                      -0.10589
                       0.90813                      -0.02943                      -0.10541
                       0.90423                      -0.03410                      -0.10495
                       0.90076                      -0.03821                      -0.10455
                       0.89772                      -0.04149                      -0.10421
                       0.89510                      -0.04369                      -0.10394
                       0.89293                      -0.04463                      -0.10375
                       0.89124                      -0.04421                      -0.10365
                       0.89026                      -0.04282                      -0.10363
                       0.88981                      -0.04110                      -0.10366
                       0.88962                      -0.03897                      -0.10373
                       0.88963                      -0.03778                      -0.10377
        </DataArray>
        <DataArray type="Float32" Name="TranslationalAcceleration" NumberOfComponents="3" format="ascii">
                       1.16260                      -0.02489                      -1.10557
                       1.09002                      -0.11312                      -2.30155
                       0.94168                      -0.21780                      -4.69589
                       0.77879                      -0.31989                      -7.08572
                       0.54691                      -0.48932                     -10.06373
                       0.21720                      -0.92039                     -13.60101
                      -0.17500                      -1.58797                     -17.08183
                      -0.62566                      -2.38683                     -20.51728
                      -1.12465                      -3.31846                     -23.90755
                      -1.65271                      -4.37854                     -27.25611
                      -2.18470                      -5.54781                     -30.57201
                      -2.69163                      -6.83433                     -33.85793
                      -3.13964                      -8.22994                     -37.12218
                      -3.49776                      -9.72334                     -40.37429
                      -3.74405                     -11.29894                     -43.62405
                      -3.86169                     -12.65897                     -46.33609
                      -3.90070                     -13.77436                     -48.50751
                      -3.90493                     -14.93939                     -50.66158
                      -3.90111                     -15.48930                     -51.75594
        </DataArray>
        <DataArray type="Float32" Name="OrientationX" NumberOfComponents="3" format="ascii">
                       0.97163                      -0.22853                      -0.06093
                       0.97160                      -0.22854                      -0.06136
                       0.97151                      -0.22859                      -0.06261
                       0.97138                      -0.22865                      -0.06433
                       0.97116                      -0.22876                      -0.06717
                       0.97751                      -0.19777                      -0.07316
                       0.98127                      -0.17539                      -0.07966
                       0.98392                      -0.15584                      -0.08728
                       0.98610                      -0.13516                      -0.09663
                       0.98760                      -0.11389                      -0.10806
                       0.98809                      -0.09383                      -0.12192
                       0.98768                      -0.07398                      -0.13787
                       0.98628                      -0.05607                      -0.15527
                       0.98402                      -0.04264                      -0.17288
                       0.98150                      -0.02939                      -0.18917
                       0.97967                      -0.01820                      -0.19980
                       0.97872                      -0.00979                      -0.20499
                       0.97830                      -0.00526                      -0.20713
                       0.97835                      -0.00525                      -0.20691
        </DataArray>
        <DataArray type="Float32" Name="OrientationY" NumberOfComponents="3" format="ascii">
                       0.22552                       0.97283                      -0.05244
                       0.22551                       0.97282                      -0.05259
                       0.22548                       0.97281                      -0.05295
                       0.22545                       0.97279                      -0.05339
                       0.22540                       0.97277                      -0.05406
                       0.19424                       0.97954                      -0.05274
                       0.17162                       0.98379                      -0.05195
                       0.15179                       0.98708                      -0.05125
                       0.13079                       0.99014                      -0.05024
                       0.10914                       0.99282                      -0.04890
                       0.08864                       0.99494                      -0.04736
                       0.06831                       0.99663                      -0.04547
                       0.04989                       0.99781                      -0.04341
                       0.03595                       0.99848                      -0.04166
                       0.02228                       0.99897                      -0.03959
                       0.01090                       0.99923                      -0.03759
                       0.00246                       0.99935                      -0.03594
                      -0.00205                       0.99938                      -0.03503
                      -0.00205                       0.99938                      -0.03503
        </DataArray>
        <DataArray type="Float32" Name="OrientationZ" NumberOfComponents="3" format="ascii">
                       0.07125                       0.03721                       0.99676
                       0.07171                       0.03725                       0.99673
                       0.07301                       0.03732                       0.99663
                       0.07479                       0.03736                       0.99650
                       0.07771                       0.03736                       0.99628
                       0.08210                       0.03735                       0.99592
                       0.08748                       0.03731                       0.99547
                       0.09414                       0.03718                       0.99487
                       0.10247                       0.03690                       0.99405
                       0.11285                       0.03650                       0.99294
                       0.12574                       0.03599                       0.99141
                       0.14077                       0.03549                       0.98941
                       0.15736                       0.03507                       0.98692
                       0.17440                       0.03478                       0.98406
                       0.19014                       0.03465                       0.98115
                       0.20033                       0.03465                       0.97912
                       0.20521                       0.03467                       0.97810
                       0.20719                       0.03469                       0.97769
                       0.20697                       0.03469                       0.97773
        </DataArray>
      </PointData>
      <Lines>
        <DataArray type="Int32" Name="connectivity" format="ascii">
      0      1
      1      2
      2      3
      3      4
      4      5
      5      6
      6      7
      7      8
      8      9
      9     10
     10     11
     11     12
     12     13
     13     14
     14     15
     15     16
     16     17
     17     18
        </DataArray>
        <DataArray type="Int32" Name="offsets" format="ascii">
      2
      4
      6
      8
     10
     12
     14
     16
     18
     20
     22
     24
     26
     28
     30
     32
     34
     36
        </DataArray>
      </Lines>
    </Piece>
  </PolyData>
</VTKFile>
