<?xml version="1.0"?>
<VTKFile type="PolyData" version="0.1" byte_order="LittleEndian">
  <PolyData>
    <Piece NumberOfPoints="     19" NumberOfVerts="  0" NumberOfLines="     18"
           NumberOfStrips="  0" NumberOfPolys="      0">
      <Points>
        <DataArray type="Float32" NumberOfComponents="3" format="ascii">
                       3.29363                      -2.05599                      92.73614
                       3.49501                      -4.28600                      95.57759
                       3.70399                      -6.51873                      98.41636
                       3.92360                      -8.75505                     101.25149
                       4.15645                     -10.99544                     104.08235
                       4.40535                     -13.24014                     106.90841
                       4.67356                     -15.48934                     109.72912
                       4.96503                     -17.74314                     112.54384
                       5.28435                     -20.00152                     115.35184
                       5.63655                     -22.26429                     118.15236
                       6.02666                     -24.53102                     120.94462
                       6.45906                     -26.80101                     123.72798
                       6.93663                     -29.07337                     126.50202
                       7.45969                     -31.34712                     129.26672
                       8.02475                     -33.62136                     132.02279
                       8.62308                     -35.89544                     134.77203
                       9.23897                     -38.16926                     137.51765
                       9.54885                     -39.30613                     138.89005
                       3.19442                      -0.94153                      91.31488
        </DataArray>
      </Points>
      <PointData>
        <DataArray type="Float32" Name="TranslationalVelocity" NumberOfComponents="3" format="ascii">
                       0.12784                      -2.40651                      -1.80008
                      -0.09127                      -5.02619                      -3.84051
                      -0.31388                      -7.65034                      -5.88806
                      -0.54094                     -10.27991                      -7.94464
                      -0.77292                     -12.91552                     -10.01143
                      -1.01007                     -15.55745                     -12.08900
                      -1.25268                     -18.20564                     -14.17755
                      -1.50125                     -20.85974                     -16.27700
                      -1.75640                     -23.51924                     -18.38692
                      -2.01893                     -26.18354                     -20.50660
                      -2.28971                     -28.85203                     -22.63499
                      -2.56954                     -31.52412                     -24.77074
                      -2.85902                     -34.19926                     -26.91223
                      -3.15828                     -36.87687                     -29.05774
                      -3.46676                     -39.55642                     -31.20559
                      -3.78286                     -42.23737                     -33.35444
                      -4.10364                     -44.91918                     -35.50353
                      -4.26474                     -46.26022                     -36.57809
                       0.23667                      -1.09763                      -0.78134
        </DataArray>
        <DataArray type="Float32" Name="RotationalVelocity" NumberOfComponents="3" format="ascii">
                       0.91299                       0.01257                      -0.11368
                       0.91476                       0.01205                      -0.11420
                       0.91716                       0.01133                      -0.11494
                       0.91996                       0.01049                      -0.11579
                       0.92298                       0.00960                      -0.11669
                       0.92608                       0.00868                      -0.11763
                       0.92913                       0.00768                      -0.11862
                       0.93205                       0.00655                      -0.11971
                       0.93478                       0.00526                      -0.12091
                       0.93730                       0.00376                      -0.12226
                       0.93958                       0.00205                      -0.12375
                       0.94162                       0.00015                      -0.12538
                       0.94339                      -0.00188                      -0.12710
                       0.94488                      -0.00391                      -0.12880
                       0.94605                      -0.00577                      -0.13033
                       0.94681                      -0.00718                      -0.13149
                       0.94707                      -0.00779                      -0.13198
                       0.94705                      -0.00784                      -0.13203
                       0.91229                       0.01276                      -0.11348
        </DataArray>
        <DataArray type="Float32" Name="TranslationalAcceleration" NumberOfComponents="3" format="ascii">
                      -0.44867                       1.93796                      -2.02715
                      -0.80308                       4.04701                      -4.24417
                      -1.19003                       6.15196                      -6.48016
                      -1.62097                       8.25249                      -8.73880
                      -2.10463                      10.34827                     -11.02212
                      -2.64715                      12.43871                     -13.33088
                      -3.25243                      14.52325                     -15.66459
                      -3.92223                      16.60128                     -18.02174
                      -4.65610                      18.67181                     -20.40031
                      -5.45145                      20.73350                     -22.79800
                      -6.30358                      22.78473                     -25.21249
                      -7.20572                      24.82375                     -27.64158
                      -8.14901                      26.84905                     -30.08334
                      -9.12263                      28.85992                     -32.53617
                     -10.11377                      30.85703                     -34.99886
                     -11.10771                      32.84313                     -37.47051
                     -12.08787                      34.82370                     -39.95007
                     -12.57232                      35.81347                     -41.19167
                      -0.27800                       0.88246                      -0.92278
        </DataArray>
        <DataArray type="Float32" Name="RotationalAcceleration" NumberOfComponents="3" format="ascii">
                      -0.07952                      -0.00628                      -0.00008
                      -0.07517                      -0.01159                      -0.00454
                      -0.06957                      -0.01955                      -0.01117
                      -0.06330                      -0.02965                      -0.01951
                      -0.05657                      -0.04130                      -0.02911
                      -0.04962                      -0.05403                      -0.03956
                      -0.04271                      -0.06739                      -0.05051
                      -0.03593                      -0.08093                      -0.06159
                      -0.02931                      -0.09419                      -0.07244
                      -0.02285                      -0.10671                      -0.08270
                      -0.01660                      -0.11803                      -0.09200
                      -0.01060                      -0.12770                      -0.09999
                      -0.00496                      -0.13528                      -0.10632
                       0.00015                      -0.14033                      -0.11063
                       0.00447                      -0.14243                      -0.11257
                       0.00766                      -0.14115                      -0.11180
                       0.00923                      -0.13613                      -0.10797
                       0.00955                      -0.13264                      -0.10526
                      -0.08128                      -0.00435                       0.00155
        </DataArray>
        <DataArray type="Float32" Name="OrientationX" NumberOfComponents="3" format="ascii">
                       0.95123                      -0.20699                      -0.22871
                       0.95113                      -0.20587                      -0.23013
                       0.95097                      -0.20412                      -0.23236
                       0.95471                      -0.19176                      -0.22751
                       0.96298                      -0.16538                      -0.21286
                       0.96710                      -0.14860                      -0.20650
                       0.97086                      -0.13099                      -0.20070
                       0.97438                      -0.11181                      -0.19512
                       0.97744                      -0.09157                      -0.19035
                       0.97977                      -0.07106                      -0.18707
                       0.98149                      -0.04990                      -0.18489
                       0.98250                      -0.02884                      -0.18401
                       0.98260                      -0.01007                      -0.18547
                       0.98223                       0.00723                      -0.18753
                       0.98184                       0.02352                      -0.18827
                       0.98173                       0.03766                      -0.18651
                       0.98204                       0.04519                      -0.18317
                       0.98234                       0.04674                      -0.18119
                       0.95127                      -0.20736                      -0.22824
        </DataArray>
        <DataArray type="Float32" Name="OrientationY" NumberOfComponents="3" format="ascii">
                       0.30355                       0.75997                       0.57472
                       0.30357                       0.75978                       0.57496
                       0.30359                       0.75952                       0.57529
                       0.29094                       0.76186                       0.57873
                       0.26126                       0.76707                       0.58596
                       0.24424                       0.76952                       0.59008
                       0.22694                       0.77169                       0.59413
                       0.20858                       0.77368                       0.59826
                       0.18993                       0.77532                       0.60233
                       0.17205                       0.77654                       0.60613
                       0.15440                       0.77737                       0.60980
                       0.13769                       0.77781                       0.61324
                       0.12425                       0.77787                       0.61602
                       0.11236                       0.77771                       0.61850
                       0.10045                       0.77738                       0.62096
                       0.08862                       0.77691                       0.62334
                       0.08081                       0.77654                       0.62486
                       0.07840                       0.77643                       0.62531
                       0.30355                       0.76004                       0.57463
        </DataArray>
        <DataArray type="Float32" Name="OrientationZ" NumberOfComponents="3" format="ascii">
                       0.05485                      -0.61612                       0.78574
                       0.05648                      -0.61673                       0.78515
                       0.05905                      -0.61763                       0.78425
                       0.06235                      -0.61871                       0.78314
                       0.06638                      -0.61988                       0.78188
                       0.07122                      -0.62110                       0.78049
                       0.07705                      -0.62236                       0.77893
                       0.08406                      -0.62364                       0.77718
                       0.09242                      -0.62489                       0.77522
                       0.10220                      -0.62605                       0.77305
                       0.11330                      -0.62706                       0.77069
                       0.12544                      -0.62784                       0.76817
                       0.13807                      -0.62835                       0.76558
                       0.15031                      -0.62859                       0.76308
                       0.16096                      -0.62859                       0.76090
                       0.16838                      -0.62848                       0.75938
                       0.17048                      -0.62844                       0.75894
                       0.16991                      -0.62847                       0.75905
                       0.05431                      -0.61591                       0.78595
        </DataArray>
      </PointData>
      <Lines>
        <DataArray type="Int32" Name="connectivity" format="ascii">
      0      1
      1      2
      2      3
      3      4
      4      5
      5      6
      6      7
      7      8
      8      9
      9     10
     10     11
     11     12
     12     13
     13     14
     14     15
     15     16
     16     17
     18      0
        </DataArray>
        <DataArray type="Int32" Name="offsets" format="ascii">
      2
      4
      6
      8
     10
     12
     14
     16
     18
     20
     22
     24
     26
     28
     30
     32
     34
     36
        </DataArray>
      </Lines>
    </Piece>
  </PolyData>
</VTKFile>
