<?xml version="1.0"?>
<VTKFile type="PolyData" version="0.1" byte_order="LittleEndian">
  <PolyData>
    <Piece NumberOfPoints="     17" NumberOfVerts="  0" NumberOfLines="      0"
           NumberOfStrips="  0" NumberOfPolys="      0">
      <Points>
        <DataArray type="Float32" NumberOfComponents="3" format="ascii">
                       2.61518                       0.27169                      86.90790
                       2.00732                       0.60785                      83.35756
                       1.40708                       0.94630                      79.80615
                       0.81745                       1.28781                      76.25326
                       0.24099                       1.63283                      72.69855
                      -0.31968                       1.98157                      69.14168
                      -0.86153                       2.33421                      65.58229
                      -1.38100                       2.69092                      62.01997
                      -1.87395                       3.05179                      58.45430
                      -2.33591                       3.41677                      54.88492
                      -2.76243                       3.78562                      51.31154
                      -3.14969                       4.15794                      47.73406
                      -3.49523                       4.53314                      44.15260
                      -3.79894                       4.91056                      40.56756
                      -4.06418                       5.28948                      36.97961
                      -4.29918                       5.66920                      33.38960
                      -4.51851                       6.04922                      29.79859
        </DataArray>
      </Points>
      <PointData>
        <DataArray type="Float32" Name="Force" NumberOfComponents="3" format="ascii">
                     134.49668                     -61.01569                     -28.86563
                     452.12130                    -208.95884                     -96.18523
                    1627.04584                     570.48214                    -216.60053
                    2780.72345                     985.03403                    -360.43259
                    1742.08555                     545.07527                    -226.57412
                    3902.11937                    1077.60346                    -504.54961
                    4898.60186                    1171.60041                    -621.07519
                    5605.07161                    1151.43642                    -686.84480
                    6213.61853                    1121.39219                    -722.92334
                    8103.57353                    1287.19520                    -880.45259
                    9657.84623                    1370.15249                    -956.16530
                   11491.10815                    1518.13482                   -1008.40693
                    6782.35952                     851.96098                    -536.19939
                   13880.65344                    1654.66498                    -977.91289
                   13854.04985                    1549.43191                    -847.93144
                   20648.92130                    2094.74937                   -1126.90918
                    8590.18694                     689.31925                    -463.24395
        </DataArray>
        <DataArray type="Float32" Name="Moment" NumberOfComponents="3" format="ascii">
                     -17.31034                     -17.09310                      -2.19251
                      81.33008                    -289.30886                     -87.39135
                     628.17713                   -1649.39909                    -464.13644
                     642.47630                   -2218.70882                    -607.13293
                      27.05128                    -189.17269                    -118.81558
                    -537.82509                    1797.28790                     255.28379
                    -305.34799                    1218.67542                     585.05659
                      61.30801                     -88.29208                    1102.73970
                     195.03865                    -816.06346                    1110.54136
                     281.46855                   -1687.19495                     901.89043
                     564.39038                   -4071.92824                     446.58206
                     904.79535                   -7454.93219                    -571.28730
                     -57.93966                     424.47728                      51.09106
                   -1061.22130                    9166.91255                     956.20736
                    -970.34214                    8726.64485                     759.03731
                    -250.92597                    1067.85124                    -363.22649
                    -136.17130                    -134.43475                      27.61993
        </DataArray>
      </PointData>
    </Piece>
  </PolyData>
</VTKFile>
