<?xml version="1.0"?>
<VTKFile type="PolyData" version="0.1" byte_order="LittleEndian">
  <PolyData>
    <Piece NumberOfPoints="     19" NumberOfVerts="  0" NumberOfLines="     18"
           NumberOfStrips="  0" NumberOfPolys="      0">
      <Points>
        <DataArray type="Float32" NumberOfComponents="3" format="ascii">
                       2.59232                       1.04262                      89.09251
                       2.41994                       2.01305                      88.14571
                       2.06198                       4.01980                      86.32174
                       1.70094                       6.05752                      84.52963
                       1.25315                       8.62308                      82.30696
                       0.76940                      11.60151                      79.52799
                       0.31665                      14.48761                      76.64998
                      -0.11625                      17.37071                      73.76596
                      -0.52116                      20.24993                      70.87407
                      -0.89110                      23.12698                      67.97545
                      -1.22335                      26.00464                      65.07302
                      -1.50417                      28.88171                      62.16470
                      -1.72590                      31.75758                      59.25020
                      -1.88402                      34.63136                      56.32961
                      -1.97737                      37.50219                      53.40339
                      -2.01294                      39.89203                      50.96140
                      -2.02065                      41.79672                      49.00064
                      -2.02719                      43.66196                      47.00081
                      -2.02727                      44.62405                      46.03019
        </DataArray>
      </Points>
      <PointData>
        <DataArray type="Float32" Name="Force" NumberOfComponents="3" format="ascii">
                      -0.03086                      -0.26109                      -0.26070
                      65.49599                      -7.22976                     -19.23119
                      84.30902                     -27.85510                     -43.51861
                      74.76609                     -42.84260                     -56.89960
                     836.98490                     267.97577                     128.30688
                    1051.25624                     295.80502                     125.56288
                    1235.57047                     294.15956                     101.66300
                    1589.96174                     323.55145                      88.55499
                    1750.36990                     298.58207                      57.82484
                    2020.82645                     288.99647                      37.45483
                    2474.26595                     286.35038                      19.05203
                    2826.28463                     256.34073                       5.79108
                    3267.88175                     229.42467                      10.30469
                    3563.83308                     170.21146                      10.79253
                    3822.76339                     101.36904                       9.81498
                    3972.55272                      39.96891                      -1.27018
                    3890.37394                      -7.00087                     -21.82456
                    2857.93585                     -25.21643                     -28.24787
                    1350.55368                     -93.03953                     -94.68674
        </DataArray>
        <DataArray type="Float32" Name="Moment" NumberOfComponents="3" format="ascii">
                       0.00000                       0.00000                       0.00000
                       0.00000                       0.00000                       0.00000
                       0.00000                       0.00000                       0.00000
                       0.00000                       0.00000                       0.00000
                      40.77344                    -240.23327                     235.76241
                      50.23351                    -306.14367                     300.65055
                      62.89549                    -400.08570                     393.23278
                      81.87945                    -550.64265                     541.76537
                     100.08530                    -725.05935                     714.28511
                     102.53196                    -822.09166                     811.17136
                      93.44956                    -864.32513                     854.54235
                      81.70076                    -921.42016                     913.11251
                      57.42005                    -856.08333                     850.55306
                      38.68482                    -864.58135                     861.28128
                      20.37371                    -850.56376                     849.41037
                       8.50707                    -819.47830                     819.68355
                       2.80400                    -734.77970                     735.53472
                       0.39987                    -372.28864                     372.79201
                       0.41702                    -317.73981                     318.16047
        </DataArray>
        <DataArray type="Float32" Name="TranslationalVelocity" NumberOfComponents="3" format="ascii">
                      -0.44309                       0.95619                       0.94760
                      -0.32435                       1.85024                       1.84234
                      -0.08007                       3.57686                       3.69428
                       0.16875                       5.27901                       5.58042
                       0.48494                       7.39835                       7.96540
                       0.86124                      10.05391                      10.75051
                       1.23796                      12.81746                      13.46744
                       1.62526                      15.60394                      16.19959
                       2.02257                      18.41371                      18.94573
                       2.42759                      21.24362                      21.70672
                       2.83630                      24.08743                      24.48276
                       3.24370                      26.94554                      27.27359
                       3.64314                      29.81572                      30.07762
                       4.02791                      32.69597                      32.89269
                       4.39249                      35.58435                      35.71610
                       4.67934                      37.99623                      38.07306
                       4.89680                      39.93376                      39.95470
                       5.10164                      41.91115                      41.79856
                       5.20595                      42.87072                      42.74972
        </DataArray>
        <DataArray type="Float32" Name="RotationalVelocity" NumberOfComponents="3" format="ascii">
                       0.92335                      -0.01282                      -0.10960
                       0.92429                      -0.01286                      -0.10981
                       0.92661                      -0.01298                      -0.11036
                       0.92947                      -0.01318                      -0.11108
                       0.93383                      -0.01361                      -0.11232
                       0.93978                      -0.01447                      -0.11428
                       0.94604                      -0.01565                      -0.11661
                       0.95227                      -0.01692                      -0.11904
                       0.95826                      -0.01799                      -0.12122
                       0.96386                      -0.01858                      -0.12283
                       0.96896                      -0.01830                      -0.12348
                       0.97362                      -0.01703                      -0.12303
                       0.97782                      -0.01472                      -0.12144
                       0.98153                      -0.01147                      -0.11880
                       0.98463                      -0.00760                      -0.11541
                       0.98657                      -0.00432                      -0.11242
                       0.98757                      -0.00203                      -0.11026
                       0.98810                      -0.00012                      -0.10841
                       0.98817                       0.00064                      -0.10764
        </DataArray>
        <DataArray type="Float32" Name="TranslationalAcceleration" NumberOfComponents="3" format="ascii">
                       0.73884                      -1.05299                       1.05824
                       0.80601                      -1.84250                       1.94145
                       0.94086                      -3.48336                       3.65735
                       1.09403                      -5.15705                       5.36019
                       1.32569                      -7.27393                       7.49617
                       1.69217                      -9.73095                      10.18123
                       2.17356                     -12.11033                      12.98991
                       2.76029                     -14.49968                      15.84838
                       3.42333                     -16.90374                      18.75674
                       4.10352                     -19.33084                      21.71233
                       4.72872                     -21.78581                      24.70745
                       5.19710                     -24.27253                      27.74742
                       5.39831                     -26.78609                      30.83191
                       5.23183                     -29.31414                      33.95876
                       4.62995                     -31.83926                      37.12221
                       3.79725                     -33.92989                      39.78042
                       2.92839                     -35.58314                      41.92363
                       1.93883                     -37.18597                      44.10964
                       1.42446                     -38.01804                      45.17760
        </DataArray>
        <DataArray type="Float32" Name="OrientationX" NumberOfComponents="3" format="ascii">
                       0.98114                       0.19244                       0.01805
                       0.98119                       0.19217                       0.01832
                       0.98133                       0.19138                       0.01909
                       0.98152                       0.19030                       0.02016
                       0.98183                       0.18850                       0.02192
                       0.98646                       0.16397                       0.00169
                       0.98940                       0.14476                      -0.01150
                       0.99171                       0.12664                      -0.02174
                       0.99380                       0.10655                      -0.03166
                       0.99559                       0.08458                      -0.04062
                       0.99699                       0.06171                      -0.04702
                       0.99795                       0.03747                      -0.05180
                       0.99845                       0.01347                      -0.05408
                       0.99858                      -0.00772                      -0.05278
                       0.99825                      -0.02797                      -0.05207
                       0.99765                      -0.04296                      -0.05338
                       0.99705                      -0.05234                      -0.05612
                       0.99669                      -0.05697                      -0.05797
                       0.99669                      -0.05685                      -0.05809
        </DataArray>
        <DataArray type="Float32" Name="OrientationY" NumberOfComponents="3" format="ascii">
                       0.14643                      -0.67911                      -0.71929
                       0.14646                      -0.67926                      -0.71913
                       0.14653                      -0.67964                      -0.71876
                       0.14661                      -0.68011                      -0.71830
                       0.14673                      -0.68082                      -0.71760
                       0.11549                      -0.68742                      -0.71702
                       0.09293                      -0.69199                      -0.71590
                       0.07318                      -0.69574                      -0.71455
                       0.05225                      -0.69922                      -0.71300
                       0.03064                      -0.70225                      -0.71127
                       0.01016                      -0.70464                      -0.70949
                      -0.01021                      -0.70646                      -0.70768
                      -0.02869                      -0.70764                      -0.70599
                      -0.04273                      -0.70828                      -0.70464
                      -0.05654                      -0.70850                      -0.70344
                      -0.06809                      -0.70836                      -0.70256
                      -0.07668                      -0.70806                      -0.70198
                      -0.08127                      -0.70785                      -0.70167
                      -0.08127                      -0.70785                      -0.70167
        </DataArray>
        <DataArray type="Float32" Name="OrientationZ" NumberOfComponents="3" format="ascii">
                      -0.12616                       0.70837                      -0.69448
                      -0.12575                       0.70829                      -0.69463
                      -0.12458                       0.70814                      -0.69500
                      -0.12298                       0.70798                      -0.69544
                      -0.12035                       0.70778                      -0.69611
                      -0.11641                       0.70751                      -0.69705
                      -0.11160                       0.70724                      -0.69811
                      -0.10562                       0.70704                      -0.69924
                      -0.09810                       0.70692                      -0.70045
                      -0.08868                       0.70689                      -0.70175
                      -0.07691                       0.70687                      -0.70315
                      -0.06311                       0.70676                      -0.70463
                      -0.04778                       0.70645                      -0.70615
                      -0.03194                       0.70589                      -0.70760
                      -0.01722                       0.70516                      -0.70884
                      -0.00763                       0.70455                      -0.70962
                      -0.00299                       0.70421                      -0.70999
                      -0.00106                       0.70406                      -0.71014
                      -0.00123                       0.70407                      -0.71013
        </DataArray>
      </PointData>
      <Lines>
        <DataArray type="Int32" Name="connectivity" format="ascii">
      0      1
      1      2
      2      3
      3      4
      4      5
      5      6
      6      7
      7      8
      8      9
      9     10
     10     11
     11     12
     12     13
     13     14
     14     15
     15     16
     16     17
     17     18
        </DataArray>
        <DataArray type="Int32" Name="offsets" format="ascii">
      2
      4
      6
      8
     10
     12
     14
     16
     18
     20
     22
     24
     26
     28
     30
     32
     34
     36
        </DataArray>
      </Lines>
    </Piece>
  </PolyData>
</VTKFile>
