<?xml version="1.0"?>
<VTKFile type="PolyData" version="0.1" byte_order="LittleEndian">
  <PolyData>
    <Piece NumberOfPoints="     19" NumberOfVerts="  0" NumberOfLines="     18"
           NumberOfStrips="  0" NumberOfPolys="      0">
      <Points>
        <DataArray type="Float32" NumberOfComponents="3" format="ascii">
                       3.22699                      -2.98736                      91.64415
                       3.28141                      -6.21772                      93.27178
                       3.34347                      -9.44951                      94.89628
                       3.41619                     -12.68320                      96.51655
                       3.50216                     -15.91906                      98.13183
                       3.60409                     -19.15722                      99.74157
                       3.72508                     -22.39773                     101.34520
                       3.86875                     -25.64065                     102.94210
                       4.03927                     -28.88589                     104.53160
                       4.24118                     -32.13323                     106.11308
                       4.47891                     -35.38228                     107.68604
                       4.75630                     -38.63245                     109.25015
                       5.07576                     -41.88301                     110.80539
                       5.43733                     -45.13323                     112.35215
                       5.83752                     -48.38253                     113.89141
                       6.26798                     -51.63068                     115.42499
                       6.71399                     -54.87812                     116.95570
                       6.93860                     -56.50176                     117.72077
                       3.20126                      -1.37247                      90.82971
        </DataArray>
      </Points>
      <PointData>
        <DataArray type="Float32" Name="TranslationalVelocity" NumberOfComponents="3" format="ascii">
                      -0.48718                      -1.41731                      -2.70495
                      -0.86920                      -2.92461                      -5.68372
                      -1.24999                      -4.43059                      -8.66516
                      -1.62902                      -5.93475                     -11.65013
                      -2.00579                      -7.43680                     -14.63913
                      -2.37959                      -8.93662                     -17.63250
                      -2.74927                     -10.43407                     -20.63057
                      -3.11323                     -11.92901                     -23.63372
                      -3.46938                     -13.42128                     -26.64228
                      -3.81524                     -14.91069                     -29.65647
                      -4.14808                     -16.39703                     -32.67639
                      -4.46532                     -17.88003                     -35.70185
                      -4.76482                     -19.35942                     -38.73245
                      -5.04547                     -20.83501                     -41.76755
                      -5.30779                     -22.30687                     -44.80631
                      -5.55460                     -23.77560                     -47.84769
                      -5.79190                     -25.24260                     -50.89055
                      -5.90914                     -25.97589                     -52.41220
                      -0.29594                      -0.66341                      -1.21611
        </DataArray>
        <DataArray type="Float32" Name="RotationalVelocity" NumberOfComponents="3" format="ascii">
                       0.92195                      -0.00047                      -0.11819
                       0.92229                      -0.00033                      -0.11793
                       0.92279                      -0.00011                      -0.11750
                       0.92338                       0.00017                      -0.11696
                       0.92403                       0.00053                      -0.11627
                       0.92474                       0.00100                      -0.11536
                       0.92553                       0.00164                      -0.11411
                       0.92641                       0.00252                      -0.11241
                       0.92739                       0.00368                      -0.11013
                       0.92845                       0.00517                      -0.10721
                       0.92958                       0.00700                      -0.10362
                       0.93072                       0.00913                      -0.09944
                       0.93184                       0.01146                      -0.09485
                       0.93287                       0.01384                      -0.09015
                       0.93373                       0.01603                      -0.08584
                       0.93433                       0.01770                      -0.08256
                       0.93456                       0.01840                      -0.08118
                       0.93457                       0.01845                      -0.08109
                       0.92183                      -0.00051                      -0.11826
        </DataArray>
        <DataArray type="Float32" Name="TranslationalAcceleration" NumberOfComponents="3" format="ascii">
                      -1.44898                       2.91224                      -1.01260
                      -1.63791                       5.80262                      -2.20679
                      -1.86230                       8.65706                      -3.47677
                      -2.13173                      11.46699                      -4.84084
                      -2.45091                      14.22713                      -6.31015
                      -2.81580                      16.93427                      -7.89185
                      -3.21241                      19.58674                      -9.59064
                      -3.61581                      22.18414                     -11.41008
                      -3.98995                      24.72728                     -13.35338
                      -4.28946                      27.21859                     -15.42350
                      -4.46304                      29.66269                     -17.62272
                      -4.45827                      32.06682                     -19.95184
                      -4.22822                      34.44084                     -22.40912
                      -3.73965                      36.79641                     -24.98878
                      -2.98257                      39.14517                     -27.67860
                      -1.98153                      41.49604                     -30.45675
                      -0.80862                      43.85208                     -33.28855
                      -0.19162                      45.03131                     -34.71263
                      -1.36206                       1.45940                      -0.43159
        </DataArray>
        <DataArray type="Float32" Name="RotationalAcceleration" NumberOfComponents="3" format="ascii">
                      -0.07062                      -0.00459                       0.00324
                      -0.05046                      -0.00811                      -0.00435
                      -0.02308                      -0.01287                      -0.01461
                       0.00863                      -0.01865                      -0.02702
                       0.04307                      -0.02449                      -0.03965
                       0.07924                      -0.02922                      -0.05011
                       0.11654                      -0.03155                      -0.05586
                       0.15470                      -0.03004                      -0.05403
                       0.19351                      -0.02337                      -0.04199
                       0.23268                      -0.01055                      -0.01777
                       0.27165                       0.00891                       0.01959
                       0.30959                       0.03477                       0.06969
                       0.34544                       0.06588                       0.13026
                       0.37776                       0.09997                       0.19682
                       0.40458                       0.13347                       0.26238
                       0.42339                       0.16129                       0.31695
                       0.43124                       0.17662                       0.34708
                       0.43202                       0.18019                       0.35412
                      -0.07843                      -0.00311                       0.00641
        </DataArray>
        <DataArray type="Float32" Name="OrientationX" NumberOfComponents="3" format="ascii">
                       0.94070                      -0.14069                      -0.30868
                       0.94068                      -0.13908                      -0.30949
                       0.94063                      -0.13657                      -0.31075
                       0.94498                      -0.12765                      -0.30118
                       0.95454                      -0.11044                      -0.27686
                       0.95950                      -0.09821                      -0.26404
                       0.96415                      -0.08503                      -0.25135
                       0.96867                      -0.07041                      -0.23816
                       0.97279                      -0.05457                      -0.22519
                       0.97623                      -0.03794                      -0.21339
                       0.97912                      -0.02039                      -0.20224
                       0.98135                      -0.00246                      -0.19224
                       0.98259                       0.01433                      -0.18526
                       0.98331                       0.03002                      -0.17942
                       0.98395                       0.04428                      -0.17284
                       0.98472                       0.05570                      -0.16498
                       0.98547                       0.06077                      -0.15863
                       0.98583                       0.06125                      -0.15616
                       0.94071                      -0.14123                      -0.30841
        </DataArray>
        <DataArray type="Float32" Name="OrientationY" NumberOfComponents="3" format="ascii">
                       0.33893                       0.42795                       0.83785
                       0.33893                       0.42781                       0.83791
                       0.33894                       0.42763                       0.83801
                       0.32639                       0.42918                       0.84219
                       0.29696                       0.43264                       0.85126
                       0.28005                       0.43425                       0.85615
                       0.26285                       0.43566                       0.86088
                       0.24458                       0.43691                       0.86561
                       0.22600                       0.43790                       0.87015
                       0.20814                       0.43855                       0.87427
                       0.19051                       0.43890                       0.87811
                       0.17379                       0.43893                       0.88155
                       0.16031                       0.43870                       0.88422
                       0.14837                       0.43831                       0.88649
                       0.13641                       0.43776                       0.88869
                       0.12451                       0.43708                       0.89076
                       0.11667                       0.43658                       0.89207
                       0.11425                       0.43643                       0.89245
                       0.33893                       0.42800                       0.83782
        </DataArray>
        <DataArray type="Float32" Name="OrientationZ" NumberOfComponents="3" format="ascii">
                       0.01422                      -0.89279                       0.45026
                       0.01587                      -0.89310                       0.44957
                       0.01844                      -0.89358                       0.44853
                       0.02175                      -0.89415                       0.44723
                       0.02577                      -0.89478                       0.44577
                       0.03058                      -0.89542                       0.44417
                       0.03630                      -0.89608                       0.44240
                       0.04311                      -0.89674                       0.44045
                       0.05113                      -0.89737                       0.43832
                       0.06041                      -0.89790                       0.43603
                       0.07086                      -0.89830                       0.43362
                       0.08221                      -0.89852                       0.43117
                       0.09394                      -0.89852                       0.42877
                       0.10525                      -0.89832                       0.42654
                       0.11502                      -0.89800                       0.42469
                       0.12173                      -0.89770                       0.42347
                       0.12346                      -0.89761                       0.42315
                       0.12281                      -0.89765                       0.42325
                       0.01368                      -0.89268                       0.45049
        </DataArray>
      </PointData>
      <Lines>
        <DataArray type="Int32" Name="connectivity" format="ascii">
      0      1
      1      2
      2      3
      3      4
      4      5
      5      6
      6      7
      7      8
      8      9
      9     10
     10     11
     11     12
     12     13
     13     14
     14     15
     15     16
     16     17
     18      0
        </DataArray>
        <DataArray type="Int32" Name="offsets" format="ascii">
      2
      4
      6
      8
     10
     12
     14
     16
     18
     20
     22
     24
     26
     28
     30
     32
     34
     36
        </DataArray>
      </Lines>
    </Piece>
  </PolyData>
</VTKFile>
