<?xml version="1.0"?>
<VTKFile type="PolyData" version="0.1" byte_order="LittleEndian">
  <PolyData>
    <Piece NumberOfPoints="     17" NumberOfVerts="  0" NumberOfLines="      0"
           NumberOfStrips="  0" NumberOfPolys="      0">
      <Points>
        <DataArray type="Float32" NumberOfComponents="3" format="ascii">
                       2.54914                      -3.22002                      89.32948
                       2.29106                      -6.71878                      88.44662
                       2.04081                     -10.21688                      87.55891
                       1.80153                     -13.71410                      86.66478
                       1.57599                     -17.21033                      85.76320
                       1.36722                     -20.70547                      84.85346
                       1.17888                     -24.19946                      83.93487
                       1.01541                     -27.69216                      83.00671
                       0.88211                     -31.18340                      82.06831
                       0.78483                     -34.67289                      81.11913
                       0.72950                     -38.16026                      80.15888
                       0.72140                     -41.64501                      79.18764
                       0.76417                     -45.12657                      78.20592
                       0.85856                     -48.60446                      77.21474
                       1.00098                     -52.07851                      76.21567
                       1.18176                     -55.54921                      75.21090
                       1.38322                     -59.01799                      74.20326
        </DataArray>
      </Points>
      <PointData>
        <DataArray type="Float32" Name="Force" NumberOfComponents="3" format="ascii">
                     214.82141                     -36.04096                      79.80692
                     698.83691                    -105.79354                     221.79195
                    2281.91466                     127.99119                   -1124.80047
                    3758.04112                     231.78924                   -1881.72227
                    2284.75744                     124.69282                   -1043.56694
                    4965.08712                     244.01330                   -2064.80718
                    6036.31705                     276.39490                   -2260.93039
                    6745.70218                     304.63999                   -2273.71022
                    7284.76150                     351.38991                   -2245.44968
                    9251.73085                     498.56052                   -2619.23528
                   10712.54675                     669.96550                   -2803.69751
                   12305.25942                     912.11906                   -3032.11551
                    7103.96690                     591.67673                   -1671.05247
                   14284.62273                    1318.44537                   -3195.11411
                   13926.62874                    1418.83005                   -2929.32163
                   19997.12069                    2160.43870                   -3894.44924
                    8185.66147                     868.80460                   -1418.31085
        </DataArray>
        <DataArray type="Float32" Name="Moment" NumberOfComponents="3" format="ascii">
                     -18.50696                     -10.15107                      25.04101
                     207.02561                    -183.82753                     371.23989
                    1270.53669                   -1030.39848                    2114.89212
                    1348.80036                   -1426.65523                    2695.86379
                      68.71186                    -327.73715                     164.64466
                   -1105.35310                     361.26588                   -2362.14713
                    -719.65960                     582.26495                   -1534.78710
                    -131.18921                     889.29736                      93.41088
                     139.86605                     790.01101                     918.72191
                     381.44606                     385.67525                    1799.97513
                    1061.69682                    -456.55840                    4250.22397
                    1942.66893                   -1930.77341                    7508.92007
                    -136.89168                      95.02371                    -488.24020
                   -2370.14655                    2462.97516                   -9290.67363
                   -2124.05360                    2257.68471                   -8720.87234
                    -445.63342                     172.59992                   -1367.97646
                    -117.13433                      83.54079                     135.26835
        </DataArray>
      </PointData>
    </Piece>
  </PolyData>
</VTKFile>
