<?xml version="1.0"?>
<VTKFile type="PolyData" version="0.1" byte_order="LittleEndian">
  <PolyData>
    <Piece NumberOfPoints="     19" NumberOfVerts="  0" NumberOfLines="     18"
           NumberOfStrips="  0" NumberOfPolys="      0">
      <Points>
        <DataArray type="Float32" NumberOfComponents="3" format="ascii">
                       2.98326                       0.63743                      93.36617
                       3.24594                       1.35745                      96.90169
                       3.51755                       2.07575                     100.43689
                       3.80155                       2.79166                     103.97160
                       4.10082                       3.50482                     107.50559
                       4.41853                       4.21502                     111.03857
                       4.75856                       4.92199                     114.57011
                       5.12578                       5.62539                     118.09963
                       5.52608                       6.32491                     121.62632
                       5.96600                       7.02033                     125.14907
                       6.45224                       7.71160                     128.66653
                       6.99079                       8.39888                     132.17713
                       7.58582                       9.08251                     135.67932
                       8.23833                       9.76300                     139.17192
                       8.94454                      10.44099                     142.65461
                       9.69398                      11.11731                     146.12867
                      10.46736                      11.79285                     149.59772
                      10.85701                      12.13054                     151.33160
                       2.85366                       0.27709                      91.59834
        </DataArray>
      </Points>
      <PointData>
        <DataArray type="Float32" Name="TranslationalVelocity" NumberOfComponents="3" format="ascii">
                      -0.49677                      -3.05374                       0.58049
                      -0.46375                      -6.34715                       1.24875
                      -0.43260                      -9.63082                       1.91355
                      -0.40437                     -12.90230                       2.57388
                      -0.38027                     -16.16008                       3.22927
                      -0.36166                     -19.40344                       3.87959
                      -0.35000                     -22.63220                       4.52484
                      -0.34677                     -25.84657                       5.16512
                      -0.35352                     -29.04697                       5.80071
                      -0.37170                     -32.23386                       6.43214
                      -0.40259                     -35.40760                       7.06017
                      -0.44706                     -38.56850                       7.68584
                      -0.50540                     -41.71676                       8.31031
                      -0.57704                     -44.85282                       8.93469
                      -0.66027                     -47.97768                       9.55980
                      -0.75190                     -51.09353                      10.18599
                      -0.84690                     -54.20431                      10.81273
                      -0.89447                     -55.75905                      11.12611
                      -0.51360                      -1.40498                       0.24565
        </DataArray>
        <DataArray type="Float32" Name="RotationalVelocity" NumberOfComponents="3" format="ascii">
                       0.92464                      -0.01276                      -0.10931
                       0.92217                      -0.01304                      -0.10907
                       0.91880                      -0.01358                      -0.10872
                       0.91483                      -0.01439                      -0.10826
                       0.91056                      -0.01555                      -0.10772
                       0.90618                      -0.01709                      -0.10708
                       0.90181                      -0.01903                      -0.10637
                       0.89758                      -0.02138                      -0.10559
                       0.89356                      -0.02415                      -0.10473
                       0.88981                      -0.02731                      -0.10381
                       0.88636                      -0.03080                      -0.10285
                       0.88327                      -0.03449                      -0.10187
                       0.88057                      -0.03819                      -0.10092
                       0.87831                      -0.04163                      -0.10005
                       0.87656                      -0.04446                      -0.09935
                       0.87542                      -0.04622                      -0.09891
                       0.87502                      -0.04631                      -0.09886
                       0.87503                      -0.04585                      -0.09896
                       0.92559                      -0.01269                      -0.10939
        </DataArray>
        <DataArray type="Float32" Name="TranslationalAcceleration" NumberOfComponents="3" format="ascii">
                       0.40112                      -0.76830                      -2.87675
                      -0.01314                      -1.43846                      -5.90398
                      -0.41570                      -2.06295                      -8.92151
                      -0.80331                      -2.63036                     -11.92691
                      -1.17461                      -3.13389                     -14.91874
                      -1.53287                      -3.56968                     -17.89621
                      -1.88723                      -3.93571                     -20.85869
                      -2.25344                      -4.23120                     -23.80517
                      -2.65403                      -4.45648                     -26.73376
                      -3.11705                      -4.61295                     -29.64112
                      -3.67398                      -4.70331                     -32.52202
                      -4.35654                      -4.73172                     -35.36933
                      -5.19249                      -4.70384                     -38.17463
                      -6.20052                      -4.62670                     -40.92996
                      -7.38425                      -4.50910                     -43.63088
                      -8.72531                      -4.36202                     -46.28084
                     -10.17526                      -4.19883                     -48.89615
                     -10.91927                      -4.11504                     -50.19814
                       0.61077                      -0.42357                      -1.36109
        </DataArray>
        <DataArray type="Float32" Name="RotationalAcceleration" NumberOfComponents="3" format="ascii">
                       0.01937                      -0.01277                       0.00739
                       0.00975                      -0.01041                       0.00761
                      -0.00333                      -0.00733                       0.00793
                      -0.01851                      -0.00345                       0.00824
                      -0.03494                       0.00024                       0.00869
                      -0.05206                       0.00228                       0.00951
                      -0.06946                       0.00100                       0.01104
                      -0.08686                      -0.00551                       0.01363
                      -0.10397                      -0.01900                       0.01763
                      -0.12048                      -0.04079                       0.02327
                      -0.13600                      -0.07146                       0.03065
                      -0.15012                      -0.11062                       0.03966
                      -0.16243                      -0.15659                       0.04993
                      -0.17258                      -0.20612                       0.06077
                      -0.18014                      -0.25415                       0.07112
                      -0.18474                      -0.29349                       0.07948
                      -0.18609                      -0.31455                       0.08387
                      -0.18593                      -0.31915                       0.08480
                       0.02310                      -0.01385                       0.00734
        </DataArray>
        <DataArray type="Float32" Name="OrientationX" NumberOfComponents="3" format="ascii">
                       0.97574                      -0.21722                      -0.02726
                       0.97560                      -0.21761                      -0.02917
                       0.97537                      -0.21822                      -0.03217
                       0.97773                      -0.20625                      -0.03878
                       0.98288                      -0.17739                      -0.04984
                       0.98512                      -0.16142                      -0.05902
                       0.98693                      -0.14543                      -0.06941
                       0.98834                      -0.12868                      -0.08145
                       0.98914                      -0.11197                      -0.09520
                       0.98918                      -0.09638                      -0.11058
                       0.98848                      -0.08137                      -0.12760
                       0.98701                      -0.06755                      -0.14579
                       0.98480                      -0.05713                      -0.16401
                       0.98220                      -0.04817                      -0.18156
                       0.97958                      -0.03883                      -0.19726
                       0.97748                      -0.02882                      -0.20907
                       0.97667                      -0.02162                      -0.21368
                       0.97671                      -0.01912                      -0.21373
                       0.97579                      -0.21709                      -0.02662
        </DataArray>
        <DataArray type="Float32" Name="OrientationY" NumberOfComponents="3" format="ascii">
                       0.20687                       0.95558                      -0.20994
                       0.20686                       0.95557                      -0.21000
                       0.20686                       0.95555                      -0.21009
                       0.19385                       0.95835                      -0.20972
                       0.16346                       0.96428                      -0.20845
                       0.14606                       0.96725                      -0.20760
                       0.12840                       0.96997                      -0.20657
                       0.10970                       0.97254                      -0.20525
                       0.09075                       0.97483                      -0.20366
                       0.07260                       0.97672                      -0.20188
                       0.05474                       0.97830                      -0.19982
                       0.03786                       0.97956                      -0.19757
                       0.02431                       0.98040                      -0.19552
                       0.01235                       0.98103                      -0.19348
                       0.00040                       0.98155                      -0.19121
                      -0.01142                       0.98195                      -0.18878
                      -0.01920                       0.98215                      -0.18710
                      -0.02160                       0.98220                      -0.18657
                       0.20687                       0.95558                      -0.20992
        </DataArray>
        <DataArray type="Float32" Name="OrientationZ" NumberOfComponents="3" format="ascii">
                       0.07165                       0.19921                       0.97733
                       0.07357                       0.19885                       0.97727
                       0.07659                       0.19826                       0.97715
                       0.08042                       0.19753                       0.97699
                       0.08504                       0.19674                       0.97676
                       0.09060                       0.19589                       0.97643
                       0.09737                       0.19496                       0.97597
                       0.10562                       0.19392                       0.97531
                       0.11561                       0.19281                       0.97440
                       0.12746                       0.19167                       0.97315
                       0.14109                       0.19054                       0.97149
                       0.15615                       0.18948                       0.96939
                       0.17196                       0.18856                       0.96689
                       0.18744                       0.18779                       0.96416
                       0.20104                       0.18723                       0.96152
                       0.21074                       0.18692                       0.95951
                       0.21391                       0.18683                       0.95882
                       0.21349                       0.18684                       0.95891
                       0.07101                       0.19933                       0.97736
        </DataArray>
      </PointData>
      <Lines>
        <DataArray type="Int32" Name="connectivity" format="ascii">
      0      1
      1      2
      2      3
      3      4
      4      5
      5      6
      6      7
      7      8
      8      9
      9     10
     10     11
     11     12
     12     13
     13     14
     14     15
     15     16
     16     17
     18      0
        </DataArray>
        <DataArray type="Int32" Name="offsets" format="ascii">
      2
      4
      6
      8
     10
     12
     14
     16
     18
     20
     22
     24
     26
     28
     30
     32
     34
     36
        </DataArray>
      </Lines>
    </Piece>
  </PolyData>
</VTKFile>
