<?xml version="1.0"?>
<VTKFile type="PolyData" version="0.1" byte_order="LittleEndian">
  <PolyData>
    <Piece NumberOfPoints="     17" NumberOfVerts="  0" NumberOfLines="      0"
           NumberOfStrips="  0" NumberOfPolys="      0">
      <Points>
        <DataArray type="Float32" NumberOfComponents="3" format="ascii">
                       3.27901                       2.49881                      92.27792
                       3.42056                       5.27155                      94.59723
                       3.56943                       8.04620                      96.91381
                       3.72833                      10.82311                      99.22700
                       3.89946                      13.60252                     101.53631
                       4.08507                      16.38452                     103.84136
                       4.28804                      19.16904                     106.14192
                       4.51201                      21.95581                     108.43778
                       4.76139                      24.74449                     110.72869
                       5.04117                      27.53468                     113.01422
                       5.35646                      30.32595                     115.29378
                       5.71186                      33.11786                     117.56665
                       6.11059                      35.90996                     119.83208
                       6.55347                      38.70182                     122.08960
                       7.03767                      41.49314                     124.33935
                       7.55521                      44.28385                     126.58250
                       8.09134                      47.07418                     128.82180
        </DataArray>
      </Points>
      <PointData>
        <DataArray type="Float32" Name="Force" NumberOfComponents="3" format="ascii">
                     174.97647                      41.45046                     -60.00143
                     547.97874                     141.32542                    -203.91098
                    2088.94283                    -397.34062                     331.69426
                    3601.44217                    -759.14556                     644.56144
                    2186.04507                    -416.63919                     328.16459
                    4660.67785                    -766.89130                     527.08364
                    5581.29481                    -789.02003                     428.80553
                    6190.02772                    -763.82825                     275.99398
                    6647.03517                    -748.22648                     125.81612
                    8403.64063                    -888.11193                     -35.39429
                    9684.00438                    -996.74556                    -243.78479
                   11074.48008                   -1165.64064                    -465.08966
                    6350.46299                    -682.17638                    -347.96123
                   12628.84572                   -1377.02867                    -863.57912
                   12079.49127                   -1325.01806                   -1024.09436
                   16766.94537                   -1763.17845                   -1746.87986
                    6745.35102                    -610.78532                    -860.82960
        </DataArray>
        <DataArray type="Float32" Name="Moment" NumberOfComponents="3" format="ascii">
                     -19.78222                      16.04067                     -10.62097
                      87.30533                     275.69283                    -238.76895
                     662.81702                    1599.35808                   -1477.24220
                     787.75072                    2340.11344                   -1823.80276
                      43.32547                     378.26386                      16.51108
                    -520.35401                   -1184.15485                    1936.56042
                    -341.79516                   -1056.86452                    1061.66369
                    -178.49559                    -710.33740                    -479.44675
                    -111.50034                    -338.79992                   -1166.79707
                     -73.26647                     292.84884                   -1792.97209
                      32.01133                    1873.27119                   -3540.86688
                     164.99429                    4282.41923                   -5685.11985
                     -24.28223                    -253.64144                     302.14186
                    -193.85186                   -5336.23908                    6650.33029
                     -84.98216                   -4923.09117                    6152.17638
                    -182.63329                    -920.97895                    1056.72217
                    -152.52229                       7.34122                    -323.84323
        </DataArray>
      </PointData>
    </Piece>
  </PolyData>
</VTKFile>
