<?xml version="1.0"?>
<VTKFile type="PolyData" version="0.1" byte_order="LittleEndian">
  <PolyData>
    <Piece NumberOfPoints="     19" NumberOfVerts="  0" NumberOfLines="     18"
           NumberOfStrips="  0" NumberOfPolys="      0">
      <Points>
        <DataArray type="Float32" NumberOfComponents="3" format="ascii">
                       2.32594                       2.77018                      88.39672
                       1.95422                       5.83121                      86.50481
                       1.59086                       8.89307                      84.61264
                       1.23906                      11.95609                      82.72017
                       0.90151                      15.02047                      80.82729
                       0.58102                      18.08627                      78.93377
                       0.28095                      21.15362                      77.03941
                       0.00541                      24.22261                      75.14400
                      -0.24076                      27.29325                      73.24725
                      -0.45218                      30.36540                      71.34876
                      -0.62344                      33.43869                      69.44811
                      -0.74977                      36.51253                      67.54484
                      -0.82794                      39.58612                      65.63857
                      -0.85743                      42.65863                      63.72915
                      -0.84174                      45.72942                      61.81673
                      -0.79004                      48.79834                      59.90181
                      -0.71894                      51.86604                      57.98550
                      -0.68113                      53.39974                      57.02717
                       2.51342                       1.23983                      89.34260
        </DataArray>
      </Points>
      <PointData>
        <DataArray type="Float32" Name="TranslationalVelocity" NumberOfComponents="3" format="ascii">
                      -0.02581                       1.61001                       2.59227
                       0.31985                       3.41440                       5.44378
                       0.66621                       5.21824                       8.29619
                       1.01352                       7.02125                      11.14987
                       1.36198                       8.82326                      14.00499
                       1.71198                      10.62420                      16.86167
                       2.06433                      12.42396                      19.72003
                       2.42032                      14.22234                      22.58018
                       2.78171                      16.01915                      25.44214
                       3.15064                      17.81412                      28.30574
                       3.52949                      19.60696                      31.17062
                       3.92058                      21.39728                      34.03615
                       4.32586                      23.18470                      36.90156
                       4.74649                      24.96885                      39.76604
                       5.18234                      26.74962                      42.62898
                       5.63141                      28.52744                      45.49018
                       6.08916                      30.30350                      48.35015
                       6.31946                      31.19130                      49.77996
                      -0.19851                       0.70773                       1.16669
        </DataArray>
        <DataArray type="Float32" Name="RotationalVelocity" NumberOfComponents="3" format="ascii">
                       0.93250                      -0.00788                      -0.10798
                       0.93253                      -0.00794                      -0.10809
                       0.93256                      -0.00805                      -0.10827
                       0.93260                      -0.00817                      -0.10848
                       0.93265                      -0.00833                      -0.10875
                       0.93270                      -0.00857                      -0.10914
                       0.93275                      -0.00896                      -0.10978
                       0.93281                      -0.00956                      -0.11077
                       0.93286                      -0.01046                      -0.11223
                       0.93289                      -0.01170                      -0.11424
                       0.93286                      -0.01329                      -0.11681
                       0.93276                      -0.01522                      -0.11992
                       0.93259                      -0.01741                      -0.12342
                       0.93235                      -0.01971                      -0.12709
                       0.93207                      -0.02187                      -0.13054
                       0.93182                      -0.02360                      -0.13328
                       0.93168                      -0.02443                      -0.13461
                       0.93166                      -0.02457                      -0.13482
                       0.93249                      -0.00786                      -0.10795
        </DataArray>
        <DataArray type="Float32" Name="TranslationalAcceleration" NumberOfComponents="3" format="ascii">
                       1.28131                      -2.35752                       1.83841
                       1.31018                      -5.04336                       3.56903
                       1.30618                      -7.78836                       5.21086
                       1.25294                     -10.60814                       6.74135
                       1.13403                     -13.51198                       8.14756
                       0.93915                     -16.50338                       9.42433
                       0.67005                     -19.58116                      10.57152
                       0.34317                     -22.74074                      11.59213
                      -0.01030                     -25.97531                      12.49089
                      -0.34567                     -29.27741                      13.27318
                      -0.60783                     -32.64047                      13.94442
                      -0.73629                     -36.06001                      14.51014
                      -0.67196                     -39.53405                      14.97682
                      -0.36580                     -43.06228                      15.35312
                       0.21045                     -46.64375                      15.65125
                       1.05182                     -50.27294                      15.88817
                       2.10592                     -53.93454                      16.08756
                       2.67616                     -55.77073                      16.18132
                       1.26055                      -1.02704                       0.95434
        </DataArray>
        <DataArray type="Float32" Name="RotationalAcceleration" NumberOfComponents="3" format="ascii">
                       0.02072                       0.05129                       0.01106
                      -0.00378                       0.05280                       0.01838
                      -0.03727                       0.05569                       0.02974
                      -0.07653                       0.06065                       0.04560
                      -0.11857                       0.06756                       0.06515
                      -0.16113                       0.07520                       0.08600
                      -0.20272                       0.08160                       0.10465
                      -0.24233                       0.08468                       0.11752
                      -0.27947                       0.08235                       0.12115
                      -0.31411                       0.07283                       0.11265
                      -0.34649                       0.05490                       0.09011
                      -0.37692                       0.02823                       0.05303
                      -0.40541                      -0.00638                       0.00271
                      -0.43147                      -0.04670                      -0.05733
                      -0.45401                      -0.08878                      -0.12091
                      -0.47103                      -0.12670                      -0.17887
                      -0.47924                      -0.15233                      -0.21871
                      -0.48064                      -0.16092                      -0.23232
                       0.03031                       0.05075                       0.00827
        </DataArray>
        <DataArray type="Float32" Name="OrientationX" NumberOfComponents="3" format="ascii">
                       0.98565                       0.15780                       0.05993
                       0.98584                       0.15628                       0.06087
                       0.98612                       0.15389                       0.06234
                       0.98815                       0.14406                       0.05290
                       0.99180                       0.12448                       0.02877
                       0.99369                       0.11098                       0.01640
                       0.99533                       0.09645                       0.00439
                       0.99674                       0.08029                      -0.00785
                       0.99784                       0.06275                      -0.01953
                       0.99858                       0.04432                      -0.02971
                       0.99894                       0.02480                      -0.03887
                       0.99890                       0.00480                      -0.04658
                       0.99859                      -0.01392                      -0.05114
                       0.99802                      -0.03152                      -0.05452
                       0.99713                      -0.04771                      -0.05877
                       0.99604                      -0.06096                      -0.06472
                       0.99527                      -0.06722                      -0.07016
                       0.99504                      -0.06808                      -0.07250
                       0.98559                       0.15830                       0.05962
        </DataArray>
        <DataArray type="Float32" Name="OrientationY" NumberOfComponents="3" format="ascii">
                       0.13322                      -0.50921                      -0.85027
                       0.13324                      -0.50940                      -0.85015
                       0.13327                      -0.50964                      -0.85000
                       0.12017                      -0.51192                      -0.85059
                       0.08952                      -0.51640                      -0.85166
                       0.07200                      -0.51880                      -0.85186
                       0.05424                      -0.52097                      -0.85185
                       0.03542                      -0.52296                      -0.85162
                       0.01633                      -0.52462                      -0.85118
                      -0.00196                      -0.52588                      -0.85055
                      -0.01999                      -0.52677                      -0.84978
                      -0.03705                      -0.52725                      -0.84890
                      -0.05078                      -0.52739                      -0.84810
                      -0.06294                      -0.52728                      -0.84735
                      -0.07511                      -0.52693                      -0.84658
                      -0.08717                      -0.52635                      -0.84579
                      -0.09510                      -0.52586                      -0.84524
                      -0.09754                      -0.52570                      -0.84506
                       0.13321                      -0.50914                      -0.85031
        </DataArray>
        <DataArray type="Float32" Name="OrientationZ" NumberOfComponents="3" format="ascii">
                      -0.10365                       0.84605                      -0.52293
                      -0.10185                       0.84622                      -0.52300
                      -0.09904                       0.84651                      -0.52308
                      -0.09546                       0.84687                      -0.52316
                      -0.09116                       0.84725                      -0.52331
                      -0.08603                       0.84766                      -0.52351
                      -0.07988                       0.84811                      -0.52377
                      -0.07248                       0.84857                      -0.52410
                      -0.06366                       0.84902                      -0.52452
                      -0.05332                       0.84940                      -0.52505
                      -0.04155                       0.84965                      -0.52571
                      -0.02863                       0.84970                      -0.52649
                      -0.01516                       0.84951                      -0.52736
                      -0.00204                       0.84910                      -0.52822
                       0.00943                       0.84857                      -0.52900
                       0.01750                       0.84808                      -0.52958
                       0.01993                       0.84791                      -0.52977
                       0.01942                       0.84794                      -0.52973
                      -0.10425                       0.84600                      -0.52289
        </DataArray>
      </PointData>
      <Lines>
        <DataArray type="Int32" Name="connectivity" format="ascii">
      0      1
      1      2
      2      3
      3      4
      4      5
      5      6
      6      7
      7      8
      8      9
      9     10
     10     11
     11     12
     12     13
     13     14
     14     15
     15     16
     16     17
     18      0
        </DataArray>
        <DataArray type="Int32" Name="offsets" format="ascii">
      2
      4
      6
      8
     10
     12
     14
     16
     18
     20
     22
     24
     26
     28
     30
     32
     34
     36
        </DataArray>
      </Lines>
    </Piece>
  </PolyData>
</VTKFile>
