<?xml version="1.0"?>
<VTKFile type="PolyData" version="0.1" byte_order="LittleEndian">
  <PolyData>
    <Piece NumberOfPoints="     17" NumberOfVerts="  0" NumberOfLines="      0"
           NumberOfStrips="  0" NumberOfPolys="      0">
      <Points>
        <DataArray type="Float32" NumberOfComponents="3" format="ascii">
                       3.23943                       0.00000                      93.41535
                       3.51693                       0.00000                      97.02234
                       3.79443                       0.00000                     100.62933
                       4.07192                       0.00000                     104.23631
                       4.34942                       0.00000                     107.84330
                       4.62692                       0.00000                     111.45029
                       4.90442                       0.00000                     115.05728
                       5.18192                       0.00000                     118.66427
                       5.45942                       0.00000                     122.27126
                       5.73692                       0.00000                     125.87824
                       6.01441                       0.00000                     129.48523
                       6.29191                       0.00000                     133.09222
                       6.56941                       0.00000                     136.69921
                       6.84691                       0.00000                     140.30620
                       7.12441                       0.00000                     143.91319
                       7.40191                       0.00000                     147.52017
                       7.67941                       0.00000                     151.12716
        </DataArray>
      </Points>
      <PointData>
        <DataArray type="Float32" Name="Force" NumberOfComponents="3" format="ascii">
                     174.34440                      76.36406                     -13.41294
                     567.50923                     244.80066                     -43.66052
                    2080.01458                    -738.64259                    -160.02298
                    3665.85121                   -1349.94884                    -282.02708
                    2300.55569                    -755.84984                    -176.99000
                    4932.33724                   -1416.50151                    -379.46240
                    5903.75287                   -1428.56753                    -454.19689
                    7124.83754                   -1464.07222                    -548.13931
                    7734.37921                   -1384.01409                    -595.03354
                    9574.58449                   -1489.38423                    -736.60713
                   10914.21621                   -1492.72886                    -839.66980
                   11804.04983                   -1490.80190                    -908.12790
                    6672.93590                    -787.94314                    -513.37290
                   13418.71428                   -1463.47122                   -1032.34982
                   13070.60048                   -1285.73004                   -1005.56818
                   18680.12580                   -1577.82176                   -1437.12909
                    7702.03209                    -490.56387                    -592.54496
        </DataArray>
        <DataArray type="Float32" Name="Moment" NumberOfComponents="3" format="ascii">
                     -19.18479                      20.62124                       5.91139
                     134.39981                     365.59674                      56.03698
                     925.06856                    2153.36316                     320.31274
                    1091.78683                    3003.73735                     656.75450
                      88.32560                     259.11176                     361.97870
                    -781.69720                   -2471.93585                     491.04157
                    -458.97219                   -1363.14448                     -46.84268
                    -153.92284                      66.82410                    -564.31187
                     -43.93069                     699.46455                    -710.37030
                      83.78112                    1658.28112                    -707.89630
                     445.28178                    4233.67099                    -682.19769
                     835.03089                    7219.87122                    -378.19156
                     -70.51628                    -421.03154                     -80.93942
                   -1046.74917                   -8965.45258                     -55.22720
                    -887.20201                   -8401.56235                     -21.10747
                    -271.10109                   -1246.61633                    -115.78835
                    -113.57660                     253.68384                    -205.05950
        </DataArray>
      </PointData>
    </Piece>
  </PolyData>
</VTKFile>
