<?xml version="1.0"?>
<VTKFile type="PolyData" version="0.1" byte_order="LittleEndian">
  <PolyData>
    <Piece NumberOfPoints="     19" NumberOfVerts="  0" NumberOfLines="     18"
           NumberOfStrips="  0" NumberOfPolys="      0">
      <Points>
        <DataArray type="Float32" NumberOfComponents="3" format="ascii">
                       2.27998                      -2.75477                      88.27731
                       1.89391                      -5.72913                      86.25457
                       1.51528                      -8.70186                      84.22803
                       1.14704                     -11.67243                      82.19643
                       0.79178                     -14.64056                      80.15895
                       0.45234                     -17.60607                      78.11498
                       0.13211                     -20.56883                      76.06395
                      -0.16472                     -23.52868                      74.00521
                      -0.43318                     -26.48544                      71.93818
                      -0.66776                     -29.43894                      69.86241
                      -0.86287                     -32.38899                      67.77769
                      -1.01350                     -35.33540                      65.68416
                      -1.11621                     -38.27800                      63.58238
                      -1.17023                     -41.21672                      61.47333
                      -1.17892                     -44.15174                      59.35840
                      -1.15134                     -47.08377                      57.23938
                      -1.10413                     -50.01416                      55.11835
                      -1.07824                     -51.47915                      54.05761
                       2.47445                      -1.26726                      89.28792
        </DataArray>
      </Points>
      <PointData>
        <DataArray type="Float32" Name="TranslationalVelocity" NumberOfComponents="3" format="ascii">
                      -0.47190                       1.72910                      -2.54567
                      -0.77670                       3.65218                      -5.31532
                      -1.08244                       5.57936                      -8.08516
                      -1.38938                       7.51181                     -10.85513
                      -1.69766                       9.45022                     -13.62518
                      -2.00740                      11.39494                     -16.39527
                      -2.31880                      13.34616                     -19.16523
                      -2.63216                      15.30395                     -21.93477
                      -2.94791                      17.26820                     -24.70351
                      -3.26657                      19.23858                     -27.47105
                      -3.58875                      21.21447                     -30.23696
                      -3.91504                      23.19496                     -33.00083
                      -4.24591                      25.17892                     -35.76231
                      -4.58161                      27.16505                     -38.52117
                      -4.92198                      29.15218                     -41.27743
                      -5.26634                      31.13939                     -44.03152
                      -5.61321                      33.12642                     -46.78443
                      -5.78703                      34.11989                     -48.16074
                      -0.31970                       0.76839                      -1.16091
        </DataArray>
        <DataArray type="Float32" Name="RotationalVelocity" NumberOfComponents="3" format="ascii">
                       0.93012                      -0.00618                      -0.10652
                       0.93064                      -0.00608                      -0.10676
                       0.93134                      -0.00593                      -0.10712
                       0.93215                      -0.00576                      -0.10753
                       0.93303                      -0.00557                      -0.10797
                       0.93392                      -0.00536                      -0.10846
                       0.93479                      -0.00511                      -0.10900
                       0.93561                      -0.00479                      -0.10962
                       0.93636                      -0.00439                      -0.11036
                       0.93703                      -0.00389                      -0.11123
                       0.93762                      -0.00328                      -0.11223
                       0.93813                      -0.00258                      -0.11337
                       0.93856                      -0.00181                      -0.11458
                       0.93890                      -0.00103                      -0.11580
                       0.93917                      -0.00030                      -0.11692
                       0.93933                       0.00026                      -0.11778
                       0.93939                       0.00051                      -0.11815
                       0.93938                       0.00053                      -0.11819
                       0.92991                      -0.00621                      -0.10642
        </DataArray>
        <DataArray type="Float32" Name="TranslationalAcceleration" NumberOfComponents="3" format="ascii">
                       1.38883                       2.41551                       1.73256
                       1.64422                       4.94125                       3.63645
                       1.90579                       7.49205                       5.51043
                       2.17819                      10.07440                       7.34643
                       2.46678                      12.69231                       9.13934
                       2.77574                      15.34768                      10.88697
                       3.10598                      18.04071                      12.58981
                       3.45427                      20.77035                      14.25053
                       3.81300                      23.53463                      15.87337
                       4.17046                      26.33088                      17.46342
                       4.51146                      29.15592                      19.02592
                       4.81876                      32.00603                      20.56559
                       5.07488                      34.87692                      22.08636
                       5.26459                      37.76365                      23.59141
                       5.37801                      40.66094                      25.08365
                       5.41431                      43.56371                      26.56652
                       5.38582                      46.46756                      28.04533
                       5.35790                      47.91926                      28.78454
                       1.26220                       1.15793                       0.77432
        </DataArray>
        <DataArray type="Float32" Name="RotationalAcceleration" NumberOfComponents="3" format="ascii">
                      -0.04367                       0.00328                       0.01283
                      -0.03402                       0.00183                       0.01310
                      -0.02069                      -0.00054                       0.01401
                      -0.00486                      -0.00394                       0.01596
                       0.01232                      -0.00829                       0.01904
                       0.02987                      -0.01312                       0.02276
                       0.04701                      -0.01773                       0.02623
                       0.06309                      -0.02140                       0.02852
                       0.07769                      -0.02341                       0.02866
                       0.09054                      -0.02314                       0.02577
                       0.10155                      -0.02014                       0.01923
                       0.11071                      -0.01423                       0.00875
                       0.11808                      -0.00557                      -0.00544
                       0.12369                       0.00527                      -0.02248
                       0.12756                       0.01719                      -0.04079
                       0.12961                       0.02852                      -0.05787
                       0.12958                       0.03695                      -0.07028
                       0.12899                       0.04010                      -0.07481
                      -0.04743                       0.00381                       0.01278
        </DataArray>
        <DataArray type="Float32" Name="OrientationX" NumberOfComponents="3" format="ascii">
                       0.94161                       0.09613                      -0.32269
                       0.94180                       0.09762                      -0.32168
                       0.94210                       0.09994                      -0.32010
                       0.94663                       0.09541                      -0.30789
                       0.95609                       0.08145                      -0.28153
                       0.96132                       0.07566                      -0.26486
                       0.96636                       0.07055                      -0.24733
                       0.97138                       0.06585                      -0.22820
                       0.97616                       0.06217                      -0.20796
                       0.98044                       0.06017                      -0.18741
                       0.98430                       0.05950                      -0.16616
                       0.98760                       0.06030                      -0.14494
                       0.99000                       0.06348                      -0.12600
                       0.99182                       0.06726                      -0.10849
                       0.99333                       0.06965                      -0.09189
                       0.99459                       0.06929                      -0.07735
                       0.99535                       0.06668                      -0.06947
                       0.99559                       0.06484                      -0.06778
                       0.94155                       0.09564                      -0.32303
        </DataArray>
        <DataArray type="Float32" Name="OrientationY" NumberOfComponents="3" format="ascii">
                       0.31908                      -0.56078                       0.76401
                       0.31904                      -0.56106                       0.76382
                       0.31899                      -0.56144                       0.76356
                       0.30637                      -0.56318                       0.76744
                       0.27683                      -0.56639                       0.77625
                       0.25983                      -0.56826                       0.78075
                       0.24253                      -0.57004                       0.78501
                       0.22416                      -0.57178                       0.78919
                       0.20548                      -0.57344                       0.79306
                       0.18752                      -0.57497                       0.79640
                       0.16978                      -0.57642                       0.79932
                       0.15294                      -0.57777                       0.80174
                       0.13937                      -0.57892                       0.80339
                       0.12734                      -0.57996                       0.80463
                       0.11527                      -0.58100                       0.80570
                       0.10328                      -0.58197                       0.80662
                       0.09536                      -0.58257                       0.80717
                       0.09291                      -0.58273                       0.80734
                       0.31909                      -0.56067                       0.76408
        </DataArray>
        <DataArray type="Float32" Name="OrientationZ" NumberOfComponents="3" format="ascii">
                      -0.10751                      -0.82236                      -0.55871
                      -0.10592                      -0.82200                      -0.55955
                      -0.10340                      -0.82146                      -0.56081
                      -0.10017                      -0.82081                      -0.56235
                      -0.09623                      -0.82010                      -0.56406
                      -0.09144                      -0.81937                      -0.56593
                      -0.08561                      -0.81858                      -0.56797
                      -0.07851                      -0.81776                      -0.57018
                      -0.06995                      -0.81688                      -0.57254
                      -0.05983                      -0.81596                      -0.57500
                      -0.04822                      -0.81499                      -0.57747
                      -0.03539                      -0.81397                      -0.57983
                      -0.02195                      -0.81291                      -0.58198
                      -0.00880                      -0.81186                      -0.58379
                       0.00273                      -0.81092                      -0.58515
                       0.01088                      -0.81025                      -0.58598
                       0.01335                      -0.81004                      -0.58622
                       0.01285                      -0.81008                      -0.58619
                      -0.10804                      -0.82250                      -0.55842
        </DataArray>
      </PointData>
      <Lines>
        <DataArray type="Int32" Name="connectivity" format="ascii">
      0      1
      1      2
      2      3
      3      4
      4      5
      5      6
      6      7
      7      8
      8      9
      9     10
     10     11
     11     12
     12     13
     13     14
     14     15
     15     16
     16     17
     18      0
        </DataArray>
        <DataArray type="Int32" Name="offsets" format="ascii">
      2
      4
      6
      8
     10
     12
     14
     16
     18
     20
     22
     24
     26
     28
     30
     32
     34
     36
        </DataArray>
      </Lines>
    </Piece>
  </PolyData>
</VTKFile>
