<?xml version="1.0"?>
<VTKFile type="PolyData" version="0.1" byte_order="LittleEndian">
  <PolyData>
    <Piece NumberOfPoints="     19" NumberOfVerts="  0" NumberOfLines="     18"
           NumberOfStrips="  0" NumberOfPolys="      0">
      <Points>
        <DataArray type="Float32" NumberOfComponents="3" format="ascii">
                       2.98405                       3.27755                      90.42141
                       2.86972                       6.87974                      90.73536
                       2.76370                      10.48249                      91.04565
                       2.66909                      14.08594                      91.35145
                       2.58841                      17.69016                      91.65213
                       2.52434                      21.29516                      91.94725
                       2.48033                      24.90094                      92.23659
                       2.46088                      28.50738                      92.52002
                       2.47150                      32.11433                      92.79739
                       2.51844                      35.72145                      93.06842
                       2.60818                      39.32825                      93.33261
                       2.74660                      42.93404                      93.58936
                       2.93798                      46.53797                      93.83807
                       3.18360                      50.13921                      94.07841
                       3.48028                      53.73719                      94.31070
                       3.81845                      57.33201                      94.53618
                       4.18012                      60.92486                      94.75769
                       4.36399                      62.72102                      94.86790
                       3.04285                       1.47658                      90.26364
        </DataArray>
      </Points>
      <PointData>
        <DataArray type="Float32" Name="TranslationalVelocity" NumberOfComponents="3" format="ascii">
                       0.70312                      -0.26875                       3.08585
                       1.11825                      -0.54551                       6.41249
                       1.53502                      -0.82120                       9.75600
                       1.95451                      -1.09571                      13.12056
                       2.37797                      -1.36888                      16.50863
                       2.80634                      -1.64063                      19.92123
                       3.23949                      -1.91114                      23.35835
                       3.67603                      -2.18077                      26.81923
                       4.11327                      -2.44992                      30.30260
                       4.54737                      -2.71884                      33.80688
                       4.97357                      -2.98750                      37.33027
                       5.38666                      -3.25541                      40.87086
                       5.78157                      -3.52169                      44.42657
                       6.15419                      -3.78523                      47.99514
                       6.50232                      -4.04500                      51.57410
                       6.82680                      -4.30060                      55.16078
                       7.13279                      -4.55300                      58.75216
                       7.28213                      -4.67863                      60.54861
                       0.49585                      -0.13012                       1.42610
        </DataArray>
        <DataArray type="Float32" Name="RotationalVelocity" NumberOfComponents="3" format="ascii">
                       0.92123                       0.01079                      -0.11414
                       0.92509                       0.01095                      -0.11446
                       0.93034                       0.01117                      -0.11500
                       0.93647                       0.01145                      -0.11590
                       0.94306                       0.01178                      -0.11715
                       0.94977                       0.01213                      -0.11854
                       0.95637                       0.01245                      -0.11974
                       0.96273                       0.01272                      -0.12037
                       0.96876                       0.01289                      -0.12010
                       0.97443                       0.01295                      -0.11864
                       0.97975                       0.01288                      -0.11579
                       0.98472                       0.01267                      -0.11152
                       0.98931                       0.01233                      -0.10596
                       0.99343                       0.01190                      -0.09949
                       0.99688                       0.01142                      -0.09277
                       0.99939                       0.01098                      -0.08676
                       1.00050                       0.01067                      -0.08278
                       1.00063                       0.01056                      -0.08149
                       0.91972                       0.01073                      -0.11402
        </DataArray>
        <DataArray type="Float32" Name="TranslationalAcceleration" NumberOfComponents="3" format="ascii">
                       0.17267                      -2.71200                      -0.32016
                       0.13020                      -5.80218                      -0.92164
                       0.03339                      -8.93547                      -1.40620
                      -0.13642                     -12.12230                      -1.74547
                      -0.39203                     -15.36852                      -1.92181
                      -0.74374                     -18.67613                      -1.92588
                      -1.20364                     -22.04391                      -1.75538
                      -1.78696                     -25.46788                      -1.41302
                      -2.51179                     -28.94163                      -0.90426
                      -3.39818                     -32.45652                      -0.23579
                      -4.46632                     -36.00187                       0.58538
                      -5.73360                     -39.56537                       1.55222
                      -7.21083                     -43.13397                       2.65692
                      -8.89743                     -46.69542                       3.88902
                     -10.77568                     -50.24082                       5.23282
                     -12.80395                     -53.76780                       6.66377
                     -14.90942                     -57.28348                       8.14353
                     -15.97016                     -59.04005                       8.88980
                       0.18309                      -1.17606                       0.00549
        </DataArray>
        <DataArray type="Float32" Name="RotationalAcceleration" NumberOfComponents="3" format="ascii">
                      -0.11057                       0.05827                       0.01200
                      -0.08274                       0.05814                       0.02403
                      -0.04517                       0.05779                       0.04218
                      -0.00141                       0.05728                       0.06455
                       0.04601                       0.05664                       0.08976
                       0.09499                       0.05580                       0.11781
                       0.14380                       0.05463                       0.14962
                       0.19145                       0.05301                       0.18599
                       0.23737                       0.05087                       0.22764
                       0.28126                       0.04817                       0.27493
                       0.32292                       0.04493                       0.32756
                       0.36209                       0.04124                       0.38431
                       0.39817                       0.03729                       0.44279
                       0.43008                       0.03339                       0.49918
                       0.45616                       0.02997                       0.54793
                       0.47394                       0.02761                       0.58153
                       0.47983                       0.02703                       0.59038
                       0.47928                       0.02728                       0.58727
                      -0.12152                       0.05828                       0.00779
        </DataArray>
        <DataArray type="Float32" Name="OrientationX" NumberOfComponents="3" format="ascii">
                       0.99354                       0.02269                       0.11123
                       0.99359                       0.02101                       0.11108
                       0.99367                       0.01836                       0.11085
                       0.99512                       0.01617                       0.09738
                       0.99769                       0.01476                       0.06626
                       0.99877                       0.01133                       0.04827
                       0.99953                       0.00677                       0.02996
                       0.99994                       0.00084                       0.01050
                       0.99993                      -0.00678                      -0.00933
                       0.99946                      -0.01630                      -0.02847
                       0.99849                      -0.02764                      -0.04744
                       0.99703                      -0.04053                      -0.06554
                       0.99528                      -0.05451                      -0.08032
                       0.99327                      -0.06842                      -0.09349
                       0.99103                      -0.08067                      -0.10652
                       0.98885                      -0.08929                      -0.11916
                       0.98759                      -0.09201                      -0.12727
                       0.98732                      -0.09157                      -0.12968
                       0.99352                       0.02324                       0.11128
        </DataArray>
        <DataArray type="Float32" Name="OrientationY" NumberOfComponents="3" format="ascii">
                       0.10877                       0.09027                      -0.98996
                       0.10880                       0.08920                      -0.99005
                       0.10884                       0.08775                      -0.99018
                       0.09565                       0.08583                      -0.99171
                       0.06481                       0.08352                      -0.99440
                       0.04719                       0.08142                      -0.99556
                       0.02933                       0.07941                      -0.99641
                       0.01041                       0.07754                      -0.99693
                      -0.00879                       0.07590                      -0.99708
                      -0.02718                       0.07451                      -0.99685
                      -0.04530                       0.07344                      -0.99627
                      -0.06247                       0.07270                      -0.99540
                      -0.07630                       0.07219                      -0.99447
                      -0.08855                       0.07196                      -0.99347
                      -0.10078                       0.07210                      -0.99229
                      -0.11286                       0.07264                      -0.99095
                      -0.12076                       0.07320                      -0.98998
                      -0.12318                       0.07343                      -0.98966
                       0.10875                       0.09069                      -0.98992
        </DataArray>
        <DataArray type="Float32" Name="OrientationZ" NumberOfComponents="3" format="ascii">
                      -0.03250                       0.99566                       0.08722
                      -0.03071                       0.99579                       0.08635
                      -0.02791                       0.99597                       0.08520
                      -0.02439                       0.99618                       0.08386
                      -0.02021                       0.99640                       0.08237
                      -0.01521                       0.99662                       0.08079
                      -0.00913                       0.99682                       0.07917
                      -0.00165                       0.99699                       0.07753
                       0.00747                       0.99709                       0.07583
                       0.01837                       0.99709                       0.07403
                       0.03102                       0.99692                       0.07208
                       0.04511                       0.99653                       0.06995
                       0.06001                       0.99590                       0.06769
                       0.07470                       0.99506                       0.06541
                       0.08773                       0.99413                       0.06333
                       0.09714                       0.99335                       0.06175
                       0.10040                       0.99306                       0.06118
                       0.10015                       0.99309                       0.06122
                      -0.03310                       0.99561                       0.08758
        </DataArray>
      </PointData>
      <Lines>
        <DataArray type="Int32" Name="connectivity" format="ascii">
      0      1
      1      2
      2      3
      3      4
      4      5
      5      6
      6      7
      7      8
      8      9
      9     10
     10     11
     11     12
     12     13
     13     14
     14     15
     15     16
     16     17
     18      0
        </DataArray>
        <DataArray type="Int32" Name="offsets" format="ascii">
      2
      4
      6
      8
     10
     12
     14
     16
     18
     20
     22
     24
     26
     28
     30
     32
     34
     36
        </DataArray>
      </Lines>
    </Piece>
  </PolyData>
</VTKFile>
