<?xml version="1.0"?>
<VTKFile type="PolyData" version="0.1" byte_order="LittleEndian">
  <PolyData>
    <Piece NumberOfPoints="     17" NumberOfVerts="  0" NumberOfLines="      0"
           NumberOfStrips="  0" NumberOfPolys="      0">
      <Points>
        <DataArray type="Float32" NumberOfComponents="3" format="ascii">
                       2.34186                      -2.93351                      88.57394
                       1.99166                      -6.10766                      86.87410
                       1.64903                      -9.28050                      85.17028
                       1.31697                     -12.45162                      83.46116
                       0.99810                     -15.62076                      81.74587
                       0.69530                     -18.78779                      80.02381
                       0.41200                     -21.95260                      78.29437
                       0.15241                     -25.11503                      76.55689
                      -0.07850                     -28.27491                      74.81076
                      -0.27521                     -31.43204                      73.05553
                      -0.43211                     -34.58618                      71.29096
                      -0.54424                     -37.73705                      69.51717
                      -0.60817                     -40.88438                      67.73473
                      -0.62319                     -44.02799                      65.94459
                      -0.59271                     -47.16795                      64.14817
                      -0.52588                     -50.30489                      62.34735
                      -0.43947                     -53.44016                      60.54435
        </DataArray>
      </Points>
      <PointData>
        <DataArray type="Float32" Name="Force" NumberOfComponents="3" format="ascii">
                     194.72886                     -57.63581                      67.39942
                     662.97028                    -173.17921                     190.02505
                    2237.06770                     325.15987                   -1043.92653
                    3726.56940                     571.24009                   -1767.88253
                    2272.18247                     308.33641                    -985.68171
                    4932.55063                     590.59992                   -1945.77493
                    5980.91937                     630.54334                   -2117.38048
                    6656.26762                     630.34511                   -2108.81381
                    7185.88656                     644.13141                   -2064.14799
                    9145.56427                     805.50871                   -2387.49780
                   10617.09649                     959.87120                   -2528.60385
                   12247.03327                    1190.31178                   -2705.31037
                    7082.88079                     728.46817                   -1475.17303
                   14245.96975                    1542.57291                   -2782.76887
                   13874.89044                    1578.11898                   -2504.07283
                   19838.56284                    2284.37103                   -3245.16407
                    8091.62504                     866.18929                   -1145.89205
        </DataArray>
        <DataArray type="Float32" Name="Moment" NumberOfComponents="3" format="ascii">
                     -19.97100                     -14.88520                      22.14227
                     196.51368                    -272.24549                     313.22131
                    1206.80580                   -1560.81195                    1742.39823
                    1292.83585                   -2142.60168                    2211.24555
                      54.49414                    -398.61547                      58.29307
                   -1087.34667                     886.69079                   -2211.85828
                    -697.49675                     919.47089                   -1354.54977
                    -109.76783                     845.00930                     305.15251
                     156.37548                     577.56782                    1102.45881
                     379.60102                      -4.62800                    1872.27990
                    1008.86603                   -1404.99168                    4037.84891
                    1814.93469                   -3657.40329                    6831.62641
                    -126.95329                     229.94375                    -429.63494
                   -2201.39983                    4682.97559                   -8349.71181
                   -1970.03435                    4331.61475                   -7852.02681
                    -452.81389                     581.10666                   -1297.95072
                    -110.30447                      61.90598                     200.89913
        </DataArray>
      </PointData>
    </Piece>
  </PolyData>
</VTKFile>
