<?xml version="1.0"?>
<VTKFile type="PolyData" version="0.1" byte_order="LittleEndian">
  <PolyData>
    <Piece NumberOfPoints="     17" NumberOfVerts="  0" NumberOfLines="      0"
           NumberOfStrips="  0" NumberOfPolys="      0">
      <Points>
        <DataArray type="Float32" NumberOfComponents="3" format="ascii">
                       3.14308                       1.50294                      93.07313
                       3.38113                       3.16869                      96.27563
                       3.62841                       4.83342                      99.47795
                       3.88848                       6.49666                     102.68003
                       4.16431                       8.15815                     105.88169
                       4.45901                       9.81776                     109.08265
                       4.77629                      11.47527                     112.28253
                       5.12066                      13.13038                     115.48083
                       5.49744                      14.78278                     118.67687
                       5.91250                      16.43222                     121.86969
                       6.37172                      18.07850                     125.05806
                       6.88025                      19.72158                     128.24059
                       7.44154                      21.36148                     131.41589
                       8.05604                      22.99838                     134.58292
                       8.71981                      24.63263                     137.74142
                       9.42278                      26.26492                     140.89253
                      10.14682                      27.89623                     144.03945
        </DataArray>
      </Points>
      <PointData>
        <DataArray type="Float32" Name="Force" NumberOfComponents="3" format="ascii">
                     194.73226                      62.26907                     -46.70807
                     626.75908                     199.81187                    -152.28516
                    2425.47029                    -715.97022                     176.57122
                    4163.99009                   -1358.18949                     353.62501
                    2527.05328                    -754.03088                     167.05124
                    5382.56058                   -1400.32854                     219.45221
                    6411.07687                   -1438.30792                      91.15725
                    7069.00315                   -1378.63884                     -77.06843
                    7501.87578                   -1300.58940                    -252.97468
                    9341.41603                   -1456.22141                    -525.53734
                   10609.93286                   -1514.66514                    -837.06741
                   11981.23674                   -1631.01211                   -1195.06643
                    6808.43783                    -896.39693                    -787.19599
                   13421.67277                   -1698.66607                   -1769.62993
                   12721.12434                   -1521.99881                   -1912.57696
                   17534.53943                   -1889.50139                   -2952.43866
                    7118.67430                    -633.53025                   -1301.09838
        </DataArray>
        <DataArray type="Float32" Name="Moment" NumberOfComponents="3" format="ascii">
                     -20.50949                      21.99260                      -4.10988
                     130.46929                     403.29408                    -147.24377
                     902.49498                    2346.26082                    -921.98990
                    1131.26997                    3335.58860                    -831.01458
                      81.77475                     438.34741                     279.24055
                    -730.86750                   -2044.79386                    1769.29887
                    -480.25566                   -1498.01421                     934.37941
                    -229.84183                    -440.43232                    -472.81301
                    -129.22673                     182.88393                   -1087.25710
                     -56.20475                    1021.97168                   -1526.91881
                     152.45906                    3290.43903                   -2730.59733
                     427.82287                    6531.28947                   -3913.41291
                     -68.26203                    -479.97369                     121.88085
                    -595.14508                   -8298.98403                    4121.01176
                    -427.68073                   -7607.43189                    3742.98089
                    -303.55048                   -1598.30817                     401.38418
                    -161.87684                     131.99256                    -391.55635
        </DataArray>
      </PointData>
    </Piece>
  </PolyData>
</VTKFile>
