<?xml version="1.0"?>
<VTKFile type="PolyData" version="0.1" byte_order="LittleEndian">
  <PolyData>
    <Piece NumberOfPoints="     19" NumberOfVerts="  0" NumberOfLines="     18"
           NumberOfStrips="  0" NumberOfPolys="      0">
      <Points>
        <DataArray type="Float32" NumberOfComponents="3" format="ascii">
                       3.10093                      -0.15876                      91.60279
                       3.20384                      -0.30644                      92.95759
                       3.38626                      -0.69587                      95.65887
                       3.55806                      -1.12994                      98.35620
                       3.76718                      -1.69937                     101.72553
                       4.07454                      -2.24106                     105.77941
                       4.41007                      -2.65405                     109.84484
                       4.74635                      -3.06498                     113.91041
                       5.08631                      -3.47207                     117.97609
                       5.42956                      -3.87722                     122.04171
                       5.77471                      -4.28397                     126.10699
                       6.12334                      -4.69085                     130.17195
                       6.47504                      -5.09779                     134.23664
                       6.82907                      -5.50474                     138.30113
                       7.18668                      -5.91176                     142.36529
                       7.48673                      -6.25096                     145.75195
                       7.72748                      -6.51447                     148.46199
                       7.96763                      -6.72326                     151.17798
                       8.08643                      -6.86910                     152.53158
        </DataArray>
      </Points>
      <PointData>
        <DataArray type="Float32" Name="Force" NumberOfComponents="3" format="ascii">
                       0.03155                       2.47438                       0.26097
                      72.62744                      25.00681                      -2.89959
                      90.21837                      59.61515                      -0.57745
                      80.13305                      78.19332                       2.15646
                     712.62217                    -292.06790                     -86.19909
                     933.01977                    -337.24384                    -108.57915
                    1072.91770                    -317.95534                    -118.15216
                    1366.50602                    -341.35690                    -144.79369
                    1457.05926                    -299.30732                    -148.82374
                    1651.32375                    -288.61112                    -164.96419
                    1985.04925                    -286.99462                    -194.17513
                    2185.37440                    -263.67740                    -210.84922
                    2516.93602                    -271.45148                    -242.51119
                    2588.73969                    -230.07573                    -247.23654
                    2582.87893                    -178.70882                    -243.83376
                    2512.74109                    -127.81036                    -233.72924
                    2340.56670                     -81.94559                    -214.21770
                    1610.10147                     -29.21657                    -144.43184
                    1344.70085                      13.63298                    -116.43557
        </DataArray>
        <DataArray type="Float32" Name="Moment" NumberOfComponents="3" format="ascii">
                       0.00000                       0.00000                       0.00000
                       0.00000                       0.00000                       0.00000
                       0.00000                       0.00000                       0.00000
                       0.00000                       0.00000                       0.00000
                     -15.23837                      20.97702                    -197.05443
                     -31.60208                      43.19182                    -405.70903
                     -42.53086                      57.63228                    -541.30709
                     -60.21634                      80.79302                    -758.77090
                     -82.63837                     109.63960                   -1029.57328
                     -92.72617                     121.49561                   -1140.76825
                     -98.39193                     127.16163                   -1193.80647
                    -103.54263                     131.90210                   -1238.13126
                     -86.73089                     108.89741                   -1022.04142
                     -84.34035                     104.46649                    -980.31798
                     -80.49535                      98.57444                    -924.91650
                     -76.23865                      92.76429                    -870.34137
                     -68.23872                      82.84694                    -777.27570
                     -35.58663                      43.21590                    -405.45567
                     -39.05016                      47.47571                    -445.42697
        </DataArray>
        <DataArray type="Float32" Name="TranslationalVelocity" NumberOfComponents="3" format="ascii">
                       0.01582                      -1.40589                      -0.14612
                       0.00029                      -2.67464                      -0.28325
                      -0.03913                      -5.20275                      -0.64508
                      -0.07610                      -7.72923                      -1.04941
                      -0.10988                     -10.89079                      -1.58194
                      -0.10704                     -14.71143                      -2.09329
                      -0.05165                     -18.55897                      -2.48942
                       0.05003                     -22.42026                      -2.88878
                       0.20670                     -26.29584                      -3.29055
                       0.42740                     -30.18534                      -3.69733
                       0.71305                     -34.08645                      -4.11239
                       1.07920                     -37.99968                      -4.53589
                       1.53209                     -41.92341                      -4.96824
                       2.07317                     -45.85567                      -5.40935
                       2.69610                     -49.79432                      -5.85881
                       3.26483                     -53.07973                      -6.23837
                       3.74355                     -55.71001                      -6.53669
                       4.23103                     -58.34625                      -6.78247
                       4.46933                     -59.66002                      -6.94493
        </DataArray>
        <DataArray type="Float32" Name="RotationalVelocity" NumberOfComponents="3" format="ascii">
                       0.92760                      -0.00014                      -0.11172
                       0.92800                       0.00071                      -0.11166
                       0.92906                       0.00309                      -0.11149
                       0.93044                       0.00634                      -0.11125
                       0.93264                       0.01177                      -0.11084
                       0.93573                       0.02006                      -0.11020
                       0.93902                       0.03017                      -0.10937
                       0.94242                       0.04217                      -0.10835
                       0.94587                       0.05622                      -0.10712
                       0.94925                       0.07246                      -0.10565
                       0.95244                       0.09105                      -0.10392
                       0.95532                       0.11135                      -0.10198
                       0.95778                       0.13250                      -0.09991
                       0.95976                       0.15310                      -0.09787
                       0.96119                       0.17106                      -0.09607
                       0.96191                       0.18171                      -0.09499
                       0.96220                       0.18585                      -0.09457
                       0.96228                       0.18622                      -0.09454
                       0.96226                       0.18486                      -0.09468
        </DataArray>
        <DataArray type="Float32" Name="TranslationalAcceleration" NumberOfComponents="3" format="ascii">
                       0.45180                       0.20793                      -0.90442
                       0.41699                       0.56027                      -2.06559
                       0.35732                       1.32893                      -4.36689
                       0.32464                       2.08276                      -6.67469
                       0.34049                       2.95132                      -9.59024
                       0.45954                       3.71227                     -13.18297
                       0.73226                       4.16231                     -16.86321
                       1.21240                       4.40200                     -20.60959
                       1.96701                       4.42671                     -24.43053
                       3.08067                       4.24036                     -28.33494
                       4.59658                       3.87281                     -32.32200
                       6.65275                       3.31424                     -36.41172
                       9.33655                       2.58297                     -40.61222
                      12.70173                       1.70293                     -44.92640
                      16.74082                       0.70386                     -49.35050
                      20.54443                      -0.19360                     -53.10606
                      23.81230                      -0.94756                     -56.14155
                      27.15841                      -1.76375                     -59.16973
                      28.82673                      -2.13236                     -60.69243
        </DataArray>
        <DataArray type="Float32" Name="OrientationX" NumberOfComponents="3" format="ascii">
                       0.96735                      -0.23339                      -0.09886
                       0.96734                      -0.23338                      -0.09892
                       0.96733                      -0.23336                      -0.09908
                       0.96731                      -0.23334                      -0.09931
                       0.96728                      -0.23330                      -0.09968
                       0.97446                      -0.20229                      -0.09750
                       0.97900                      -0.17977                      -0.09613
                       0.98253                      -0.16000                      -0.09509
                       0.98581                      -0.13904                      -0.09402
                       0.98872                      -0.11741                      -0.09296
                       0.99103                      -0.09688                      -0.09208
                       0.99289                      -0.07647                      -0.09125
                       0.99420                      -0.05794                      -0.09060
                       0.99495                      -0.04384                      -0.09032
                       0.99550                      -0.02999                      -0.08986
                       0.99584                      -0.01843                      -0.08921
                       0.99603                      -0.00985                      -0.08850
                       0.99611                      -0.00527                      -0.08799
                       0.99612                      -0.00528                      -0.08789
        </DataArray>
        <DataArray type="Float32" Name="OrientationY" NumberOfComponents="3" format="ascii">
                       0.24184                       0.96664                       0.08439
                       0.24184                       0.96664                       0.08439
                       0.24184                       0.96664                       0.08438
                       0.24184                       0.96664                       0.08438
                       0.24184                       0.96664                       0.08437
                       0.21086                       0.97359                       0.08751
                       0.18839                       0.97799                       0.08973
                       0.16869                       0.98140                       0.09164
                       0.14780                       0.98458                       0.09364
                       0.12624                       0.98738                       0.09567
                       0.10580                       0.98959                       0.09757
                       0.08549                       0.99136                       0.09944
                       0.06706                       0.99261                       0.10112
                       0.05307                       0.99333                       0.10239
                       0.03929                       0.99384                       0.10363
                       0.02777                       0.99412                       0.10467
                       0.01920                       0.99424                       0.10543
                       0.01461                       0.99428                       0.10584
                       0.01461                       0.99428                       0.10584
        </DataArray>
        <DataArray type="Float32" Name="OrientationZ" NumberOfComponents="3" format="ascii">
                       0.07587                      -0.10554                       0.99152
                       0.07592                      -0.10555                       0.99151
                       0.07609                      -0.10559                       0.99149
                       0.07630                      -0.10564                       0.99147
                       0.07667                      -0.10572                       0.99144
                       0.07722                      -0.10583                       0.99138
                       0.07789                      -0.10595                       0.99132
                       0.07866                      -0.10608                       0.99124
                       0.07955                      -0.10620                       0.99116
                       0.08055                      -0.10633                       0.99106
                       0.08167                      -0.10644                       0.99096
                       0.08286                      -0.10653                       0.99085
                       0.08407                      -0.10661                       0.99074
                       0.08522                      -0.10666                       0.99064
                       0.08620                      -0.10670                       0.99055
                       0.08676                      -0.10671                       0.99050
                       0.08695                      -0.10671                       0.99048
                       0.08693                      -0.10671                       0.99048
                       0.08683                      -0.10671                       0.99049
        </DataArray>
      </PointData>
      <Lines>
        <DataArray type="Int32" Name="connectivity" format="ascii">
      0      1
      1      2
      2      3
      3      4
      4      5
      5      6
      6      7
      7      8
      8      9
      9     10
     10     11
     11     12
     12     13
     13     14
     14     15
     15     16
     16     17
     17     18
        </DataArray>
        <DataArray type="Int32" Name="offsets" format="ascii">
      2
      4
      6
      8
     10
     12
     14
     16
     18
     20
     22
     24
     26
     28
     30
     32
     34
     36
        </DataArray>
      </Lines>
    </Piece>
  </PolyData>
</VTKFile>
