<?xml version="1.0"?>
<VTKFile type="PolyData" version="0.1" byte_order="LittleEndian">
  <PolyData>
    <Piece NumberOfPoints="     17" NumberOfVerts="  0" NumberOfLines="      0"
           NumberOfStrips="  0" NumberOfPolys="      0">
      <Points>
        <DataArray type="Float32" NumberOfComponents="3" format="ascii">
                       2.63194                      -2.80256                      88.39310
                       2.24517                      -5.86667                      86.50923
                       1.85851                      -8.93076                      84.62528
                       1.47201                     -11.99479                      82.74122
                       1.08571                     -15.05878                      80.85704
                       0.69966                     -18.12271                      78.97273
                       0.31387                     -21.18660                      77.08827
                      -0.07160                     -24.25043                      75.20367
                      -0.45672                     -27.31421                      73.31893
                      -0.84147                     -30.37796                      71.43404
                      -1.22582                     -33.44167                      69.54901
                      -1.60975                     -36.50535                      67.66385
                      -1.99328                     -39.56900                      65.77857
                      -2.37643                     -42.63265                      63.89319
                      -2.75927                     -45.69627                      62.00772
                      -3.14188                     -48.75990                      60.12220
                      -3.52444                     -51.82351                      58.23665
        </DataArray>
      </Points>
      <PointData>
        <DataArray type="Float32" Name="Force" NumberOfComponents="3" format="ascii">
                     186.92770                     -59.52978                      58.44766
                     609.37115                    -181.51370                     170.16883
                    2009.77176                     309.18724                    -915.21857
                    3448.31480                     533.62284                   -1575.05320
                    2136.67998                     278.64421                    -891.13744
                    4543.55287                     493.93193                   -1734.04211
                    5397.98571                     455.07221                   -1844.87233
                    6468.96560                     415.10977                   -1997.77263
                    6929.80549                     339.87106                   -1968.17471
                    8469.61869                     297.71774                   -2212.22582
                    9450.63974                     221.57791                   -2286.29402
                    9961.09686                     161.59948                   -2290.39196
                    5502.97274                      56.88448                   -1211.66285
                   10809.60537                      41.83894                   -2264.67809
                   10290.04522                     -36.20793                   -2030.53168
                   14693.69169                    -162.07184                   -2718.57490
                    6436.20942                    -121.56618                   -1108.54504
        </DataArray>
        <DataArray type="Float32" Name="Moment" NumberOfComponents="3" format="ascii">
                     -17.97616                     -14.49463                      18.81417
                     164.64892                    -254.75769                     260.34949
                    1066.77513                   -1467.72751                    1512.75994
                    1151.66693                   -2041.70265                    2032.13757
                      51.47500                    -329.92711                      74.76438
                    -988.62961                    1161.98442                   -1989.14730
                    -492.72234                    1074.98442                    -823.22419
                      -6.76175                     863.77009                     550.13023
                     166.57065                     716.89742                    1116.07011
                     352.45968                     394.18823                    1875.90564
                     830.02127                    -739.15495                    3724.79334
                    1259.37588                   -2390.14067                    5554.52621
                     -40.63639                     595.13426                     -80.79741
                   -1292.28671                    4753.18125                   -5736.73476
                   -1070.21952                    4315.80716                   -5209.76133
                    -114.86249                    1355.33206                    -138.02537
                      52.47325                      97.83357                     690.37943
        </DataArray>
      </PointData>
    </Piece>
  </PolyData>
</VTKFile>
