<?xml version="1.0"?>
<VTKFile type="PolyData" version="0.1" byte_order="LittleEndian">
  <PolyData>
    <Piece NumberOfPoints="     19" NumberOfVerts="  0" NumberOfLines="     18"
           NumberOfStrips="  0" NumberOfPolys="      0">
      <Points>
        <DataArray type="Float32" NumberOfComponents="3" format="ascii">
                       2.56974                      -1.72793                      87.33968
                       2.04109                      -3.59968                      84.28936
                       1.52189                      -5.46770                      81.23515
                       1.01591                      -7.33085                      78.17574
                       0.52646                      -9.18842                      75.11026
                       0.05712                     -11.04007                      72.03807
                      -0.38791                     -12.88551                      68.95855
                      -0.80351                     -14.72446                      65.87106
                      -1.18370                     -16.55673                      62.77505
                      -1.52188                     -18.38218                      59.67018
                      -1.81139                     -20.20076                      56.55639
                      -2.04634                     -22.01258                      53.43408
                      -2.22277                     -23.81787                      50.30412
                      -2.33998                     -25.61706                      47.16782
                      -2.40229                     -27.41090                      44.02679
                      -2.42092                     -29.20071                      40.88278
                      -2.41633                     -30.98842                      37.73744
                      -2.41143                     -31.88204                      36.16463
                       2.83590                      -0.79129                      88.86405
        </DataArray>
      </Points>
      <PointData>
        <DataArray type="Float32" Name="TranslationalVelocity" NumberOfComponents="3" format="ascii">
                       0.07859                       2.59351                      -1.53819
                      -0.15067                       5.46147                      -3.25831
                      -0.36829                       8.32208                      -4.97092
                      -0.57044                      11.17383                      -6.67416
                      -0.75436                      14.01578                      -8.36690
                      -0.91714                      16.84756                     -10.04875
                      -1.05471                      19.66954                     -11.71993
                      -1.16132                      22.48268                     -13.38105
                      -1.22957                      25.28826                     -15.03294
                      -1.25062                      28.08768                     -16.67635
                      -1.21494                      30.88227                     -18.31163
                      -1.11338                      33.67317                     -19.93858
                      -0.93871                      36.46136                     -21.55647
                      -0.68759                      39.24772                     -23.16438
                      -0.36295                      42.03292                     -24.76188
                       0.02313                      44.81746                     -26.35021
                       0.44619                      47.60170                     -27.93328
                       0.66304                      48.99380                     -28.72419
                       0.19555                       1.15792                      -0.67654
        </DataArray>
        <DataArray type="Float32" Name="RotationalVelocity" NumberOfComponents="3" format="ascii">
                       0.92206                       0.00743                      -0.11278
                       0.91956                       0.00549                      -0.11114
                       0.91628                       0.00253                      -0.10875
                       0.91248                      -0.00107                      -0.10586
                       0.90840                      -0.00524                      -0.10259
                       0.90432                      -0.01018                      -0.09883
                       0.90049                      -0.01626                      -0.09442
                       0.89710                      -0.02393                      -0.08911
                       0.89423                      -0.03354                      -0.08269
                       0.89191                      -0.04537                      -0.07501
                       0.89009                      -0.05946                      -0.06603
                       0.88869                      -0.07552                      -0.05590
                       0.88762                      -0.09290                      -0.04503
                       0.88684                      -0.11044                      -0.03410
                       0.88627                      -0.12640                      -0.02419
                       0.88589                      -0.13837                      -0.01676
                       0.88578                      -0.14323                      -0.01375
                       0.88581                      -0.14344                      -0.01363
                       0.92308                       0.00809                      -0.11336
        </DataArray>
        <DataArray type="Float32" Name="TranslationalAcceleration" NumberOfComponents="3" format="ascii">
                       0.66118                       1.65125                       2.20378
                       1.02770                       3.28420                       4.82193
                       1.33311                       4.81809                       7.48685
                       1.55133                       6.22641                      10.21273
                       1.65727                       7.49302                      13.00853
                       1.61171                       8.60796                      15.88265
                       1.35272                       9.56350                      18.84586
                       0.79060                      10.35227                      21.91133
                      -0.19281                      10.96679                      25.09225
                      -1.73888                      11.39896                      28.39848
                      -4.00140                      11.64009                      31.83266
                      -7.13005                      11.68163                      35.38686
                     -11.24789                      11.51679                      39.04165
                     -16.42251                      11.14409                      42.76867
                     -22.63140                      10.57512                      46.53625
                     -29.72097                       9.84533                      50.31840
                     -37.35983                       9.02347                      54.10524
                     -41.26248                       8.60044                      55.99992
                       0.46657                       0.81410                       0.90414
        </DataArray>
        <DataArray type="Float32" Name="RotationalAcceleration" NumberOfComponents="3" format="ascii">
                       0.01813                      -0.02971                      -0.00668
                      -0.00586                      -0.01739                      -0.01005
                      -0.03970                       0.00306                      -0.01669
                      -0.07952                       0.02880                      -0.02553
                      -0.12304                       0.06173                      -0.03815
                      -0.16961                       0.10645                      -0.05748
                      -0.21947                       0.16909                      -0.08726
                      -0.27273                       0.25662                      -0.13175
                      -0.32909                       0.37531                      -0.19485
                      -0.38778                       0.52940                      -0.27933
                      -0.44733                       0.71984                      -0.38600
                      -0.50561                       0.94293                      -0.51298
                      -0.56038                       1.18900                      -0.65471
                      -0.60910                       1.44118                      -0.80126
                      -0.64846                       1.67411                      -0.93760
                      -0.67479                       1.85260                      -1.04276
                      -0.68468                       1.93033                      -1.08883
                      -0.68512                       1.93749                      -1.09315
                       0.02704                      -0.03314                      -0.00613
        </DataArray>
        <DataArray type="Float32" Name="OrientationX" NumberOfComponents="3" format="ascii">
                       0.94599                       0.17518                      -0.27280
                       0.94632                       0.17636                      -0.27087
                       0.94684                       0.17822                      -0.26784
                       0.95124                       0.16940                      -0.25778
                       0.96007                       0.14609                      -0.23858
                       0.96512                       0.13446                      -0.22464
                       0.97002                       0.12322                      -0.20946
                       0.97492                       0.11183                      -0.19242
                       0.97960                       0.10105                      -0.17371
                       0.98383                       0.09183                      -0.15378
                       0.98765                       0.08366                      -0.13246
                       0.99090                       0.07694                      -0.11040
                       0.99329                       0.07337                      -0.08942
                       0.99505                       0.07087                      -0.06961
                       0.99640                       0.06729                      -0.05157
                       0.99740                       0.06166                      -0.03721
                       0.99795                       0.05615                      -0.03086
                       0.99810                       0.05366                      -0.03026
                       0.94587                       0.17478                      -0.27345
        </DataArray>
        <DataArray type="Float32" Name="OrientationY" NumberOfComponents="3" format="ascii">
                       0.28889                      -0.83737                       0.46407
                       0.28882                      -0.83763                       0.46363
                       0.28872                      -0.83800                       0.46304
                       0.27597                      -0.84073                       0.46585
                       0.24624                      -0.84606                       0.47281
                       0.22911                      -0.84900                       0.47614
                       0.21169                      -0.85175                       0.47927
                       0.19321                      -0.85441                       0.48235
                       0.17442                      -0.85685                       0.48516
                       0.15638                      -0.85900                       0.48751
                       0.13857                      -0.86093                       0.48949
                       0.12169                      -0.86261                       0.49102
                       0.10810                      -0.86391                       0.49191
                       0.09606                      -0.86501                       0.49247
                       0.08399                      -0.86603                       0.49288
                       0.07199                      -0.86693                       0.49320
                       0.06406                      -0.86745                       0.49339
                       0.06160                      -0.86758                       0.49346
                       0.28892                      -0.83726                       0.46424
        </DataArray>
        <DataArray type="Float32" Name="OrientationZ" NumberOfComponents="3" format="ascii">
                      -0.14714                      -0.51781                      -0.84275
                      -0.14512                      -0.51698                      -0.84361
                      -0.14192                      -0.51575                      -0.84490
                      -0.13781                      -0.51428                      -0.84648
                      -0.13278                      -0.51268                      -0.84825
                      -0.12670                      -0.51100                      -0.85019
                      -0.11935                      -0.50925                      -0.85230
                      -0.11046                      -0.50743                      -0.85459
                      -0.09982                      -0.50556                      -0.85700
                      -0.08733                      -0.50368                      -0.85947
                      -0.07308                      -0.50181                      -0.86189
                      -0.05745                      -0.49999                      -0.86412
                      -0.04116                      -0.49828                      -0.86604
                      -0.02531                      -0.49672                      -0.86754
                      -0.01150                      -0.49544                      -0.86857
                      -0.00185                      -0.49460                      -0.86912
                       0.00094                      -0.49435                      -0.86926
                       0.00023                      -0.49439                      -0.86924
                      -0.14781                      -0.51812                      -0.84244
        </DataArray>
      </PointData>
      <Lines>
        <DataArray type="Int32" Name="connectivity" format="ascii">
      0      1
      1      2
      2      3
      3      4
      4      5
      5      6
      6      7
      7      8
      8      9
      9     10
     10     11
     11     12
     12     13
     13     14
     14     15
     15     16
     16     17
     18      0
        </DataArray>
        <DataArray type="Int32" Name="offsets" format="ascii">
      2
      4
      6
      8
     10
     12
     14
     16
     18
     20
     22
     24
     26
     28
     30
     32
     34
     36
        </DataArray>
      </Lines>
    </Piece>
  </PolyData>
</VTKFile>
