<?xml version="1.0"?>
<VTKFile type="PolyData" version="0.1" byte_order="LittleEndian">
  <PolyData>
    <Piece NumberOfPoints="     19" NumberOfVerts="  0" NumberOfLines="     18"
           NumberOfStrips="  0" NumberOfPolys="      0">
      <Points>
        <DataArray type="Float32" NumberOfComponents="3" format="ascii">
                       3.21401                       1.28564                      90.87371
                       3.23795                       2.48222                      91.53365
                       3.27511                       4.82915                      92.93810
                       3.31020                       7.15452                      94.38221
                       3.35789                      10.04877                      96.21058
                       3.46425                      13.59288                      98.27295
                       3.59710                      17.20065                     100.21748
                       3.74834                      20.81005                     102.15760
                       3.92518                      24.42179                     104.09117
                       4.13328                      28.03462                     106.01948
                       4.37433                      31.64649                     107.94560
                       4.65959                      35.25769                     109.86683
                       4.99465                      38.86777                     111.78200
                       5.38234                      42.47628                     113.69011
                       5.82311                      46.08274                     115.59047
                       6.22447                      49.08664                     117.16872
                       6.56153                      51.49267                     118.42153
                       6.89617                      53.92496                     119.62578
                       7.06763                      55.12106                     120.26422
        </DataArray>
      </Points>
      <PointData>
        <DataArray type="Float32" Name="Force" NumberOfComponents="3" format="ascii">
                      -0.03488                       0.15014                      -0.27257
                      68.53724                      10.38035                     -21.47750
                      79.83319                      25.51000                     -49.69282
                      67.41073                      33.69424                     -64.37296
                     698.26401                    -103.50724                     155.69821
                     958.77711                    -141.01763                     204.52297
                    1076.84030                    -125.70188                     159.95091
                    1354.47869                    -133.11891                     139.95431
                    1457.07835                    -122.10926                      91.25375
                    1673.59021                    -129.76070                      56.36414
                    2068.80515                    -154.62514                      14.73310
                    2387.87771                    -183.30179                     -33.37344
                    2821.88035                    -239.14278                     -74.85575
                    3153.52634                    -291.08923                    -127.87122
                    3487.27959                    -348.00764                    -183.18090
                    3715.18878                    -383.62663                    -233.20303
                    3688.91240                    -380.12474                    -261.97726
                    2710.23333                    -274.89961                    -208.60615
                    1112.46125                     -56.54604                    -190.63073
        </DataArray>
        <DataArray type="Float32" Name="Moment" NumberOfComponents="3" format="ascii">
                       0.00000                       0.00000                       0.00000
                       0.00000                       0.00000                       0.00000
                       0.00000                       0.00000                       0.00000
                       0.00000                       0.00000                       0.00000
                      -4.70289                    -179.78782                     -98.43067
                      -9.76640                    -321.16024                    -175.65485
                     -16.22953                    -456.01542                    -249.11003
                     -26.87645                    -641.14898                    -349.72466
                     -43.26947                    -870.52162                    -473.97218
                     -57.46889                    -970.12781                    -527.02118
                     -72.27161                   -1019.58847                    -552.37133
                     -90.08266                   -1068.45437                    -577.00890
                     -94.36284                    -952.95239                    -512.83924
                    -108.77964                    -953.79277                    -511.45727
                    -118.01985                    -922.98129                    -493.30295
                    -119.54534                    -874.27633                    -466.27960
                    -109.37870                    -776.37740                    -413.65494
                     -55.69034                    -391.01606                    -208.25677
                     -47.02987                    -330.95516                    -176.28169
        </DataArray>
        <DataArray type="Float32" Name="TranslationalVelocity" NumberOfComponents="3" format="ascii">
                       0.13032                      -0.71912                       1.22819
                       0.27195                      -1.33097                       2.33244
                       0.55011                      -2.63000                       4.49620
                       0.82699                      -3.96059                       6.63330
                       1.17387                      -5.63691                       9.28128
                       1.60253                      -7.52087                      12.50387
                       2.04281                      -9.28682                      15.75885
                       2.48499                     -11.03698                      18.98868
                       2.92455                     -12.77049                      22.19421
                       3.35416                     -14.48956                      25.37556
                       3.76694                     -16.19888                      28.53515
                       4.15135                     -17.89627                      31.67363
                       4.49694                     -19.58164                      34.79430
                       4.79516                     -21.25472                      37.90104
                       5.04179                     -22.91550                      40.99801
                       5.21063                     -24.29114                      43.57449
                       5.32514                     -25.38121                      45.63758
                       5.43214                     -26.42854                      47.72328
                       5.48204                     -26.98338                      48.74924
        </DataArray>
        <DataArray type="Float32" Name="RotationalVelocity" NumberOfComponents="3" format="ascii">
                       0.92391                      -0.00055                      -0.11845
                       0.92284                      -0.00045                      -0.11861
                       0.92019                      -0.00020                      -0.11895
                       0.91693                       0.00009                      -0.11937
                       0.91200                       0.00054                      -0.12001
                       0.90528                       0.00114                      -0.12086
                       0.89814                       0.00161                      -0.12145
                       0.89091                       0.00170                      -0.12136
                       0.88386                       0.00115                      -0.12010
                       0.87718                      -0.00031                      -0.11720
                       0.87111                      -0.00300                      -0.11207
                       0.86577                      -0.00689                      -0.10477
                       0.86130                      -0.01187                      -0.09554
                       0.85779                      -0.01758                      -0.08500
                       0.85532                      -0.02342                      -0.07425
                       0.85410                      -0.02768                      -0.06644
                       0.85367                      -0.03014                      -0.06194
                       0.85362                      -0.03170                      -0.05909
                       0.85373                      -0.03209                      -0.05839
        </DataArray>
        <DataArray type="Float32" Name="TranslationalAcceleration" NumberOfComponents="3" format="ascii">
                      -1.42501                      -1.16879                      -0.66501
                      -1.51815                      -2.21526                      -1.20959
                      -1.71532                      -4.26157                      -2.37399
                      -1.91597                      -6.26394                      -3.58300
                      -2.16621                      -8.70982                      -5.13260
                      -2.44753                     -11.63276                      -6.92038
                      -2.71188                     -14.52588                      -8.66218
                      -2.96204                     -17.33352                     -10.45230
                      -3.16479                     -20.05921                     -12.28901
                      -3.26550                     -22.70809                     -14.17305
                      -3.21418                     -25.29375                     -16.10303
                      -2.91549                     -27.82090                     -18.08688
                      -2.28444                     -30.30537                     -20.13265
                      -1.25098                     -32.76648                     -22.25018
                       0.21931                     -35.22533                     -24.44679
                       1.75468                     -37.28425                     -26.33528
                       3.16048                     -38.94504                     -27.87600
                       4.65868                     -40.63824                     -29.40206
                       5.41632                     -41.46488                     -30.19014
        </DataArray>
        <DataArray type="Float32" Name="OrientationX" NumberOfComponents="3" format="ascii">
                       0.99258                      -0.07304                       0.09719
                       0.99258                      -0.07337                       0.09701
                       0.99256                      -0.07430                       0.09650
                       0.99253                      -0.07559                       0.09580
                       0.99247                      -0.07771                       0.09463
                       0.99572                      -0.06577                       0.06500
                       0.99736                      -0.05877                       0.04269
                       0.99829                      -0.05404                       0.02242
                       0.99875                      -0.04991                       0.00051
                       0.99864                      -0.04686                      -0.02268
                       0.99789                      -0.04601                      -0.04572
                       0.99650                      -0.04664                      -0.06934
                       0.99457                      -0.04916                      -0.09176
                       0.99242                      -0.05407                      -0.11035
                       0.99005                      -0.05812                      -0.12818
                       0.98809                      -0.05943                      -0.14194
                       0.98678                      -0.05850                      -0.15114
                       0.98612                      -0.05748                      -0.15579
                       0.98615                      -0.05723                      -0.15565
        </DataArray>
        <DataArray type="Float32" Name="OrientationY" NumberOfComponents="3" format="ascii">
                       0.12032                       0.47543                      -0.87149
                       0.12032                       0.47531                      -0.87155
                       0.12031                       0.47503                      -0.87171
                       0.12030                       0.47467                      -0.87190
                       0.12029                       0.47413                      -0.87220
                       0.08855                       0.47569                      -0.87515
                       0.06560                       0.47635                      -0.87680
                       0.04552                       0.47671                      -0.87788
                       0.02429                       0.47705                      -0.87854
                       0.00244                       0.47740                      -0.87868
                      -0.01822                       0.47768                      -0.87834
                      -0.03868                       0.47802                      -0.87749
                      -0.05720                       0.47838                      -0.87629
                      -0.07123                       0.47865                      -0.87511
                      -0.08498                       0.47908                      -0.87365
                      -0.09645                       0.47956                      -0.87219
                      -0.10495                       0.47998                      -0.87098
                      -0.10950                       0.48022                      -0.87029
                      -0.10950                       0.48022                      -0.87029
        </DataArray>
        <DataArray type="Float32" Name="OrientationZ" NumberOfComponents="3" format="ascii">
                       0.01744                       0.87672                       0.48069
                       0.01783                       0.87675                       0.48061
                       0.01893                       0.87683                       0.48043
                       0.02043                       0.87691                       0.48022
                       0.02291                       0.87702                       0.47991
                       0.02664                       0.87715                       0.47948
                       0.03119                       0.87729                       0.47895
                       0.03675                       0.87740                       0.47835
                       0.04361                       0.87746                       0.47767
                       0.05200                       0.87744                       0.47686
                       0.06226                       0.87733                       0.47584
                       0.07407                       0.87711                       0.47455
                       0.08698                       0.87678                       0.47297
                       0.10013                       0.87634                       0.47118
                       0.11219                       0.87585                       0.46937
                       0.11990                       0.87550                       0.46811
                       0.12350                       0.87533                       0.46750
                       0.12483                       0.87526                       0.46726
                       0.12455                       0.87528                       0.46730
        </DataArray>
      </PointData>
      <Lines>
        <DataArray type="Int32" Name="connectivity" format="ascii">
      0      1
      1      2
      2      3
      3      4
      4      5
      5      6
      6      7
      7      8
      8      9
      9     10
     10     11
     11     12
     12     13
     13     14
     14     15
     15     16
     16     17
     17     18
        </DataArray>
        <DataArray type="Int32" Name="offsets" format="ascii">
      2
      4
      6
      8
     10
     12
     14
     16
     18
     20
     22
     24
     26
     28
     30
     32
     34
     36
        </DataArray>
      </Lines>
    </Piece>
  </PolyData>
</VTKFile>
