<?xml version="1.0"?>
<VTKFile type="PolyData" version="0.1" byte_order="LittleEndian">
  <PolyData>
    <Piece NumberOfPoints="     19" NumberOfVerts="  0" NumberOfLines="     18"
           NumberOfStrips="  0" NumberOfPolys="      0">
      <Points>
        <DataArray type="Float32" NumberOfComponents="3" format="ascii">
                       2.80865                      -1.11539                      89.12910
                       2.63859                      -2.12683                      88.22579
                       2.26836                      -4.08511                      86.35237
                       1.88532                      -6.01180                      84.44602
                       1.40139                      -8.39976                      82.04149
                       0.89218                     -11.35928                      79.24877
                       0.42740                     -14.40267                      76.54187
                      -0.02845                     -17.44349                      73.83051
                      -0.47111                     -20.48308                      71.11548
                      -0.90001                     -23.52034                      68.39553
                      -1.31718                     -26.55346                      65.66905
                      -1.71937                     -29.58340                      62.93671
                      -2.10699                     -32.61061                      60.19914
                      -2.48155                     -35.63551                      57.45712
                      -2.84352                     -38.65855                      54.71126
                      -3.13840                     -41.17678                      52.42097
                      -3.37140                     -43.19627                      50.59370
                      -3.60187                     -45.25312                      48.80652
                      -3.72181                     -46.25309                      47.88279
        </DataArray>
      </Points>
      <PointData>
        <DataArray type="Float32" Name="Force" NumberOfComponents="3" format="ascii">
                       0.42823                      -3.20936                       3.53283
                      66.54158                     -23.67487                      14.17330
                      94.81291                     -51.73148                      40.53666
                      89.33436                     -63.64491                      55.07008
                     703.18532                     178.09832                    -329.31730
                     898.58034                     187.33790                    -372.53466
                    1039.47300                     175.26628                    -380.10931
                    1323.73979                     185.19035                    -435.09921
                    1394.40958                     155.67046                    -406.68417
                    1536.95111                     141.31712                    -405.38621
                    1790.92699                     127.48420                    -419.58751
                    1867.04043                      99.68681                    -388.39409
                    2016.05248                      84.14537                    -380.67451
                    1934.44402                      48.55424                    -318.47669
                    1727.18755                      10.22287                    -239.66136
                    1782.05768                      -9.49954                    -220.88856
                    1926.79226                     -16.37664                    -231.09566
                    1469.85673                     -17.41214                    -171.69502
                    1472.28749                     -20.14230                    -170.04982
        </DataArray>
        <DataArray type="Float32" Name="Moment" NumberOfComponents="3" format="ascii">
                       0.00000                       0.00000                       0.00000
                       0.00000                       0.00000                       0.00000
                       0.00000                       0.00000                       0.00000
                       0.00000                       0.00000                       0.00000
                      26.72856                     164.05951                     145.79815
                      53.85299                     336.38260                     299.05526
                      67.33223                     429.85436                     382.33477
                      90.69958                     594.30553                     528.89614
                     118.91343                     803.06016                     715.11702
                     126.62393                     884.93338                     788.55920
                     127.73026                     927.33735                     826.94651
                     128.16860                     969.12659                     864.85634
                      98.96333                     779.90800                     696.50292
                      93.24688                     764.15838                     682.88826
                      84.90390                     718.62737                     642.53741
                      85.06269                     732.11730                     654.77294
                      79.86382                     689.83316                     616.99056
                      41.33234                     355.34946                     317.80316
                      42.96816                     367.34837                     328.50516
        </DataArray>
        <DataArray type="Float32" Name="TranslationalVelocity" NumberOfComponents="3" format="ascii">
                      -0.03400                       0.90869                      -0.99781
                      -0.14963                       1.76005                      -1.92931
                      -0.37037                       3.53020                      -3.73574
                      -0.57521                       5.34046                      -5.52319
                      -0.80267                       7.63949                      -7.75792
                      -1.03778                      10.32948                     -10.56027
                      -1.21470                      12.96324                     -13.48469
                      -1.30958                      15.62978                     -16.45318
                      -1.30886                      18.32791                     -19.46830
                      -1.19924                      21.05778                     -22.52885
                      -0.98174                      23.81688                     -25.62714
                      -0.63576                      26.60515                     -28.76635
                      -0.15695                      29.41937                     -31.94309
                       0.45109                      32.25572                     -35.15274
                       1.17326                      35.11023                     -38.38889
                       1.83978                      37.49883                     -41.10015
                       2.39856                      39.40779                     -43.28078
                       2.94836                      41.27543                     -45.50102
                       3.22417                      42.24069                     -46.58179
        </DataArray>
        <DataArray type="Float32" Name="RotationalVelocity" NumberOfComponents="3" format="ascii">
                       0.91994                       0.00472                      -0.11200
                       0.92158                       0.00363                      -0.11108
                       0.92577                       0.00059                      -0.10845
                       0.93112                      -0.00356                      -0.10478
                       0.93953                      -0.01055                      -0.09849
                       0.95133                      -0.02135                      -0.08855
                       0.96405                      -0.03451                      -0.07612
                       0.97718                      -0.04988                      -0.06128
                       0.99037                      -0.06735                      -0.04409
                       1.00325                      -0.08676                      -0.02466
                       1.01544                      -0.10791                      -0.00314
                       1.02668                      -0.12996                       0.01958
                       1.03669                      -0.15191                       0.04241
                       1.04515                      -0.17225                       0.06372
                       1.05168                      -0.18895                       0.08129
                       1.05522                      -0.19789                       0.09069
                       1.05657                      -0.20039                       0.09326
                       1.05679                      -0.19900                       0.09165
                       1.05646                      -0.19673                       0.08916
        </DataArray>
        <DataArray type="Float32" Name="TranslationalAcceleration" NumberOfComponents="3" format="ascii">
                       0.65010                       0.91416                       0.66153
                       0.73968                       1.85040                       1.37412
                       0.92783                       3.66646                       2.87753
                       1.11949                       5.43893                       4.45946
                       1.35694                       7.60465                       6.54306
                       1.61007                      10.23639                       9.10234
                       1.82829                      12.90141                      11.76909
                       2.04567                      15.53125                      14.62739
                       2.33658                      18.14080                      17.65930
                       2.83041                      20.74642                      20.83467
                       3.65255                      23.36206                      24.10799
                       5.03392                      26.00478                      27.45162
                       7.18945                      28.68721                      30.82798
                      10.30254                      31.41580                      34.20594
                      14.47388                      34.19011                      37.56324
                      18.71373                      36.52876                      40.33455
                      22.55230                      38.41637                      42.52332
                      26.64018                      40.34937                      44.64905
                      28.70320                      41.27562                      45.73344
        </DataArray>
        <DataArray type="Float32" Name="OrientationX" NumberOfComponents="3" format="ascii">
                       0.94117                       0.12264                      -0.31490
                       0.94120                       0.12283                      -0.31474
                       0.94128                       0.12335                      -0.31427
                       0.94140                       0.12405                      -0.31365
                       0.94159                       0.12522                      -0.31261
                       0.95142                       0.10584                      -0.28913
                       0.95803                       0.09260                      -0.27129
                       0.96347                       0.08154                      -0.25510
                       0.96880                       0.06993                      -0.23778
                       0.97383                       0.05807                      -0.21974
                       0.97819                       0.04715                      -0.20229
                       0.98210                       0.03635                      -0.18484
                       0.98529                       0.02675                      -0.16879
                       0.98753                       0.01988                      -0.15618
                       0.98947                       0.01260                      -0.14422
                       0.99085                       0.00580                      -0.13485
                       0.99172                       0.00017                      -0.12840
                       0.99211                      -0.00327                      -0.12533
                       0.99207                      -0.00363                      -0.12565
        </DataArray>
        <DataArray type="Float32" Name="OrientationY" NumberOfComponents="3" format="ascii">
                       0.31445                      -0.65919                       0.68308
                       0.31443                      -0.65931                       0.68297
                       0.31438                      -0.65962                       0.68269
                       0.31431                      -0.66000                       0.68236
                       0.31422                      -0.66056                       0.68185
                       0.28390                      -0.66502                       0.69076
                       0.26180                      -0.66812                       0.69647
                       0.24238                      -0.67069                       0.70102
                       0.22175                      -0.67309                       0.70553
                       0.20044                      -0.67524                       0.70984
                       0.18020                      -0.67702                       0.71357
                       0.16005                      -0.67850                       0.71695
                       0.14174                      -0.67965                       0.71971
                       0.12782                      -0.68046                       0.72155
                       0.11410                      -0.68108                       0.72327
                       0.10262                      -0.68141                       0.72467
                       0.09407                      -0.68155                       0.72570
                       0.08949                      -0.68159                       0.72625
                       0.08949                      -0.68158                       0.72625
        </DataArray>
        <DataArray type="Float32" Name="OrientationZ" NumberOfComponents="3" format="ascii">
                      -0.12381                      -0.74191                      -0.65897
                      -0.12362                      -0.74177                      -0.65917
                      -0.12309                      -0.74141                      -0.65967
                      -0.12236                      -0.74096                      -0.66031
                      -0.12112                      -0.74026                      -0.66133
                      -0.11917                      -0.73929                      -0.66276
                      -0.11676                      -0.73827                      -0.66432
                      -0.11393                      -0.73724                      -0.66595
                      -0.11071                      -0.73625                      -0.66759
                      -0.10715                      -0.73531                      -0.66921
                      -0.10331                      -0.73445                      -0.67075
                      -0.09935                      -0.73370                      -0.67217
                      -0.09547                      -0.73305                      -0.67344
                      -0.09193                      -0.73251                      -0.67452
                      -0.08911                      -0.73210                      -0.67534
                      -0.08768                      -0.73188                      -0.67577
                      -0.08739                      -0.73177                      -0.67592
                      -0.08780                      -0.73173                      -0.67591
                      -0.08828                      -0.73173                      -0.67585
        </DataArray>
      </PointData>
      <Lines>
        <DataArray type="Int32" Name="connectivity" format="ascii">
      0      1
      1      2
      2      3
      3      4
      4      5
      5      6
      6      7
      7      8
      8      9
      9     10
     10     11
     11     12
     12     13
     13     14
     14     15
     15     16
     16     17
     17     18
        </DataArray>
        <DataArray type="Int32" Name="offsets" format="ascii">
      2
      4
      6
      8
     10
     12
     14
     16
     18
     20
     22
     24
     26
     28
     30
     32
     34
     36
        </DataArray>
      </Lines>
    </Piece>
  </PolyData>
</VTKFile>
