<?xml version="1.0"?>
<VTKFile type="PolyData" version="0.1" byte_order="LittleEndian">
  <PolyData>
    <Piece NumberOfPoints="     17" NumberOfVerts="  0" NumberOfLines="      0"
           NumberOfStrips="  0" NumberOfPolys="      0">
      <Points>
        <DataArray type="Float32" NumberOfComponents="3" format="ascii">
                       2.37016                       3.12860                      89.19602
                       2.10042                       6.58975                      88.17866
                       1.83835                      10.05079                      87.15893
                       1.58682                      13.51176                      86.13631
                       1.34816                      16.97267                      85.11040
                       1.12495                      20.43352                      84.08085
                       0.92051                      23.89440                      83.04751
                       0.73921                      27.35539                      82.01026
                       0.58642                      30.81653                      80.96899
                       0.46826                      34.27773                      79.92345
                       0.39111                      37.73867                      78.87328
                       0.36079                      41.19878                      77.81805
                       0.38158                      44.65731                      76.75739
                       0.45490                      48.11341                      75.69113
                       0.57782                      51.56652                      74.61957
                       0.74120                      55.01664                      73.54356
                       0.92769                      58.46483                      72.46494
        </DataArray>
      </Points>
      <PointData>
        <DataArray type="Float32" Name="Force" NumberOfComponents="3" format="ascii">
                     159.09026                      -8.22858                     -70.62846
                     528.81940                     -28.04476                    -231.77129
                    2197.51245                     320.06570                     544.98242
                    3796.10840                     546.91803                     960.61914
                    2310.43091                     298.42651                     493.64371
                    4933.08008                     555.06390                     844.94202
                    5882.57666                     553.92798                     764.11218
                    6491.05664                     494.63037                     621.48645
                    6937.69922                     411.47171                     490.14423
                    8738.10156                     368.79010                     445.53806
                   10073.28613                     245.82492                     367.87747
                   11536.55566                      81.23778                     333.70950
                    6652.06299                     -42.24210                     159.89066
                   13365.51660                    -266.46429                     253.26743
                   13015.88965                    -457.60422                     166.19073
                   18667.09180                    -913.30615                      62.26260
                    7641.69238                    -448.86398                    -106.30984
        </DataArray>
        <DataArray type="Float32" Name="Moment" NumberOfComponents="3" format="ascii">
                     -19.55083                      -2.07598                     -17.22844
                     101.52225                     -44.26937                    -398.14261
                     720.54321                    -230.41405                   -2313.76636
                     733.95056                      52.61939                   -3202.03491
                       1.89984                     380.05829                    -365.99435
                    -620.67297                    1235.00586                    2127.56641
                    -370.41693                     596.97046                    1488.62097
                    -115.42417                    -461.90948                     264.61124
                     -23.60363                    -886.71582                    -438.60556
                       7.75564                   -1082.09155                   -1338.61121
                      98.63996                   -1713.09949                   -3705.98804
                     167.25800                   -2262.98999                   -6996.28271
                     -21.71689                     159.93922                     382.10056
                    -167.53154                    2733.10986                    8464.72656
                     -65.46468                    2607.70703                    7910.49072
                    -118.95867                     513.09882                    1043.76660
                    -125.64972                    -121.59382                     -85.86854
        </DataArray>
      </PointData>
    </Piece>
  </PolyData>
</VTKFile>
