<?xml version="1.0"?>
<VTKFile type="PolyData" version="0.1" byte_order="LittleEndian">
  <PolyData>
    <Piece NumberOfPoints="     17" NumberOfVerts="  0" NumberOfLines="      0"
           NumberOfStrips="  0" NumberOfPolys="      0">
      <Points>
        <DataArray type="Float32" NumberOfComponents="3" format="ascii">
                       2.61297                      -0.82059                      86.97961
                       2.02227                      -1.69591                      83.51951
                       1.44066                      -2.57076                      80.05776
                       0.87161                      -3.44479                      76.59373
                       0.31799                      -4.31783                      73.12694
                      -0.21705                      -5.18975                      69.65696
                      -0.72956                      -6.06030                      66.18325
                      -1.21453                      -6.92907                      62.70515
                      -1.66587                      -7.79565                      59.22199
                      -2.07668                      -8.65968                      55.73321
                      -2.43980                      -9.52095                      52.23849
                      -2.74874                     -10.37944                      48.73788
                      -2.99875                     -11.23528                      45.23192
                      -3.18839                     -12.08877                      41.72156
                      -3.32125                     -12.94033                      38.20805
                      -3.40805                     -13.79059                      34.69267
                      -3.46903                     -14.64024                      31.17653
        </DataArray>
      </Points>
      <PointData>
        <DataArray type="Float32" Name="Force" NumberOfComponents="3" format="ascii">
                     133.20459                     -76.78762                      -3.41218
                     487.09193                    -257.37967                     -16.77837
                    1831.80562                     614.04164                    -456.61341
                    3141.69422                    1069.16722                    -775.02034
                    1960.46421                     586.02895                    -454.84287
                    4352.94200                    1140.43015                    -946.66263
                    5421.05995                    1222.01974                   -1087.83168
                    6222.22940                    1204.15947                   -1138.69208
                    6931.60578                    1194.26255                   -1152.42583
                    9096.84906                    1422.32522                   -1354.45071
                   10881.14897                    1596.64269                   -1422.44506
                   12763.81108                    1862.22670                   -1443.42186
                    7525.74839                    1095.59178                    -747.19738
                   15461.36559                    2243.07543                   -1322.35459
                   15348.59225                    2225.80592                   -1082.77941
                   22424.06376                    3205.63395                   -1300.98803
                    9149.87698                    1192.83087                    -458.65231
        </DataArray>
        <DataArray type="Float32" Name="Moment" NumberOfComponents="3" format="ascii">
                     -19.14430                     -18.59402                       4.54665
                     109.50002                    -354.56942                      15.16655
                     792.19513                   -1957.30003                      17.64036
                     832.14478                   -2626.80075                      59.40571
                      32.47463                    -256.53555                    -103.07697
                    -709.38012                    1989.14556                    -453.14252
                    -405.85957                    1475.69285                     157.59282
                      57.06055                     290.56115                    1199.74653
                     241.45411                    -479.53095                    1485.60318
                     389.32026                   -1491.34786                    1618.34017
                     822.33310                   -4154.38111                    1987.51015
                    1392.28208                   -7948.23615                    2164.90378
                     -81.64141                     424.92555                    -139.09249
                   -1676.78753                    9861.37718                   -2616.97652
                   -1575.71085                    9374.36898                   -2750.40662
                    -270.11207                     968.36462                   -1225.32719
                    -156.24679                     -10.64579                    -163.25469
        </DataArray>
      </PointData>
    </Piece>
  </PolyData>
</VTKFile>
