<?xml version="1.0"?>
<VTKFile type="PolyData" version="0.1" byte_order="LittleEndian">
  <PolyData>
    <Piece NumberOfPoints="     19" NumberOfVerts="  0" NumberOfLines="     18"
           NumberOfStrips="  0" NumberOfPolys="      0">
      <Points>
        <DataArray type="Float32" NumberOfComponents="3" format="ascii">
                       3.20006                       1.33611                      90.77944
                       3.21310                       2.57560                      91.35509
                       3.22879                       5.01414                      92.59411
                       3.24253                       7.43361                      93.87463
                       3.26354                      10.44666                      95.50011
                       3.33712                      14.12382                      97.31578
                       3.43652                      17.85589                      99.01121
                       3.55433                      21.58867                     100.70388
                       3.69816                      25.32279                     102.39158
                       3.87426                      29.05718                     104.07561
                       4.08491                      32.79006                     105.75887
                       4.34232                      36.52159                     107.43859
                       4.65296                      40.25126                     109.11338
                       5.02035                      43.97854                     110.78193
                       5.44528                      47.70292                     112.44328
                       5.83657                      50.80448                     113.82255
                       6.16734                      53.28785                     114.91600
                       6.49636                      55.79416                     115.95923
                       6.66527                      57.02968                     116.51836
        </DataArray>
      </Points>
      <PointData>
        <DataArray type="Float32" Name="Force" NumberOfComponents="3" format="ascii">
                      -0.03497                       0.12653                      -0.27349
                      66.60331                       9.28174                     -21.68593
                      77.50385                      22.36814                     -50.52628
                      65.43489                      29.42092                     -65.76396
                     688.61756                     -84.90692                     160.01480
                     950.87080                    -116.95975                     212.31203
                    1069.12089                    -103.57202                     166.78255
                    1346.68950                    -109.44907                     146.69808
                    1450.49049                    -100.68777                      96.56827
                    1673.21652                    -109.15094                      61.55515
                    2078.94538                    -134.25639                      19.95785
                    2411.35779                    -165.62862                     -27.89483
                    2860.51634                    -224.49880                     -67.23330
                    3207.85600                    -282.27034                    -119.21716
                    3558.54848                    -346.02755                    -174.22019
                    3804.91403                    -389.12335                    -223.75834
                    3798.08770                    -391.37259                    -255.07625
                    2817.22859                    -289.52886                    -202.25587
                    1138.29938                     -67.11440                    -193.04602
        </DataArray>
        <DataArray type="Float32" Name="Moment" NumberOfComponents="3" format="ascii">
                       0.00000                       0.00000                       0.00000
                       0.00000                       0.00000                       0.00000
                       0.00000                       0.00000                       0.00000
                       0.00000                       0.00000                       0.00000
                      -2.91598                    -179.16374                     -82.51891
                      -6.57049                    -324.01423                    -149.06803
                     -11.74408                    -465.96255                    -214.08020
                     -20.70519                    -661.29148                    -303.30510
                     -35.24065                    -904.86473                    -414.13789
                     -49.17289                   -1015.09798                    -463.35681
                     -64.87117                   -1077.38875                    -490.16889
                     -83.89971                   -1134.85955                    -514.32512
                     -90.03720                   -1010.64938                    -456.07333
                    -106.39582                   -1016.29131                    -456.59185
                    -118.31829                    -993.07376                    -444.32552
                    -121.46481                    -945.17632                    -421.76298
                    -112.02736                    -842.47248                    -375.45285
                     -57.15643                    -424.16875                    -188.93706
                     -47.27825                    -351.49413                    -156.57659
        </DataArray>
        <DataArray type="Float32" Name="TranslationalVelocity" NumberOfComponents="3" format="ascii">
                       0.24187                      -0.62559                       1.28920
                       0.39121                      -1.15790                       2.43200
                       0.68554                      -2.30130                       4.67889
                       0.97784                      -3.47984                       6.90347
                       1.34179                      -4.97098                       9.66536
                       1.78499                      -6.63451                      13.02182
                       2.23286                      -8.18297                      16.41065
                       2.67663                      -9.72276                      19.78168
                       3.11115                     -11.25278                      23.13572
                       3.52850                     -12.77496                      26.47281
                       3.92210                     -14.29299                      29.79455
                       4.27912                     -15.80463                      33.10184
                       4.58881                     -17.30890                      36.39751
                       4.84278                     -18.80442                      39.68479
                       5.03761                     -20.29000                      42.96698
                       5.15883                     -21.52061                      45.70051
                       5.23323                     -22.49460                      47.89016
                       5.29948                     -23.42344                      50.10058
                       5.32956                     -23.92091                      51.19055
        </DataArray>
        <DataArray type="Float32" Name="RotationalVelocity" NumberOfComponents="3" format="ascii">
                       0.92276                       0.00428                      -0.11845
                       0.92204                       0.00430                      -0.11849
                       0.92026                       0.00433                      -0.11850
                       0.91807                       0.00434                      -0.11848
                       0.91475                       0.00434                      -0.11841
                       0.91022                       0.00431                      -0.11824
                       0.90543                       0.00410                      -0.11767
                       0.90059                       0.00350                      -0.11627
                       0.89588                       0.00229                      -0.11353
                       0.89145                       0.00023                      -0.10896
                       0.88752                      -0.00297                      -0.10195
                       0.88418                      -0.00724                      -0.09262
                       0.88155                      -0.01245                      -0.08126
                       0.87967                      -0.01825                      -0.06865
                       0.87853                      -0.02403                      -0.05609
                       0.87812                      -0.02813                      -0.04719
                       0.87806                      -0.03041                      -0.04225
                       0.87814                      -0.03175                      -0.03934
                       0.87823                      -0.03202                      -0.03876
        </DataArray>
        <DataArray type="Float32" Name="TranslationalAcceleration" NumberOfComponents="3" format="ascii">
                      -1.48977                      -1.25841                      -0.90849
                      -1.58573                      -2.32482                      -1.40984
                      -1.78702                      -4.41228                      -2.49630
                      -1.97014                      -6.45162                      -3.64945
                      -2.15193                      -8.93381                      -5.16671
                      -2.25102                     -11.88797                      -6.97229
                      -2.20755                     -14.80477                      -8.80616
                      -2.04208                     -17.62809                     -10.76998
                      -1.76729                     -20.36079                     -12.86354
                      -1.41379                     -23.00567                     -15.08455
                      -1.02713                     -25.57432                     -17.41578
                      -0.65577                     -28.06483                     -19.85636
                      -0.36144                     -30.48488                     -22.38848
                      -0.20338                     -32.84283                     -24.98966
                      -0.22765                     -35.14813                     -27.63428
                      -0.39819                     -37.03793                     -29.85287
                      -0.63355                     -38.53937                     -31.62459
                      -0.93524                     -40.07154                     -33.36141
                      -1.10113                     -40.80896                     -34.25037
        </DataArray>
        <DataArray type="Float32" Name="OrientationX" NumberOfComponents="3" format="ascii">
                       0.99315                      -0.05732                       0.10182
                       0.99315                      -0.05766                       0.10166
                       0.99314                      -0.05863                       0.10121
                       0.99312                      -0.05996                       0.10060
                       0.99309                      -0.06216                       0.09958
                       0.99623                      -0.05224                       0.06920
                       0.99782                      -0.04676                       0.04647
                       0.99872                      -0.04347                       0.02590
                       0.99915                      -0.04097                       0.00369
                       0.99901                      -0.03976                      -0.01979
                       0.99823                      -0.04093                      -0.04304
                       0.99680                      -0.04377                      -0.06685
                       0.99481                      -0.04858                      -0.08942
                       0.99259                      -0.05562                      -0.10804
                       0.99011                      -0.06178                      -0.12597
                       0.98805                      -0.06465                      -0.13990
                       0.98667                      -0.06470                      -0.14931
                       0.98596                      -0.06422                      -0.15411
                       0.98599                      -0.06402                      -0.15402
        </DataArray>
        <DataArray type="Float32" Name="OrientationY" NumberOfComponents="3" format="ascii">
                       0.11646                       0.41505                      -0.90231
                       0.11646                       0.41499                      -0.90234
                       0.11646                       0.41485                      -0.90241
                       0.11645                       0.41467                      -0.90249
                       0.11645                       0.41440                      -0.90261
                       0.08471                       0.41586                      -0.90548
                       0.06176                       0.41661                      -0.90698
                       0.04170                       0.41713                      -0.90789
                       0.02048                       0.41765                      -0.90838
                      -0.00135                       0.41817                      -0.90837
                      -0.02198                       0.41866                      -0.90788
                      -0.04242                       0.41922                      -0.90689
                      -0.06090                       0.41980                      -0.90557
                      -0.07488                       0.42031                      -0.90428
                      -0.08859                       0.42095                      -0.90275
                      -0.10003                       0.42159                      -0.90125
                      -0.10852                       0.42212                      -0.90002
                      -0.11306                       0.42240                      -0.89933
                      -0.11306                       0.42240                      -0.89933
        </DataArray>
        <DataArray type="Float32" Name="OrientationZ" NumberOfComponents="3" format="ascii">
                       0.00946                       0.90799                       0.41888
                       0.00984                       0.90800                       0.41886
                       0.01092                       0.90800                       0.41883
                       0.01239                       0.90799                       0.41880
                       0.01484                       0.90797                       0.41877
                       0.01853                       0.90793                       0.41872
                       0.02305                       0.90788                       0.41860
                       0.02866                       0.90781                       0.41841
                       0.03568                       0.90769                       0.41813
                       0.04439                       0.90750                       0.41771
                       0.05518                       0.90722                       0.41702
                       0.06772                       0.90683                       0.41602
                       0.08154                       0.90631                       0.41467
                       0.09571                       0.90567                       0.41303
                       0.10880                       0.90498                       0.41132
                       0.11724                       0.90448                       0.41009
                       0.12126                       0.90423                       0.40947
                       0.12286                       0.90413                       0.40921
                       0.12264                       0.90414                       0.40925
        </DataArray>
      </PointData>
      <Lines>
        <DataArray type="Int32" Name="connectivity" format="ascii">
      0      1
      1      2
      2      3
      3      4
      4      5
      5      6
      6      7
      7      8
      8      9
      9     10
     10     11
     11     12
     12     13
     13     14
     14     15
     15     16
     16     17
     17     18
        </DataArray>
        <DataArray type="Int32" Name="offsets" format="ascii">
      2
      4
      6
      8
     10
     12
     14
     16
     18
     20
     22
     24
     26
     28
     30
     32
     34
     36
        </DataArray>
      </Lines>
    </Piece>
  </PolyData>
</VTKFile>
