<?xml version="1.0"?>
<VTKFile type="PolyData" version="0.1" byte_order="LittleEndian">
  <PolyData>
    <Piece NumberOfPoints="     19" NumberOfVerts="  0" NumberOfLines="     18"
           NumberOfStrips="  0" NumberOfPolys="      0">
      <Points>
        <DataArray type="Float32" NumberOfComponents="3" format="ascii">
                       2.97709                       0.59920                      93.37320
                       3.24015                       1.27800                      96.91684
                       3.51212                       1.95520                     100.46011
                       3.79643                       2.63018                     104.00284
                       4.09598                       3.30257                     107.54479
                       4.41389                       3.97220                     111.08567
                       4.75404                       4.63878                     114.62504
                       5.12128                       5.30198                     118.16234
                       5.52146                       5.96147                     121.69674
                       5.96112                       6.61704                     125.22716
                       6.44693                       7.26863                     128.75224
                       6.98487                       7.91640                     132.27044
                       7.57910                       8.56068                     135.78022
                       8.23064                       9.20197                     139.28041
                       8.93572                       9.84090                     142.77070
                       9.68391                      10.47828                     146.25239
                      10.45600                      11.11495                     149.72906
                      10.84500                      11.43321                     151.46676
                       2.84729                       0.25950                      91.60131
        </DataArray>
      </Points>
      <PointData>
        <DataArray type="Float32" Name="TranslationalVelocity" NumberOfComponents="3" format="ascii">
                      -0.49158                      -3.06305                       0.54443
                      -0.46378                      -6.36461                       1.17479
                      -0.43770                      -9.65592                       1.80184
                      -0.41436                     -12.93439                       2.42460
                      -0.39495                     -16.19845                       3.04261
                      -0.38086                     -19.44731                       3.65576
                      -0.37365                     -22.68079                       4.26405
                      -0.37501                     -25.89908                       4.86760
                      -0.38672                     -29.10260                       5.46671
                      -0.41060                     -32.29182                       6.06193
                      -0.44827                     -35.46716                       6.65411
                      -0.50101                     -38.62893                       7.24435
                      -0.56941                     -41.77743                       7.83392
                      -0.65315                     -44.91317                       8.42400
                      -0.75055                     -48.03727                       9.01548
                      -0.85823                     -51.15202                       9.60865
                      -0.97055                     -54.26152                      10.20279
                      -1.02702                     -55.81560                      10.49994
                      -0.50577                      -1.41010                       0.22857
        </DataArray>
        <DataArray type="Float32" Name="RotationalVelocity" NumberOfComponents="3" format="ascii">
                       0.92487                      -0.01293                      -0.10921
                       0.92230                      -0.01318                      -0.10897
                       0.91878                      -0.01368                      -0.10862
                       0.91465                      -0.01445                      -0.10817
                       0.91019                      -0.01556                      -0.10764
                       0.90561                      -0.01708                      -0.10701
                       0.90105                      -0.01902                      -0.10631
                       0.89662                      -0.02145                      -0.10552
                       0.89240                      -0.02438                      -0.10465
                       0.88846                      -0.02780                      -0.10371
                       0.88483                      -0.03166                      -0.10271
                       0.88157                      -0.03582                      -0.10167
                       0.87873                      -0.04007                      -0.10065
                       0.87635                      -0.04411                      -0.09970
                       0.87451                      -0.04751                      -0.09892
                       0.87332                      -0.04974                      -0.09840
                       0.87290                      -0.05008                      -0.09831
                       0.87291                      -0.04968                      -0.09839
                       0.92587                      -0.01287                      -0.10929
        </DataArray>
        <DataArray type="Float32" Name="TranslationalAcceleration" NumberOfComponents="3" format="ascii">
                       0.43172                      -0.72048                      -2.89042
                       0.01303                      -1.35655                      -5.92588
                      -0.39484                      -1.95553                      -8.94854
                      -0.78876                      -2.50816                     -11.95521
                      -1.16720                      -3.00893                     -14.94407
                      -1.53274                      -3.45466                     -17.91414
                      -1.89314                      -3.84358                     -20.86484
                      -2.26215                      -4.17489                     -23.79542
                      -2.65951                      -4.44864                     -26.70446
                      -3.10998                      -4.66589                     -29.58933
                      -3.64141                      -4.82882                     -32.44581
                      -4.28196                      -4.94100                     -35.26803
                      -5.05640                      -5.00735                     -38.04903
                      -5.98159                      -5.03399                     -40.78230
                      -7.06119                      -5.02840                     -43.46450
                      -8.27949                      -4.99966                     -46.09941
                      -9.59439                      -4.95838                     -48.70239
                     -10.26884                      -4.93603                     -49.99867
                       0.64339                      -0.39462                      -1.36999
        </DataArray>
        <DataArray type="Float32" Name="RotationalAcceleration" NumberOfComponents="3" format="ascii">
                       0.01880                      -0.01365                       0.00871
                       0.01121                      -0.01157                       0.00886
                       0.00089                      -0.00882                       0.00909
                      -0.01107                      -0.00531                       0.00928
                      -0.02402                      -0.00189                       0.00956
                      -0.03754                       0.00016                       0.01015
                      -0.05133                      -0.00067                       0.01131
                      -0.06517                      -0.00608                       0.01336
                      -0.07886                      -0.01764                       0.01657
                      -0.09212                      -0.03653                       0.02115
                      -0.10463                      -0.06331                       0.02720
                      -0.11603                      -0.09764                       0.03461
                      -0.12598                      -0.13807                       0.04309
                      -0.13417                      -0.18174                       0.05206
                      -0.14026                      -0.22420                       0.06065
                      -0.14393                      -0.25911                       0.06761
                      -0.14500                      -0.27798                       0.07131
                      -0.14487                      -0.28221                       0.07211
                       0.02174                      -0.01460                       0.00868
        </DataArray>
        <DataArray type="Float32" Name="OrientationX" NumberOfComponents="3" format="ascii">
                       0.97545                      -0.21822                      -0.02962
                       0.97531                      -0.21859                      -0.03152
                       0.97508                      -0.21916                      -0.03452
                       0.97746                      -0.20712                      -0.04096
                       0.98265                      -0.17813                      -0.05167
                       0.98492                      -0.16206                      -0.06064
                       0.98675                      -0.14594                      -0.07082
                       0.98819                      -0.12905                      -0.08263
                       0.98902                      -0.11219                      -0.09616
                       0.98910                      -0.09642                      -0.11131
                       0.98843                      -0.08121                      -0.12812
                       0.98699                      -0.06718                      -0.14610
                       0.98481                      -0.05654                      -0.16416
                       0.98224                      -0.04737                      -0.18157
                       0.97965                      -0.03785                      -0.19713
                       0.97756                      -0.02770                      -0.20881
                       0.97676                      -0.02044                      -0.21334
                       0.97681                      -0.01795                      -0.21336
                       0.97549                      -0.21810                      -0.02899
        </DataArray>
        <DataArray type="Float32" Name="OrientationY" NumberOfComponents="3" format="ascii">
                       0.20821                       0.95766                      -0.19885
                       0.20820                       0.95764                      -0.19894
                       0.20819                       0.95762                      -0.19907
                       0.19518                       0.96043                      -0.19871
                       0.16480                       0.96636                      -0.19744
                       0.14739                       0.96934                      -0.19661
                       0.12973                       0.97207                      -0.19559
                       0.11104                       0.97464                      -0.19430
                       0.09208                       0.97692                      -0.19274
                       0.07393                       0.97881                      -0.19099
                       0.05606                       0.98038                      -0.18896
                       0.03917                       0.98163                      -0.18673
                       0.02561                       0.98246                      -0.18471
                       0.01364                       0.98308                      -0.18269
                       0.00169                       0.98358                      -0.18045
                      -0.01014                       0.98397                      -0.17803
                      -0.01792                       0.98416                      -0.17636
                      -0.02032                       0.98421                      -0.17583
                       0.20821                       0.95766                      -0.19882
        </DataArray>
        <DataArray type="Float32" Name="OrientationZ" NumberOfComponents="3" format="ascii">
                       0.07176                       0.18780                       0.97958
                       0.07368                       0.18747                       0.97950
                       0.07668                       0.18692                       0.97938
                       0.08050                       0.18624                       0.97920
                       0.08510                       0.18550                       0.97895
                       0.09065                       0.18470                       0.97860
                       0.09739                       0.18382                       0.97812
                       0.10561                       0.18283                       0.97746
                       0.11556                       0.18177                       0.97653
                       0.12737                       0.18067                       0.97526
                       0.14095                       0.17959                       0.97359
                       0.15596                       0.17858                       0.97149
                       0.17172                       0.17770                       0.96899
                       0.18715                       0.17697                       0.96626
                       0.20072                       0.17645                       0.96363
                       0.21040                       0.17616                       0.96161
                       0.21356                       0.17608                       0.96093
                       0.21315                       0.17609                       0.96102
                       0.07112                       0.18791                       0.97961
        </DataArray>
      </PointData>
      <Lines>
        <DataArray type="Int32" Name="connectivity" format="ascii">
      0      1
      1      2
      2      3
      3      4
      4      5
      5      6
      6      7
      7      8
      8      9
      9     10
     10     11
     11     12
     12     13
     13     14
     14     15
     15     16
     16     17
     18      0
        </DataArray>
        <DataArray type="Int32" Name="offsets" format="ascii">
      2
      4
      6
      8
     10
     12
     14
     16
     18
     20
     22
     24
     26
     28
     30
     32
     34
     36
        </DataArray>
      </Lines>
    </Piece>
  </PolyData>
</VTKFile>
