<?xml version="1.0"?>
<VTKFile type="PolyData" version="0.1" byte_order="LittleEndian">
  <PolyData>
    <Piece NumberOfPoints="     19" NumberOfVerts="  0" NumberOfLines="     18"
           NumberOfStrips="  0" NumberOfPolys="      0">
      <Points>
        <DataArray type="Float32" NumberOfComponents="3" format="ascii">
                       2.46121                      -3.13243                      89.03407
                       2.16666                      -6.53173                      87.83185
                       1.87991                      -9.93010                      86.62512
                       1.60410                     -13.32723                      85.41237
                       1.34198                     -16.72294                      84.19264
                       1.09651                     -20.11714                      82.96526
                       0.87124                     -23.50971                      81.72958
                       0.67044                     -26.90054                      80.48494
                       0.49918                     -30.28945                      79.23071
                       0.36302                     -33.67619                      77.96642
                       0.26757                     -37.06045                      76.69183
                       0.21782                     -40.44184                      75.40707
                       0.21713                     -43.81993                      74.11270
                       0.26611                     -47.19438                      72.80971
                       0.36116                     -50.56515                      71.49961
                       0.49289                     -53.93277                      70.18443
                       0.64419                     -57.29863                      68.86674
                       0.72206                     -58.98136                      68.20762
                       2.61000                      -1.43259                      89.63427
        </DataArray>
      </Points>
      <PointData>
        <DataArray type="Float32" Name="TranslationalVelocity" NumberOfComponents="3" format="ascii">
                      -0.83243                       1.00667                      -2.91819
                      -1.18834                       2.15170                      -6.06859
                      -1.54494                       3.29930                      -9.21568
                      -1.90262                       4.45030                     -12.35850
                      -2.26178                       5.60516                     -15.49645
                      -2.62308                       6.76409                     -18.62913
                      -2.98749                       7.92725                     -21.75618
                      -3.35639                       9.09469                     -24.87722
                      -3.73157                      10.26634                     -27.99182
                      -4.11512                      11.44188                     -31.09957
                      -4.50927                      12.62067                     -34.20008
                      -4.91617                      13.80178                     -37.29302
                      -5.33752                      14.98399                     -40.37824
                      -5.77421                      16.16603                     -43.45588
                      -6.22578                      17.34682                     -46.52660
                      -6.68988                      18.52585                     -49.59183
                      -7.16164                      19.70360                     -52.65405
                      -7.39865                      20.29230                     -54.18479
                      -0.65460                       0.43467                      -1.34231
        </DataArray>
        <DataArray type="Float32" Name="RotationalVelocity" NumberOfComponents="3" format="ascii">
                       0.92594                      -0.01301                      -0.10921
                       0.92537                      -0.01291                      -0.10935
                       0.92458                      -0.01274                      -0.10962
                       0.92365                      -0.01253                      -0.10998
                       0.92262                      -0.01227                      -0.11047
                       0.92153                      -0.01193                      -0.11117
                       0.92038                      -0.01147                      -0.11218
                       0.91917                      -0.01086                      -0.11360
                       0.91790                      -0.01006                      -0.11555
                       0.91659                      -0.00906                      -0.11807
                       0.91527                      -0.00784                      -0.12118
                       0.91397                      -0.00644                      -0.12483
                       0.91273                      -0.00492                      -0.12884
                       0.91162                      -0.00338                      -0.13293
                       0.91070                      -0.00197                      -0.13669
                       0.91008                      -0.00091                      -0.13955
                       0.90985                      -0.00047                      -0.14072
                       0.90984                      -0.00045                      -0.14079
                       0.92615                      -0.01304                      -0.10918
        </DataArray>
        <DataArray type="Float32" Name="TranslationalAcceleration" NumberOfComponents="3" format="ascii">
                       1.05135                       2.62238                       0.79421
                       1.25043                       5.60393                       1.76648
                       1.43011                       8.58333                       2.73740
                       1.58279                      11.55972                       3.70767
                       1.70226                      14.53248                       4.67785
                       1.78679                      17.50131                       5.64715
                       1.84119                      20.46596                       6.61341
                       1.87798                      23.42634                       7.57299
                       1.91754                      26.38269                       8.52091
                       1.98729                      29.33588                       9.45144
                       2.11974                      32.28771                      10.35890
                       2.34955                      35.24116                      11.23849
                       2.70940                      38.20045                      12.08710
                       3.22480                      41.17049                      12.90382
                       3.90779                      44.15554                      13.69061
                       4.74951                      47.15715                      14.45267
                       5.71171                      50.17160                      15.19863
                       6.21603                      51.68116                      15.56888
                       0.94790                       1.13118                       0.30768
        </DataArray>
        <DataArray type="Float32" Name="RotationalAcceleration" NumberOfComponents="3" format="ascii">
                       0.02299                      -0.01158                       0.00796
                       0.02397                      -0.01020                       0.00380
                       0.02512                      -0.00814                      -0.00233
                       0.02612                      -0.00535                      -0.01050
                       0.02720                      -0.00214                      -0.01988
                       0.02869                       0.00094                      -0.02896
                       0.03095                       0.00316                      -0.03584
                       0.03436                       0.00378                      -0.03842
                       0.03918                       0.00204                      -0.03471
                       0.04550                      -0.00262                      -0.02307
                       0.05319                      -0.01056                      -0.00248
                       0.06189                      -0.02177                       0.02712
                       0.07114                      -0.03580                       0.06461
                       0.08031                      -0.05169                       0.10737
                       0.08858                      -0.06782                       0.15103
                       0.09495                      -0.08184                       0.18919
                       0.09837                      -0.09058                       0.21312
                       0.09921                      -0.09318                       0.22029
                       0.02261                      -0.01213                       0.00961
        </DataArray>
        <DataArray type="Float32" Name="OrientationX" NumberOfComponents="3" format="ascii">
                       0.93876                       0.03872                      -0.34239
                       0.93892                       0.04053                      -0.34175
                       0.93915                       0.04336                      -0.34075
                       0.94382                       0.04241                      -0.32774
                       0.95367                       0.03611                      -0.29868
                       0.95906                       0.03517                      -0.28100
                       0.96425                       0.03512                      -0.26267
                       0.96939                       0.03590                      -0.24288
                       0.97425                       0.03795                      -0.22226
                       0.97855                       0.04170                      -0.20176
                       0.98238                       0.04688                      -0.18091
                       0.98559                       0.05344                      -0.16046
                       0.98782                       0.06166                      -0.14283
                       0.98946                       0.07003                      -0.12675
                       0.99083                       0.07675                      -0.11123
                       0.99205                       0.08016                      -0.09705
                       0.99287                       0.07956                      -0.08880
                       0.99316                       0.07814                      -0.08673
                       0.93871                       0.03812                      -0.34260
        </DataArray>
        <DataArray type="Float32" Name="OrientationY" NumberOfComponents="3" format="ascii">
                       0.33461                      -0.33966                       0.87901
                       0.33458                      -0.34003                       0.87888
                       0.33454                      -0.34053                       0.87870
                       0.32196                      -0.34169                       0.88295
                       0.29251                      -0.34353                       0.89243
                       0.27556                      -0.34480                       0.89732
                       0.25831                      -0.34606                       0.90195
                       0.23999                      -0.34734                       0.90651
                       0.22135                      -0.34862                       0.91075
                       0.20344                      -0.34989                       0.91443
                       0.18575                      -0.35119                       0.91770
                       0.16897                      -0.35249                       0.92044
                       0.15544                      -0.35367                       0.92236
                       0.14346                      -0.35481                       0.92387
                       0.13144                      -0.35597                       0.92521
                       0.11948                      -0.35710                       0.92639
                       0.11159                      -0.35780                       0.92711
                       0.10914                      -0.35800                       0.92732
                       0.33462                      -0.33952                       0.87907
        </DataArray>
        <DataArray type="Float32" Name="OrientationZ" NumberOfComponents="3" format="ascii">
                      -0.08226                      -0.93975                      -0.33182
                      -0.08059                      -0.93954                      -0.33282
                      -0.07794                      -0.93923                      -0.33432
                      -0.07454                      -0.93886                      -0.33615
                      -0.07038                      -0.93845                      -0.33818
                      -0.06533                      -0.93802                      -0.34037
                      -0.05922                      -0.93756                      -0.34276
                      -0.05181                      -0.93705                      -0.34533
                      -0.04292                      -0.93649                      -0.34805
                      -0.03246                      -0.93586                      -0.35087
                      -0.02051                      -0.93513                      -0.35371
                      -0.00737                      -0.93429                      -0.35644
                       0.00636                      -0.93333                      -0.35895
                       0.01973                      -0.93231                      -0.36112
                       0.03141                      -0.93134                      -0.36279
                       0.03960                      -0.93062                      -0.36383
                       0.04199                      -0.93040                      -0.36413
                       0.04141                      -0.93045                      -0.36408
                      -0.08281                      -0.93983                      -0.33146
        </DataArray>
      </PointData>
      <Lines>
        <DataArray type="Int32" Name="connectivity" format="ascii">
      0      1
      1      2
      2      3
      3      4
      4      5
      5      6
      6      7
      7      8
      8      9
      9     10
     10     11
     11     12
     12     13
     13     14
     14     15
     15     16
     16     17
     18      0
        </DataArray>
        <DataArray type="Int32" Name="offsets" format="ascii">
      2
      4
      6
      8
     10
     12
     14
     16
     18
     20
     22
     24
     26
     28
     30
     32
     34
     36
        </DataArray>
      </Lines>
    </Piece>
  </PolyData>
</VTKFile>
