<?xml version="1.0"?>
<VTKFile type="PolyData" version="0.1" byte_order="LittleEndian">
  <PolyData>
    <Piece NumberOfPoints="     19" NumberOfVerts="  0" NumberOfLines="     18"
           NumberOfStrips="  0" NumberOfPolys="      0">
      <Points>
        <DataArray type="Float32" NumberOfComponents="3" format="ascii">
                       2.65628                       2.91945                      88.59404
                       2.29613                       6.11136                      86.92988
                       1.93607                       9.30323                      85.26565
                       1.57616                      12.49508                      83.60133
                       1.21641                      15.68688                      81.93691
                       0.85686                      18.87865                      80.27237
                       0.49755                      22.07039                      78.60771
                       0.13851                      25.26210                      76.94293
                      -0.22019                      28.45378                      75.27804
                      -0.57849                      31.64544                      73.61302
                      -0.93632                      34.83709                      71.94787
                      -1.29364                      38.02873                      70.28260
                      -1.65039                      41.22036                      68.61720
                      -2.00657                      44.41200                      66.95168
                      -2.36221                      47.60363                      65.28603
                      -2.71743                      50.79526                      63.62030
                      -3.07241                      53.98689                      61.95451
                      -3.24987                      55.58271                      61.12161
                       2.83638                       1.32349                      89.42610
        </DataArray>
      </Points>
      <PointData>
        <DataArray type="Float32" Name="TranslationalVelocity" NumberOfComponents="3" format="ascii">
                       0.34175                       1.46193                       2.72285
                       0.71067                       3.05967                       5.70754
                       1.08483                       4.65608                       8.68839
                       1.46614                       6.25090                      11.66448
                       1.85610                       7.84397                      14.63517
                       2.25625                       9.43526                      17.60005
                       2.66852                      11.02489                      20.55894
                       3.09545                      12.61308                      23.51174
                       3.54010                      14.20013                      26.45840
                       4.00595                      15.78638                      29.39881
                       4.49659                      17.37211                      32.33282
                       5.01527                      18.95758                      35.26022
                       5.56428                      20.54295                      38.18089
                       6.14425                      22.12835                      41.09494
                       6.75323                      23.71381                      44.00290
                       7.38567                      25.29931                      46.90593
                       8.03126                      26.88480                      49.80614
                       8.35572                      27.67754                      51.25588
                       0.15831                       0.66276                       1.22969
        </DataArray>
        <DataArray type="Float32" Name="RotationalVelocity" NumberOfComponents="3" format="ascii">
                       0.93584                      -0.00216                      -0.11381
                       0.93488                      -0.00277                      -0.11478
                       0.93362                      -0.00370                      -0.11629
                       0.93215                      -0.00485                      -0.11818
                       0.93054                      -0.00620                      -0.12041
                       0.92886                      -0.00776                      -0.12305
                       0.92718                      -0.00961                      -0.12623
                       0.92553                      -0.01182                      -0.13011
                       0.92389                      -0.01446                      -0.13481
                       0.92226                      -0.01756                      -0.14041
                       0.92062                      -0.02111                      -0.14687
                       0.91896                      -0.02505                      -0.15406
                       0.91731                      -0.02920                      -0.16166
                       0.91573                      -0.03329                      -0.16916
                       0.91434                      -0.03691                      -0.17581
                       0.91332                      -0.03952                      -0.18061
                       0.91296                      -0.04041                      -0.18222
                       0.91299                      -0.04032                      -0.18206
                       0.93622                      -0.00195                      -0.11349
        </DataArray>
        <DataArray type="Float32" Name="TranslationalAcceleration" NumberOfComponents="3" format="ascii">
                       0.43956                      -2.71466                       1.11902
                       0.75205                      -5.61419                       2.45886
                       1.20725                      -8.53540                       3.71229
                       1.85824                     -11.48155                       4.85867
                       2.74710                     -14.45452                       5.88371
                       3.91562                     -17.45443                       6.77751
                       5.41371                     -20.47877                       7.53491
                       7.30317                     -23.52269                       8.15366
                       9.65718                     -26.58031                       8.63182
                      12.55674                     -29.64555                       8.96652
                      16.08362                     -32.71302                       9.15365
                      20.30961                     -35.77875                       9.18851
                      25.28253                     -38.84043                       9.06821
                      31.00880                     -41.89730                       8.79557
                      37.43247                     -44.95007                       8.38322
                      44.41090                     -48.00065                       7.85869
                      51.68729                     -51.05122                       7.27195
                      55.35983                     -52.57674                       6.97093
                       0.31133                      -1.26979                       0.43059
        </DataArray>
        <DataArray type="Float32" Name="RotationalAcceleration" NumberOfComponents="3" format="ascii">
                      -0.03308                      -0.03940                      -0.00482
                      -0.05373                      -0.05566                      -0.03153
                      -0.08102                      -0.08039                      -0.07305
                      -0.11267                      -0.11126                      -0.12543
                      -0.14749                      -0.14747                      -0.18735
                      -0.18406                      -0.18952                      -0.26007
                      -0.22085                      -0.23872                      -0.34648
                      -0.25740                      -0.29661                      -0.44961
                      -0.29378                      -0.36454                      -0.57203
                      -0.33034                      -0.44320                      -0.71501
                      -0.36751                      -0.53216                      -0.87760
                      -0.40549                      -0.62936                      -1.05581
                      -0.44357                      -0.73065                      -1.24184
                      -0.48000                      -0.82933                      -1.42324
                      -0.51201                      -0.91569                      -1.58197
                      -0.53522                      -0.97658                      -1.69373
                      -0.54295                      -0.99489                      -1.72718
                      -0.54195                      -0.99101                      -1.71995
                      -0.02478                      -0.03379                       0.00416
        </DataArray>
        <DataArray type="Float32" Name="OrientationX" NumberOfComponents="3" format="ascii">
                       0.98721                       0.14545                       0.06531
                       0.98721                       0.14543                       0.06532
                       0.98721                       0.14541                       0.06533
                       0.98879                       0.13940                       0.05355
                       0.99177                       0.12536                       0.02609
                       0.99305                       0.11727                       0.01043
                       0.99402                       0.10903                      -0.00543
                       0.99471                       0.10027                      -0.02219
                       0.99505                       0.09135                      -0.03915
                       0.99503                       0.08275                      -0.05536
                       0.99469                       0.07424                      -0.07130
                       0.99407                       0.06614                      -0.08636
                       0.99336                       0.05957                      -0.09845
                       0.99257                       0.05372                      -0.10914
                       0.99164                       0.04788                      -0.11984
                       0.99056                       0.04210                      -0.13045
                       0.98977                       0.03834                      -0.13743
                       0.98951                       0.03719                      -0.13959
                       0.98721                       0.14546                       0.06530
        </DataArray>
        <DataArray type="Float32" Name="OrientationY" NumberOfComponents="3" format="ascii">
                       0.12453                      -0.44761                      -0.88551
                       0.12453                      -0.44763                      -0.88550
                       0.12453                      -0.44766                      -0.88549
                       0.11138                      -0.44958                      -0.88627
                       0.08070                      -0.45372                      -0.88748
                       0.06316                      -0.45590                      -0.88779
                       0.04538                      -0.45795                      -0.88782
                       0.02657                      -0.45997                      -0.88754
                       0.00750                      -0.46183                      -0.88693
                      -0.01075                      -0.46346                      -0.88605
                      -0.02873                      -0.46490                      -0.88490
                      -0.04575                      -0.46613                      -0.88353
                      -0.05943                      -0.46702                      -0.88225
                      -0.07155                      -0.46772                      -0.88097
                      -0.08369                      -0.46836                      -0.87957
                      -0.09570                      -0.46891                      -0.87804
                      -0.10360                      -0.46924                      -0.87697
                      -0.10603                      -0.46933                      -0.87663
                       0.12453                      -0.44761                      -0.88552
        </DataArray>
        <DataArray type="Float32" Name="OrientationZ" NumberOfComponents="3" format="ascii">
                      -0.09957                       0.88232                      -0.46000
                      -0.09954                       0.88231                      -0.46002
                      -0.09951                       0.88230                      -0.46004
                      -0.09947                       0.88229                      -0.46007
                      -0.09942                       0.88228                      -0.46010
                      -0.09936                       0.88227                      -0.46013
                      -0.09929                       0.88226                      -0.46017
                      -0.09920                       0.88226                      -0.46020
                      -0.09910                       0.88225                      -0.46023
                      -0.09898                       0.88225                      -0.46027
                      -0.09885                       0.88224                      -0.46030
                      -0.09869                       0.88224                      -0.46034
                      -0.09853                       0.88224                      -0.46037
                      -0.09838                       0.88224                      -0.46041
                      -0.09824                       0.88224                      -0.46044
                      -0.09814                       0.88224                      -0.46046
                      -0.09811                       0.88224                      -0.46047
                      -0.09811                       0.88224                      -0.46047
                      -0.09957                       0.88232                      -0.45999
        </DataArray>
      </PointData>
      <Lines>
        <DataArray type="Int32" Name="connectivity" format="ascii">
      0      1
      1      2
      2      3
      3      4
      4      5
      5      6
      6      7
      7      8
      8      9
      9     10
     10     11
     11     12
     12     13
     13     14
     14     15
     15     16
     16     17
     18      0
        </DataArray>
        <DataArray type="Int32" Name="offsets" format="ascii">
      2
      4
      6
      8
     10
     12
     14
     16
     18
     20
     22
     24
     26
     28
     30
     32
     34
     36
        </DataArray>
      </Lines>
    </Piece>
  </PolyData>
</VTKFile>
