<?xml version="1.0"?>
<VTKFile type="PolyData" version="0.1" byte_order="LittleEndian">
  <PolyData>
    <Piece NumberOfPoints="     17" NumberOfVerts="  0" NumberOfLines="      0"
           NumberOfStrips="  0" NumberOfPolys="      0">
      <Points>
        <DataArray type="Float32" NumberOfComponents="3" format="ascii">
                       2.22790                      -2.49499                      87.94542
                       1.80177                      -5.18153                      85.56040
                       1.38311                      -7.86573                      83.17144
                       0.97495                     -10.54687                      80.77724
                       0.57992                     -13.22454                      78.37697
                       0.20087                     -15.89852                      75.97001
                      -0.15880                     -18.56864                      73.55582
                      -0.49501                     -21.23474                      71.13382
                      -0.80293                     -23.89669                      68.70352
                      -1.07728                     -26.55436                      66.26456
                      -1.31272                     -29.20768                      63.81682
                      -1.50456                     -31.85661                      61.36055
                      -1.64962                     -34.50116                      58.89636
                      -1.74736                     -37.14148                      56.42527
                      -1.80124                     -39.77795                      53.94868
                      -1.82025                     -42.41142                      51.46830
                      -1.82071                     -45.04329                      48.98610
        </DataArray>
      </Points>
      <PointData>
        <DataArray type="Float32" Name="Force" NumberOfComponents="3" format="ascii">
                     171.05048                     -72.07983                      50.59010
                     611.61121                    -220.98205                     141.84399
                    2125.00007                     466.60983                    -889.29795
                    3572.52763                     822.86154                   -1520.53783
                    2184.06418                     445.46589                    -852.77282
                    4740.82991                     847.28703                   -1684.40607
                    5743.83911                     889.03377                   -1830.32614
                    6379.05431                     861.99648                   -1814.61855
                    6880.60098                     845.96714                   -1766.26628
                    8737.00815                    1002.09095                   -2020.29167
                   10124.68061                    1123.49658                   -2107.61479
                   11720.58414                    1324.39083                   -2224.68430
                    6788.21074                     780.52251                   -1195.77247
                   13666.14662                    1593.57952                   -2216.31197
                   13354.10376                    1574.34960                   -1956.68083
                   19261.06114                    2224.66438                   -2514.94715
                    7988.14861                     831.18484                    -903.36050
        </DataArray>
        <DataArray type="Float32" Name="Moment" NumberOfComponents="3" format="ascii">
                     -20.00142                     -18.14384                      17.84405
                     173.91736                    -328.49148                     234.23373
                    1091.41302                   -1863.02306                    1249.16694
                    1174.41940                   -2527.83919                    1574.51225
                      40.77791                    -384.03044                     -33.59664
                   -1005.41585                    1362.10867                   -1844.18116
                    -633.00753                    1229.86994                   -1016.19813
                     -77.77532                     818.99634                     548.13561
                     161.66096                     399.38177                    1234.40178
                     349.04068                    -275.74641                    1841.38622
                     890.08319                   -2051.45078                    3559.63089
                    1568.84698                   -4844.49529                    5638.28670
                    -110.02376                     370.07963                    -302.48201
                   -1880.33033                    6377.92915                   -6613.75975
                   -1672.40015                    5948.76954                   -6234.90555
                    -370.02664                     904.21081                    -871.83424
                     -91.01905                       5.59466                     273.08597
        </DataArray>
      </PointData>
    </Piece>
  </PolyData>
</VTKFile>
