<?xml version="1.0"?>
<VTKFile type="PolyData" version="0.1" byte_order="LittleEndian">
  <PolyData>
    <Piece NumberOfPoints="     17" NumberOfVerts="  0" NumberOfLines="      0"
           NumberOfStrips="  0" NumberOfPolys="      0">
      <Points>
        <DataArray type="Float32" NumberOfComponents="3" format="ascii">
                       2.35889                       3.09433                      89.08655
                       2.07563                       6.51718                      87.95021
                       1.80013                       9.94002                      86.81197
                       1.53531                      13.36293                      85.67140
                       1.28356                      16.78593                      84.52817
                       1.04751                      20.20906                      83.38196
                       0.83054                      23.63239                      82.23261
                       0.63707                      27.05602                      81.08001
                       0.47253                      30.48000                      79.92397
                       0.34308                      33.90422                      78.76424
                       0.25513                      37.32835                      77.60042
                       0.21454                      40.75181                      76.43204
                       0.22558                      44.17380                      75.25870
                       0.28966                      47.59346                      74.08023
                       0.40376                      51.01017                      72.89685
                       0.55862                      54.42392                      71.70935
                       0.73672                      57.83575                      70.51943
        </DataArray>
      </Points>
      <PointData>
        <DataArray type="Float32" Name="Force" NumberOfComponents="3" format="ascii">
                     159.77964                      -9.90257                     -70.04972
                     532.31204                     -33.30756                    -229.47651
                    2208.94206                     349.79016                     537.79707
                    3802.49631                     595.63409                     941.97687
                    2311.59496                     324.31915                     482.60959
                    4934.49652                     603.04461                     825.09674
                    5880.92192                     601.93852                     743.93492
                    6484.28081                     538.55766                     601.80653
                    6924.20939                     450.80169                     471.31602
                    8712.72395                     410.50732                     424.77484
                   10028.47787                     286.73005                     347.32734
                   11462.07835                     123.14073                     313.80002
                    6593.86029                     -19.78098                     149.62951
                   13207.48908                    -224.18143                     233.98245
                   12804.91843                    -418.64151                     147.38570
                   18259.29621                    -860.52620                      32.01540
                    7462.23222                    -430.79763                    -116.93445
        </DataArray>
        <DataArray type="Float32" Name="Moment" NumberOfComponents="3" format="ascii">
                     -19.41029                      -2.76987                     -17.31990
                     102.38147                     -58.73657                    -398.92863
                     726.22827                    -317.13605                   -2312.92150
                     732.54264                     -65.20290                   -3198.96593
                       0.72095                     362.44481                    -376.62715
                    -625.44552                    1297.95460                    2091.71599
                    -373.23210                     637.67561                    1475.98165
                    -114.64349                    -466.68551                     293.09994
                     -21.68896                    -920.31080                    -390.83823
                       9.10479                   -1154.42045                   -1273.44096
                      98.29274                   -1867.35949                   -3598.85785
                     161.95211                   -2517.18459                   -6837.04696
                     -22.43680                     144.19174                     392.18565
                    -162.20761                    2915.63510                    8327.62350
                     -57.77362                    2753.66156                    7751.21147
                    -128.82974                     441.36443                    1112.47521
                    -123.72579                    -168.70072                     -82.76057
        </DataArray>
      </PointData>
    </Piece>
  </PolyData>
</VTKFile>
