<?xml version="1.0"?>
<VTKFile type="PolyData" version="0.1" byte_order="LittleEndian">
  <PolyData>
    <Piece NumberOfPoints="     19" NumberOfVerts="  0" NumberOfLines="     18"
           NumberOfStrips="  0" NumberOfPolys="      0">
      <Points>
        <DataArray type="Float32" NumberOfComponents="3" format="ascii">
                       2.75054                      -0.09964                      91.62073
                       2.84684                      -0.16426                      92.98250
                       3.01771                      -0.38787                      95.70331
                       3.18162                      -0.65586                      98.42277
                       3.38798                      -1.01714                     101.82118
                       3.70283                      -1.30720                     105.90078
                       4.06108                      -1.46666                     109.98271
                       4.44039                      -1.62299                     114.06284
                       4.84949                      -1.77495                     118.14022
                       5.29577                      -1.92512                     122.21372
                       5.78202                      -2.07756                     126.28246
                       6.32308                      -2.23114                     130.34417
                       6.92731                      -2.38572                     134.39687
                       7.59964                      -2.54088                     138.43875
                       8.34126                      -2.69615                     142.46848
                       9.00448                      -2.82522                     145.81801
                       9.55808                      -2.92023                     148.49327
                      10.11843                      -2.96011                     151.16965
                      10.39819                      -3.02169                     152.50595
        </DataArray>
      </Points>
      <PointData>
        <DataArray type="Float32" Name="Force" NumberOfComponents="3" format="ascii">
                       0.01240                       2.37695                       0.10606
                      77.48966                      25.82952                      -4.36485
                      95.75068                      61.43688                      -4.18265
                      84.72930                      80.24269                      -2.67796
                     822.32555                    -327.89527                     -78.07614
                    1172.78458                    -479.62436                    -116.74570
                    1349.91136                    -454.95937                    -136.87153
                    1719.41902                    -488.63364                    -181.16759
                    1890.95151                    -460.69328                    -211.00585
                    2196.90998                    -467.61471                    -264.42087
                    2700.25409                    -504.07145                    -356.37036
                    3125.12968                    -522.74408                    -456.95320
                    3615.93671                    -562.07798                    -587.95235
                    3975.08781                    -569.74123                    -714.19971
                    4282.89773                    -563.86360                    -837.98715
                    4459.60833                    -536.94912                    -918.71660
                    4369.06442                    -476.04675                    -920.95546
                    3168.67213                    -309.76633                    -673.49924
                    1275.49604                      22.47008                    -264.19508
        </DataArray>
        <DataArray type="Float32" Name="Moment" NumberOfComponents="3" format="ascii">
                       0.00000                       0.00000                       0.00000
                       0.00000                       0.00000                       0.00000
                       0.00000                       0.00000                       0.00000
                       0.00000                       0.00000                       0.00000
                     -18.23043                      10.66031                    -236.77928
                     -28.93794                      16.06753                    -356.70995
                     -45.84380                      23.96887                    -531.81205
                     -72.35727                      35.26336                    -781.83592
                    -102.70032                      46.09307                   -1020.99582
                    -128.73456                      52.54263                   -1162.49505
                    -150.71629                      55.22811                   -1220.11043
                    -178.77796                      58.47359                   -1289.56536
                    -184.81651                      53.98385                   -1188.23906
                    -204.05938                      53.65198                   -1178.55228
                    -215.28733                      51.77423                   -1135.15731
                    -216.35236                      49.27447                   -1079.01028
                    -199.48847                      44.29021                    -969.27836
                    -104.25285                      22.89954                    -501.02001
                     -88.39952                      19.43050                    -425.12763
        </DataArray>
        <DataArray type="Float32" Name="TranslationalVelocity" NumberOfComponents="3" format="ascii">
                      -0.25322                      -1.43625                      -0.07259
                      -0.26890                      -2.71531                      -0.13218
                      -0.31109                      -5.26857                      -0.33939
                      -0.36065                      -7.81991                      -0.58788
                      -0.43076                     -11.00837                      -0.92273
                      -0.50903                     -14.84294                      -1.18963
                      -0.58620                     -18.68414                      -1.33325
                      -0.67797                     -22.52574                      -1.47223
                      -0.78613                     -26.36780                      -1.60485
                      -0.91265                     -30.21006                      -1.73288
                      -1.05725                     -34.05212                      -1.85975
                      -1.22270                     -37.89362                      -1.98314
                      -1.40918                     -41.73384                      -2.10199
                      -1.61563                     -45.57189                      -2.21517
                      -1.83925                     -49.40679                      -2.32199
                      -2.03508                     -52.59999                      -2.40647
                      -2.19454                     -55.15330                      -2.46433
                      -2.34726                     -57.70849                      -2.47060
                      -2.42766                     -58.98428                      -2.51264
        </DataArray>
        <DataArray type="Float32" Name="RotationalVelocity" NumberOfComponents="3" format="ascii">
                       0.93168                      -0.00613                      -0.10693
                       0.93169                      -0.00644                      -0.10695
                       0.93172                      -0.00728                      -0.10698
                       0.93172                      -0.00841                      -0.10704
                       0.93170                      -0.01028                      -0.10712
                       0.93164                      -0.01311                      -0.10724
                       0.93158                      -0.01647                      -0.10739
                       0.93152                      -0.02030                      -0.10756
                       0.93145                      -0.02456                      -0.10774
                       0.93139                      -0.02921                      -0.10795
                       0.93136                      -0.03418                      -0.10817
                       0.93137                      -0.03929                      -0.10840
                       0.93144                      -0.04431                      -0.10863
                       0.93154                      -0.04891                      -0.10885
                       0.93167                      -0.05263                      -0.10902
                       0.93178                      -0.05458                      -0.10912
                       0.93184                      -0.05507                      -0.10914
                       0.93187                      -0.05469                      -0.10913
                       0.93188                      -0.05414                      -0.10910
        </DataArray>
        <DataArray type="Float32" Name="TranslationalAcceleration" NumberOfComponents="3" format="ascii">
                       1.00120                       0.24280                      -1.36800
                       0.86300                       0.34658                      -2.55745
                       0.59378                       0.61474                      -4.93254
                       0.34163                       0.84990                      -7.31668
                       0.06272                       1.03711                     -10.32077
                      -0.20055                       0.92146                     -13.96108
                      -0.35502                       0.42759                     -17.62104
                      -0.38687                      -0.33673                     -21.30298
                      -0.31595                      -1.36258                     -25.00519
                      -0.19444                      -2.62749                     -28.72342
                      -0.09432                      -4.08334                     -32.44938
                      -0.11408                      -5.72897                     -36.17160
                      -0.36738                      -7.54031                     -39.86948
                      -0.96151                      -9.49522                     -43.51631
                      -1.97428                     -11.57077                     -47.08398
                      -3.14597                     -13.37203                     -49.98486
                      -4.29113                     -14.85469                     -52.25144
                      -5.57573                     -16.39883                     -54.45626
                      -6.23719                     -17.13406                     -55.57638
        </DataArray>
        <DataArray type="Float32" Name="OrientationX" NumberOfComponents="3" format="ascii">
                       0.96950                      -0.23194                      -0.07917
                       0.96947                      -0.23192                      -0.07957
                       0.96939                      -0.23187                      -0.08072
                       0.96928                      -0.23180                      -0.08230
                       0.96908                      -0.23168                      -0.08493
                       0.97575                      -0.20039                      -0.08805
                       0.97976                      -0.17761                      -0.09231
                       0.98265                      -0.15755                      -0.09790
                       0.98508                      -0.13623                      -0.10512
                       0.98686                      -0.11414                      -0.11437
                       0.98763                      -0.09305                      -0.12618
                       0.98751                      -0.07200                      -0.14017
                       0.98637                      -0.05275                      -0.15583
                       0.98434                      -0.03793                      -0.17218
                       0.98202                      -0.02339                      -0.18732
                       0.98032                      -0.01137                      -0.19709
                       0.97944                      -0.00255                      -0.20170
                       0.97905                       0.00215                      -0.20362
                       0.97908                       0.00215                      -0.20349
        </DataArray>
        <DataArray type="Float32" Name="OrientationY" NumberOfComponents="3" format="ascii">
                       0.23468                       0.97170                       0.02708
                       0.23467                       0.97170                       0.02691
                       0.23464                       0.97172                       0.02650
                       0.23460                       0.97174                       0.02599
                       0.23454                       0.97178                       0.02521
                       0.20343                       0.97872                       0.02692
                       0.18084                       0.98312                       0.02788
                       0.16103                       0.98653                       0.02867
                       0.14004                       0.98970                       0.02974
                       0.11839                       0.99248                       0.03111
                       0.09788                       0.99466                       0.03263
                       0.07754                       0.99639                       0.03448
                       0.05911                       0.99759                       0.03646
                       0.04514                       0.99825                       0.03813
                       0.03144                       0.99870                       0.04012
                       0.02004                       0.99891                       0.04206
                       0.01159                       0.99898                       0.04366
                       0.00707                       0.99898                       0.04455
                       0.00707                       0.99898                       0.04455
        </DataArray>
        <DataArray type="Float32" Name="OrientationZ" NumberOfComponents="3" format="ascii">
                       0.07065                      -0.04483                       0.99649
                       0.07107                      -0.04476                       0.99647
                       0.07229                      -0.04463                       0.99638
                       0.07395                      -0.04450                       0.99627
                       0.07669                      -0.04435                       0.99607
                       0.08078                      -0.04417                       0.99575
                       0.08580                      -0.04401                       0.99534
                       0.09207                      -0.04394                       0.99478
                       0.09999                      -0.04401                       0.99401
                       0.10996                      -0.04424                       0.99295
                       0.12247                      -0.04458                       0.99147
                       0.13718                      -0.04492                       0.98953
                       0.15353                      -0.04518                       0.98711
                       0.17043                      -0.04530                       0.98433
                       0.18614                      -0.04528                       0.98148
                       0.19640                      -0.04518                       0.97948
                       0.20138                      -0.04510                       0.97847
                       0.20351                      -0.04506                       0.97804
                       0.20338                      -0.04506                       0.97806
        </DataArray>
      </PointData>
      <Lines>
        <DataArray type="Int32" Name="connectivity" format="ascii">
      0      1
      1      2
      2      3
      3      4
      4      5
      5      6
      6      7
      7      8
      8      9
      9     10
     10     11
     11     12
     12     13
     13     14
     14     15
     15     16
     16     17
     17     18
        </DataArray>
        <DataArray type="Int32" Name="offsets" format="ascii">
      2
      4
      6
      8
     10
     12
     14
     16
     18
     20
     22
     24
     26
     28
     30
     32
     34
     36
        </DataArray>
      </Lines>
    </Piece>
  </PolyData>
</VTKFile>
