<?xml version="1.0"?>
<VTKFile type="PolyData" version="0.1" byte_order="LittleEndian">
  <PolyData>
    <Piece NumberOfPoints="     19" NumberOfVerts="  0" NumberOfLines="     18"
           NumberOfStrips="  0" NumberOfPolys="      0">
      <Points>
        <DataArray type="Float32" NumberOfComponents="3" format="ascii">
                       2.57854                      -1.40941                      89.56761
                       2.45813                      -2.66943                      89.05212
                       2.18609                      -5.15205                      87.93662
                       1.90248                      -7.61645                      86.77925
                       1.54663                     -10.68528                      85.30456
                       1.20117                     -14.42276                      83.65207
                       0.91277                     -18.20895                      82.10647
                       0.64651                     -21.99374                      80.55342
                       0.41101                     -25.77771                      78.99328
                       0.21259                     -29.55985                      77.42346
                       0.05262                     -33.33874                      75.84140
                      -0.05561                     -37.11424                      74.24678
                      -0.10555                     -40.88584                      72.63996
                      -0.09389                     -44.65303                      71.02198
                      -0.02057                     -48.41545                      69.39433
                       0.07992                     -51.54756                      68.03252
                       0.18051                     -54.05466                      66.94790
                       0.29090                     -56.58344                      65.91283
                       0.34110                     -57.83112                      65.35741
        </DataArray>
      </Points>
      <PointData>
        <DataArray type="Float32" Name="Force" NumberOfComponents="3" format="ascii">
                       0.62643                      -2.24069                       5.37309
                      83.62450                     -16.88823                      22.13470
                     110.56494                     -34.08561                      58.56872
                     101.83562                     -40.37732                      76.48612
                     793.68994                     103.19640                    -425.76456
                    1030.29933                     114.90673                    -493.20364
                    1202.64865                     111.91258                    -503.05308
                    1551.19598                     127.53093                    -579.07550
                    1696.08066                     125.65747                    -561.28237
                    1964.62283                     142.11445                    -588.15111
                    2432.25359                     179.50712                    -656.75859
                    2805.23096                     222.50925                    -689.84842
                    3284.16899                     294.29615                    -756.02658
                    3629.02412                     360.83936                    -772.67559
                    3947.88069                     428.33103                    -779.80217
                    4142.73704                     467.44192                    -764.18240
                    4068.07092                     458.85016                    -706.73723
                    2956.34641                     327.14463                    -488.03318
                    1282.41805                      91.58286                     -93.83765
        </DataArray>
        <DataArray type="Float32" Name="Moment" NumberOfComponents="3" format="ascii">
                       0.00000                       0.00000                       0.00000
                       0.00000                       0.00000                       0.00000
                       0.00000                       0.00000                       0.00000
                       0.00000                       0.00000                       0.00000
                      19.90823                     225.79380                      91.83965
                      36.55637                     438.09951                     178.43458
                      44.10405                     568.38457                     231.88618
                      55.22319                     784.43084                     320.68560
                      64.25858                    1044.12742                     427.93105
                      59.32460                    1169.27285                     480.69453
                      45.72733                    1215.59722                     501.59802
                      28.92813                    1280.87087                     530.77706
                       7.26553                    1167.71155                     486.11286
                     -12.09158                    1164.49138                     487.02677
                     -28.70082                    1123.90663                     472.03852
                     -37.46687                    1065.81963                     448.83704
                     -37.47247                     947.61466                     399.54377
                     -19.66109                     479.22225                     202.13785
                     -16.30891                     402.15472                     169.60827
        </DataArray>
        <DataArray type="Float32" Name="TranslationalVelocity" NumberOfComponents="3" format="ascii">
                      -0.60289                       0.49269                      -1.32235
                      -0.73330                       0.98393                      -2.49261
                      -0.98922                       2.04803                      -4.79849
                      -1.24347                       3.15175                      -7.08650
                      -1.56147                       4.55657                      -9.93363
                      -1.95388                       6.12349                     -13.39650
                      -2.35771                       7.58370                     -16.89926
                      -2.76717                       9.04679                     -20.39573
                      -3.18342                      10.51144                     -23.88625
                      -3.60745                      11.97923                     -27.36992
                      -4.03911                      13.45248                     -30.84605
                      -4.48012                      14.92967                     -34.31423
                      -4.93093                      16.40958                     -37.77439
                      -5.39140                      17.89072                     -41.22665
                      -5.86047                      19.37172                     -44.67137
                      -6.25629                      20.60509                     -47.53726
                      -6.57541                      21.58443                     -49.83053
                      -6.89732                      22.51715                     -52.14345
                      -7.05583                      23.01883                     -53.28465
        </DataArray>
        <DataArray type="Float32" Name="RotationalVelocity" NumberOfComponents="3" format="ascii">
                       0.92769                      -0.01290                      -0.10868
                       0.92754                      -0.01285                      -0.10876
                       0.92715                      -0.01272                      -0.10900
                       0.92665                      -0.01254                      -0.10933
                       0.92588                      -0.01224                      -0.10990
                       0.92480                      -0.01176                      -0.11081
                       0.92364                      -0.01119                      -0.11196
                       0.92243                      -0.01051                      -0.11334
                       0.92122                      -0.00974                      -0.11496
                       0.92003                      -0.00887                      -0.11681
                       0.91889                      -0.00792                      -0.11889
                       0.91783                      -0.00692                      -0.12112
                       0.91688                      -0.00591                      -0.12337
                       0.91607                      -0.00497                      -0.12551
                       0.91543                      -0.00418                      -0.12730
                       0.91508                      -0.00375                      -0.12828
                       0.91494                      -0.00361                      -0.12858
                       0.91492                      -0.00366                      -0.12847
                       0.91494                      -0.00375                      -0.12824
        </DataArray>
        <DataArray type="Float32" Name="TranslationalAcceleration" NumberOfComponents="3" format="ascii">
                       1.11992                       1.19459                       0.51227
                       1.18697                       2.31473                       0.91646
                       1.32513                       4.52553                       1.80293
                       1.45961                       6.72095                       2.72722
                       1.61668                       9.45389                       3.90685
                       1.77105                      12.77114                       5.20960
                       1.88424                      16.11948                       6.41211
                       1.96801                      19.46028                       7.61678
                       2.03742                      22.79447                       8.81730
                       2.12066                      26.12268                      10.00800
                       2.24890                      29.44640                      11.18552
                       2.47066                      32.76878                      12.33930
                       2.83523                      36.09485                      13.46283
                       3.38623                      39.43101                      14.55280
                       4.15068                      42.78382                      15.61002
                       4.94597                      45.59295                      16.47010
                       5.67618                      47.85222                      17.14114
                       6.45589                      50.13184                      17.76268
                       6.85625                      51.26025                      18.10625
        </DataArray>
        <DataArray type="Float32" Name="OrientationX" NumberOfComponents="3" format="ascii">
                       0.93917                       0.04883                      -0.33997
                       0.93921                       0.04927                      -0.33979
                       0.93933                       0.05052                      -0.33928
                       0.93948                       0.05223                      -0.33859
                       0.93974                       0.05507                      -0.33742
                       0.95022                       0.04710                      -0.30800
                       0.95733                       0.04345                      -0.28570
                       0.96324                       0.04203                      -0.26535
                       0.96907                       0.04153                      -0.24328
                       0.97461                       0.04241                      -0.21986
                       0.97943                       0.04565                      -0.19656
                       0.98369                       0.05054                      -0.17262
                       0.98705                       0.05724                      -0.14984
                       0.98919                       0.06585                      -0.13099
                       0.99091                       0.07324                      -0.11284
                       0.99214                       0.07679                      -0.09879
                       0.99301                       0.07707                      -0.08934
                       0.99347                       0.07648                      -0.08460
                       0.99349                       0.07608                      -0.08478
        </DataArray>
        <DataArray type="Float32" Name="OrientationY" NumberOfComponents="3" format="ascii">
                       0.33209                      -0.38170                       0.86257
                       0.33208                      -0.38180                       0.86253
                       0.33206                      -0.38205                       0.86243
                       0.33203                      -0.38236                       0.86230
                       0.33199                      -0.38281                       0.86211
                       0.30178                      -0.38507                       0.87215
                       0.27979                      -0.38678                       0.87870
                       0.26045                      -0.38830                       0.88396
                       0.23991                      -0.38984                       0.88908
                       0.21868                      -0.39137                       0.89387
                       0.19851                      -0.39283                       0.89793
                       0.17845                      -0.39430                       0.90149
                       0.16023                      -0.39575                       0.90427
                       0.14641                      -0.39700                       0.90606
                       0.13280                      -0.39828                       0.90760
                       0.12139                      -0.39934                       0.90873
                       0.11288                      -0.40011                       0.90949
                       0.10832                      -0.40051                       0.90987
                       0.10831                      -0.40050                       0.90987
        </DataArray>
        <DataArray type="Float32" Name="OrientationZ" NumberOfComponents="3" format="ascii">
                      -0.08765                      -0.92300                      -0.37469
                      -0.08724                      -0.92293                      -0.37495
                      -0.08605                      -0.92276                      -0.37564
                      -0.08442                      -0.92254                      -0.37656
                      -0.08169                      -0.92218                      -0.37803
                      -0.07752                      -0.92168                      -0.38012
                      -0.07232                      -0.92115                      -0.38244
                      -0.06588                      -0.92057                      -0.38498
                      -0.05792                      -0.91995                      -0.38774
                      -0.04814                      -0.91925                      -0.39071
                      -0.03622                      -0.91848                      -0.39381
                      -0.02250                      -0.91759                      -0.39689
                      -0.00754                      -0.91657                      -0.39980
                       0.00766                      -0.91545                      -0.40235
                       0.02153                      -0.91433                      -0.40439
                       0.03033                      -0.91358                      -0.40552
                       0.03435                      -0.91322                      -0.40601
                       0.03571                      -0.91310                      -0.40618
                       0.03527                      -0.91313                      -0.40614
        </DataArray>
      </PointData>
      <Lines>
        <DataArray type="Int32" Name="connectivity" format="ascii">
      0      1
      1      2
      2      3
      3      4
      4      5
      5      6
      6      7
      7      8
      8      9
      9     10
     10     11
     11     12
     12     13
     13     14
     14     15
     15     16
     16     17
     17     18
        </DataArray>
        <DataArray type="Int32" Name="offsets" format="ascii">
      2
      4
      6
      8
     10
     12
     14
     16
     18
     20
     22
     24
     26
     28
     30
     32
     34
     36
        </DataArray>
      </Lines>
    </Piece>
  </PolyData>
</VTKFile>
