<?xml version="1.0"?>
<VTKFile type="PolyData" version="0.1" byte_order="LittleEndian">
  <PolyData>
    <Piece NumberOfPoints="     19" NumberOfVerts="  0" NumberOfLines="     18"
           NumberOfStrips="  0" NumberOfPolys="      0">
      <Points>
        <DataArray type="Float32" NumberOfComponents="3" format="ascii">
                       2.62334                      -0.52230                      86.92492
                       2.02053                      -1.06805                      83.39985
                       1.42573                      -1.61380                      79.87342
                       0.84193                      -2.15934                      76.34512
                       0.27164                      -2.70457                      72.81456
                      -0.28232                      -3.24941                      69.28135
                      -0.81625                      -3.79358                      65.74496
                      -1.32527                      -4.33666                      62.20475
                      -1.80333                      -4.87820                      58.65999
                      -2.24346                      -5.41780                      55.11006
                      -2.63836                      -5.95524                      51.55449
                      -2.98124                      -6.49048                      47.99322
                      -3.26701                      -7.02371                      44.42661
                      -3.49371                      -7.55524                      40.85548
                      -3.66435                      -8.08549                      37.28097
                      -3.78896                      -8.61498                      33.70435
                      -3.88698                      -9.14418                      30.12679
                      -3.93244                      -9.40876                      28.33790
                       2.92630                      -0.24945                      88.68719
        </DataArray>
      </Points>
      <PointData>
        <DataArray type="Float32" Name="TranslationalVelocity" NumberOfComponents="3" format="ascii">
                       0.07142                       3.00347                      -0.40604
                      -0.02750                       6.33164                      -0.90440
                      -0.13324                       9.66010                      -1.40167
                      -0.24836                      12.98879                      -1.89731
                      -0.37498                      16.31769                      -2.39096
                      -0.51548                      19.64675                      -2.88231
                      -0.67281                      22.97581                      -3.37085
                      -0.85082                      26.30453                      -3.85594
                      -1.05423                      29.63246                      -4.33699
                      -1.28844                      32.95903                      -4.81369
                      -1.55912                      36.28352                      -5.28625
                      -1.87154                      39.60508                      -5.75551
                      -2.22965                      42.92278                      -6.22293
                      -2.63487                      46.23575                      -6.69031
                      -3.08470                      49.54355                      -7.15935
                      -3.57097                      52.84665                      -7.63101
                      -4.07796                      56.14689                      -8.10472
                      -4.33414                      57.79661                      -8.34189
                       0.11955                       1.33947                      -0.15668
        </DataArray>
        <DataArray type="Float32" Name="RotationalVelocity" NumberOfComponents="3" format="ascii">
                       0.92399                       0.00908                      -0.11773
                       0.92398                       0.01055                      -0.11796
                       0.92389                       0.01285                      -0.11830
                       0.92375                       0.01575                      -0.11872
                       0.92358                       0.01923                      -0.11923
                       0.92338                       0.02342                      -0.11985
                       0.92307                       0.02855                      -0.12059
                       0.92264                       0.03486                      -0.12149
                       0.92211                       0.04257                      -0.12259
                       0.92149                       0.05181                      -0.12392
                       0.92085                       0.06256                      -0.12547
                       0.92023                       0.07457                      -0.12722
                       0.91969                       0.08731                      -0.12910
                       0.91926                       0.09993                      -0.13098
                       0.91897                       0.11118                      -0.13267
                       0.91884                       0.11933                      -0.13391
                       0.91882                       0.12216                      -0.13435
                       0.91882                       0.12193                      -0.13431
                       0.92398                       0.00859                      -0.11766
        </DataArray>
        <DataArray type="Float32" Name="TranslationalAcceleration" NumberOfComponents="3" format="ascii">
                      -0.69053                       0.31038                       2.66794
                      -0.12623                       0.78435                       5.71358
                       0.51615                       1.37033                       8.72951
                       1.27366                       2.09931                      11.70536
                       2.18100                       2.99006                      14.63375
                       3.25607                       4.04845                      17.51287
                       4.48789                       5.26992                      20.34756
                       5.83056                       6.64201                      23.14950
                       7.20245                       8.14697                      25.93588
                       8.48916                       9.76505                      28.72671
                       9.55120                      11.47741                      31.54074
                      10.23632                      13.26813                      34.39108
                      10.39676                      15.12453                      37.28162
                       9.91165                      17.03595                      40.20596
                       8.71471                      18.99235                      43.15020
                       6.82734                      20.98234                      46.10018
                       4.39655                      22.98931                      49.05112
                       3.07278                      23.99447                      50.52715
                      -0.95747                       0.09687                       1.13908
        </DataArray>
        <DataArray type="Float32" Name="RotationalAcceleration" NumberOfComponents="3" format="ascii">
                      -0.01571                      -0.04423                      -0.01700
                       0.01071                      -0.06173                      -0.01885
                       0.04748                      -0.08905                      -0.02096
                       0.09164                      -0.12746                      -0.02264
                       0.13920                      -0.17415                      -0.02361
                       0.18668                      -0.22236                      -0.02434
                       0.23143                      -0.26269                      -0.02582
                       0.27123                      -0.28508                      -0.02922
                       0.30480                      -0.27982                      -0.03582
                       0.33179                      -0.23875                      -0.04684
                       0.35268                      -0.15662                      -0.06316
                       0.36853                      -0.03235                      -0.08513
                       0.38041                       0.12969                      -0.11226
                       0.38919                       0.31843                      -0.14299
                       0.39556                       0.51485                      -0.17450
                       0.39959                       0.69075                      -0.20243
                       0.40002                       0.80757                      -0.22058
                       0.39906                       0.84571                      -0.22632
                      -0.02603                      -0.03748                      -0.01627
        </DataArray>
        <DataArray type="Float32" Name="OrientationX" NumberOfComponents="3" format="ascii">
                       0.95480                       0.22135                      -0.19842
                       0.95508                       0.22161                      -0.19676
                       0.95552                       0.22201                      -0.19416
                       0.95925                       0.20968                      -0.18941
                       0.96666                       0.18026                      -0.18189
                       0.97086                       0.16380                      -0.17494
                       0.97495                       0.14725                      -0.16671
                       0.97906                       0.12988                      -0.15677
                       0.98303                       0.11249                      -0.14492
                       0.98669                       0.09617                      -0.13112
                       0.99007                       0.08038                      -0.11534
                       0.99301                       0.06576                      -0.09798
                       0.99530                       0.05455                      -0.08006
                       0.99704                       0.04487                      -0.06244
                       0.99831                       0.03491                      -0.04647
                       0.99911                       0.02448                      -0.03434
                       0.99942                       0.01716                      -0.02941
                       0.99947                       0.01471                      -0.02921
                       0.95470                       0.22127                      -0.19895
        </DataArray>
        <DataArray type="Float32" Name="OrientationY" NumberOfComponents="3" format="ascii">
                       0.24558                      -0.96346                       0.10695
                       0.24566                      -0.96339                       0.10736
                       0.24575                      -0.96331                       0.10792
                       0.23311                      -0.96608                       0.11113
                       0.20338                      -0.97201                       0.11760
                       0.18637                      -0.97494                       0.12148
                       0.16907                      -0.97761                       0.12526
                       0.15068                      -0.98013                       0.12902
                       0.13196                      -0.98235                       0.13258
                       0.11396                      -0.98417                       0.13574
                       0.09616                      -0.98568                       0.13854
                       0.07925                      -0.98685                       0.14089
                       0.06560                      -0.98761                       0.14257
                       0.05348                      -0.98816                       0.14383
                       0.04131                      -0.98860                       0.14480
                       0.02923                      -0.98893                       0.14547
                       0.02127                      -0.98909                       0.14578
                       0.01882                      -0.98913                       0.14585
                       0.24556                      -0.96348                       0.10679
        </DataArray>
        <DataArray type="Float32" Name="OrientationZ" NumberOfComponents="3" format="ascii">
                      -0.16749                      -0.15084                      -0.97427
                      -0.16577                      -0.15088                      -0.97456
                      -0.16307                      -0.15084                      -0.97502
                      -0.15968                      -0.15076                      -0.97559
                      -0.15560                      -0.15067                      -0.97626
                      -0.15065                      -0.15054                      -0.97706
                      -0.14453                      -0.15030                      -0.97802
                      -0.13690                      -0.14994                      -0.97917
                      -0.12744                      -0.14945                      -0.98052
                      -0.11599                      -0.14887                      -0.98203
                      -0.10255                      -0.14826                      -0.98362
                      -0.08743                      -0.14767                      -0.98517
                      -0.07129                      -0.14716                      -0.98654
                      -0.05524                      -0.14674                      -0.98763
                      -0.04089                      -0.14647                      -0.98837
                      -0.03040                      -0.14635                      -0.98877
                      -0.02659                      -0.14632                      -0.98888
                      -0.02675                      -0.14632                      -0.98888
                      -0.16806                      -0.15081                      -0.97417
        </DataArray>
      </PointData>
      <Lines>
        <DataArray type="Int32" Name="connectivity" format="ascii">
      0      1
      1      2
      2      3
      3      4
      4      5
      5      6
      6      7
      7      8
      8      9
      9     10
     10     11
     11     12
     12     13
     13     14
     14     15
     15     16
     16     17
     18      0
        </DataArray>
        <DataArray type="Int32" Name="offsets" format="ascii">
      2
      4
      6
      8
     10
     12
     14
     16
     18
     20
     22
     24
     26
     28
     30
     32
     34
     36
        </DataArray>
      </Lines>
    </Piece>
  </PolyData>
</VTKFile>
