<?xml version="1.0"?>
<VTKFile type="PolyData" version="0.1" byte_order="LittleEndian">
  <PolyData>
    <Piece NumberOfPoints="     19" NumberOfVerts="  0" NumberOfLines="     18"
           NumberOfStrips="  0" NumberOfPolys="      0">
      <Points>
        <DataArray type="Float32" NumberOfComponents="3" format="ascii">
                       2.83252                       1.30654                      89.39548
                       2.69256                       2.49863                      88.74187
                       2.40043                       4.92824                      87.51978
                       2.10251                       7.37940                      86.33800
                       1.72665                      10.45630                      84.88480
                       1.31299                      14.08046                      83.00966
                       0.90954                      17.64186                      81.01856
                       0.50358                      21.20190                      79.02554
                       0.09734                      24.75979                      77.02869
                      -0.30982                      28.31644                      75.02977
                      -0.71883                      31.87359                      73.03216
                      -1.12910                      35.43053                      71.03445
                      -1.54126                      38.98725                      69.03673
                      -1.95601                      42.54375                      67.03916
                      -2.37159                      46.10016                      65.04161
                      -2.71850                      49.06381                      63.37699
                      -2.99736                      51.43078                      62.03854
                      -3.28328                      53.77075                      60.65266
                      -3.42253                      54.96108                      59.99592
        </DataArray>
      </Points>
      <PointData>
        <DataArray type="Float32" Name="Force" NumberOfComponents="3" format="ascii">
                      -0.03622                      -0.16938                      -0.29935
                      63.11286                      -4.71361                     -21.95159
                      77.31381                     -18.32529                     -49.64199
                      67.83824                     -28.61302                     -66.27734
                     733.17979                     163.83184                     141.24098
                    1051.47422                     232.03372                     197.27378
                    1255.48873                     235.89981                     160.96794
                    1482.95120                     241.47747                     122.79618
                    1808.42893                     256.65434                      81.22799
                    2090.66356                     265.69257                      37.74007
                    2451.00136                     278.42463                     -15.59956
                    2788.53070                     287.29716                     -71.05235
                    2942.86337                     288.40683                    -101.66220
                    3201.25167                     290.90028                    -151.81926
                    3424.71085                     288.39219                    -203.62044
                    3542.57496                     277.14025                    -248.91320
                    3460.70520                     252.95596                    -275.34039
                    2537.00084                     177.09552                    -216.95743
                    1255.19888                      40.58679                    -192.59401
        </DataArray>
        <DataArray type="Float32" Name="Moment" NumberOfComponents="3" format="ascii">
                       0.00000                       0.00000                       0.00000
                       0.00000                       0.00000                       0.00000
                       0.00000                       0.00000                       0.00000
                       0.00000                       0.00000                       0.00000
                      21.62374                    -184.53331                     101.80009
                      37.16597                    -317.18719                     174.98053
                      53.90056                    -460.03916                     253.78719
                      76.51093                    -653.07479                     360.27886
                     103.92238                    -887.14649                     489.40951
                     118.12866                   -1008.55438                     556.38814
                     125.07926                   -1068.07279                     589.22510
                     133.20688                   -1137.69463                     627.63656
                     118.72832                   -1014.25198                     559.53952
                     118.89586                   -1015.90694                     560.45569
                     115.76515                    -989.35935                     545.81279
                     110.40114                    -943.64357                     520.59396
                      98.25727                    -839.89935                     463.36060
                      49.55258                    -423.58506                     233.68605
                      43.13179                    -368.69807                     203.40565
        </DataArray>
        <DataArray type="Float32" Name="TranslationalVelocity" NumberOfComponents="3" format="ascii">
                       0.15071                       0.69252                       1.21936
                       0.28651                       1.32018                       2.33501
                       0.56344                       2.49710                       4.60861
                       0.84367                       3.63677                       6.90160
                       1.19720                       5.03895                       9.77857
                       1.61694                       6.83950                      13.16515
                       2.03389                       8.74635                      16.49048
                       2.45581                      10.65434                      19.81184
                       2.88392                      12.56510                      23.12845
                       3.31997                      14.47720                      26.44111
                       3.76494                      16.38784                      29.75168
                       4.22163                      18.29839                      33.05912
                       4.69186                      20.20897                      36.36327
                       5.17673                      22.11965                      39.66406
                       5.67609                      24.03039                      42.96176
                       6.10166                      25.62271                      45.70787
                       6.44652                      26.90299                      47.90008
                       6.78991                      28.22824                      50.06682
                       6.96395                      28.85676                      51.16910
        </DataArray>
        <DataArray type="Float32" Name="RotationalVelocity" NumberOfComponents="3" format="ascii">
                       0.93608                      -0.00076                      -0.11339
                       0.93598                      -0.00081                      -0.11347
                       0.93573                      -0.00097                      -0.11371
                       0.93543                      -0.00119                      -0.11403
                       0.93498                      -0.00153                      -0.11456
                       0.93437                      -0.00204                      -0.11535
                       0.93370                      -0.00264                      -0.11630
                       0.93303                      -0.00336                      -0.11746
                       0.93236                      -0.00425                      -0.11893
                       0.93170                      -0.00534                      -0.12076
                       0.93105                      -0.00668                      -0.12305
                       0.93039                      -0.00823                      -0.12573
                       0.92972                      -0.00996                      -0.12871
                       0.92907                      -0.01173                      -0.13179
                       0.92847                      -0.01339                      -0.13466
                       0.92808                      -0.01447                      -0.13654
                       0.92789                      -0.01499                      -0.13744
                       0.92781                      -0.01520                      -0.13782
                       0.92781                      -0.01518                      -0.13778
        </DataArray>
        <DataArray type="Float32" Name="TranslationalAcceleration" NumberOfComponents="3" format="ascii">
                       0.30119                      -1.12024                       0.40669
                       0.43375                      -2.16252                       1.01261
                       0.70573                      -4.29413                       2.13216
                       1.04219                      -6.46085                       3.15497
                       1.60298                      -9.20273                       4.30182
                       2.54938                     -12.48518                       5.62109
                       3.85507                     -15.79180                       6.83776
                       5.56760                     -19.17000                       7.83674
                       7.77397                     -22.61393                       8.61698
                      10.58096                     -26.11371                       9.17557
                      14.02713                     -29.65408                       9.53019
                      18.29962                     -33.22832                       9.65495
                      23.50317                     -36.82610                       9.54474
                      29.69458                     -40.43899                       9.19937
                      36.84582                     -44.06407                       8.63436
                      43.41784                     -47.09243                       8.02483
                      48.98296                     -49.51859                       7.47446
                      54.64162                     -51.94145                       6.95476
                      57.46380                     -53.15529                       6.65406
        </DataArray>
        <DataArray type="Float32" Name="OrientationX" NumberOfComponents="3" format="ascii">
                       0.98679                       0.14974                       0.06181
                       0.98679                       0.14974                       0.06181
                       0.98679                       0.14974                       0.06181
                       0.98679                       0.14974                       0.06182
                       0.98679                       0.14974                       0.06182
                       0.99030                       0.13473                       0.03388
                       0.99221                       0.12382                       0.01372
                       0.99345                       0.11424                      -0.00389
                       0.99432                       0.10407                      -0.02250
                       0.99474                       0.09355                      -0.04163
                       0.99471                       0.08356                      -0.05969
                       0.99426                       0.07362                      -0.07758
                       0.99350                       0.06457                      -0.09376
                       0.99269                       0.05770                      -0.10601
                       0.99170                       0.05092                      -0.11804
                       0.99073                       0.04525                      -0.12808
                       0.98992                       0.04104                      -0.13554
                       0.98946                       0.03878                      -0.13953
                       0.98946                       0.03878                      -0.13953
        </DataArray>
        <DataArray type="Float32" Name="OrientationY" NumberOfComponents="3" format="ascii">
                       0.12580                      -0.46785                      -0.87481
                       0.12580                      -0.46786                      -0.87481
                       0.12580                      -0.46786                      -0.87481
                       0.12580                      -0.46786                      -0.87480
                       0.12580                      -0.46786                      -0.87480
                       0.09425                      -0.47240                      -0.87633
                       0.07145                      -0.47538                      -0.87687
                       0.05151                      -0.47778                      -0.87697
                       0.03041                      -0.48010                      -0.87669
                       0.00870                      -0.48226                      -0.87598
                      -0.01184                      -0.48409                      -0.87494
                      -0.03220                      -0.48570                      -0.87353
                      -0.05064                      -0.48699                      -0.87194
                      -0.06461                      -0.48785                      -0.87053
                      -0.07834                      -0.48861                      -0.86898
                      -0.08981                      -0.48916                      -0.86756
                      -0.09833                      -0.48953                      -0.86642
                      -0.10289                      -0.48972                      -0.86579
                      -0.10289                      -0.48972                      -0.86579
        </DataArray>
        <DataArray type="Float32" Name="OrientationZ" NumberOfComponents="3" format="ascii">
                      -0.10208                       0.87103                      -0.48051
                      -0.10208                       0.87103                      -0.48051
                      -0.10207                       0.87103                      -0.48051
                      -0.10207                       0.87103                      -0.48052
                      -0.10207                       0.87102                      -0.48052
                      -0.10206                       0.87102                      -0.48052
                      -0.10206                       0.87102                      -0.48053
                      -0.10205                       0.87102                      -0.48053
                      -0.10204                       0.87102                      -0.48053
                      -0.10202                       0.87102                      -0.48054
                      -0.10201                       0.87102                      -0.48054
                      -0.10199                       0.87102                      -0.48055
                      -0.10197                       0.87102                      -0.48055
                      -0.10194                       0.87102                      -0.48056
                      -0.10192                       0.87102                      -0.48056
                      -0.10191                       0.87102                      -0.48056
                      -0.10190                       0.87102                      -0.48057
                      -0.10190                       0.87102                      -0.48057
                      -0.10190                       0.87102                      -0.48057
        </DataArray>
      </PointData>
      <Lines>
        <DataArray type="Int32" Name="connectivity" format="ascii">
      0      1
      1      2
      2      3
      3      4
      4      5
      5      6
      6      7
      7      8
      8      9
      9     10
     10     11
     11     12
     12     13
     13     14
     14     15
     15     16
     16     17
     17     18
        </DataArray>
        <DataArray type="Int32" Name="offsets" format="ascii">
      2
      4
      6
      8
     10
     12
     14
     16
     18
     20
     22
     24
     26
     28
     30
     32
     34
     36
        </DataArray>
      </Lines>
    </Piece>
  </PolyData>
</VTKFile>
