<?xml version="1.0"?>
<VTKFile type="PolyData" version="0.1" byte_order="LittleEndian">
  <PolyData>
    <Piece NumberOfPoints="     19" NumberOfVerts="  0" NumberOfLines="     18"
           NumberOfStrips="  0" NumberOfPolys="      0">
      <Points>
        <DataArray type="Float32" NumberOfComponents="3" format="ascii">
                       2.62645                      -0.33406                      86.90452
                       2.01871                      -0.67099                      83.35424
                       1.41867                      -1.00769                      79.80263
                       0.82923                      -1.34390                      76.24920
                       0.25283                      -1.67949                      72.69358
                      -0.30784                      -2.01437                      69.13538
                      -0.84928                      -2.34829                      65.57411
                      -1.36691                      -2.68086                      62.00919
                      -1.85512                      -3.01167                      58.43997
                      -2.30745                      -3.34043                      54.86586
                      -2.71717                      -3.66696                      51.28642
                      -3.07808                      -3.99132                      47.70155
                      -3.38554                      -4.31378                      44.11152
                      -3.63791                      -4.63470                      40.51704
                      -3.83812                      -4.95457                      36.91914
                      -3.99568                      -5.27389                      33.31898
                      -4.12880                      -5.59306                      29.71777
                      -4.19215                      -5.75264                      27.91704
                       2.93182                      -0.16557                      88.67940
        </DataArray>
      </Points>
      <PointData>
        <DataArray type="Float32" Name="TranslationalVelocity" NumberOfComponents="3" format="ascii">
                       0.02710                       3.01904                      -0.24954
                      -0.03003                       6.37192                      -0.55796
                      -0.09045                       9.73138                      -0.86624
                      -0.15501                      13.09906                      -1.17417
                      -0.22421                      16.47599                      -1.48168
                      -0.29951                      19.86245                      -1.78854
                      -0.38427                      23.25809                      -2.09406
                      -0.48430                      26.66196                      -2.39711
                      -0.60789                      30.07273                      -2.69640
                      -0.76549                      33.48884                      -2.99078
                      -0.96895                      36.90866                      -3.27962
                      -1.23030                      40.33057                      -3.56312
                      -1.56011                      43.75305                      -3.84247
                      -1.96522                      47.17476                      -4.11964
                      -2.44620                      50.59474                      -4.39685
                      -2.99410                      54.01278                      -4.67569
                      -3.58690                      57.42951                      -4.95599
                      -3.89084                      59.13767                      -5.09633
                       0.05501                       1.34401                      -0.09534
        </DataArray>
        <DataArray type="Float32" Name="RotationalVelocity" NumberOfComponents="3" format="ascii">
                       0.92335                       0.00447                      -0.11857
                       0.92480                       0.00518                      -0.11889
                       0.92675                       0.00626                      -0.11933
                       0.92904                       0.00744                      -0.11983
                       0.93150                       0.00881                      -0.12039
                       0.93393                       0.01079                      -0.12100
                       0.93615                       0.01405                      -0.12169
                       0.93803                       0.01928                      -0.12251
                       0.93952                       0.02714                      -0.12351
                       0.94062                       0.03814                      -0.12475
                       0.94141                       0.05249                      -0.12624
                       0.94199                       0.07001                      -0.12801
                       0.94244                       0.08997                      -0.12998
                       0.94283                       0.11104                      -0.13205
                       0.94318                       0.13111                      -0.13401
                       0.94349                       0.14719                      -0.13559
                       0.94358                       0.15533                      -0.13638
                       0.94355                       0.15686                      -0.13652
                       0.92276                       0.00428                      -0.11845
        </DataArray>
        <DataArray type="Float32" Name="TranslationalAcceleration" NumberOfComponents="3" format="ascii">
                      -0.73267                       0.19116                       2.40989
                      -0.00559                       0.53509                       5.44697
                       0.75873                       0.95983                       8.48310
                       1.57861                       1.48700                      11.51679
                       2.47184                       2.12969                      14.54657
                       3.44961                       2.89274                      17.57189
                       4.51092                       3.77445                      20.59394
                       5.63994                       4.76823                      23.61610
                       6.80575                       5.86443                      26.64386
                       7.96343                       7.05233                      29.68437
                       9.05706                       8.32204                      32.74536
                      10.02464                       9.66575                      35.83376
                      10.80480                      11.07789                      38.95416
                      11.34561                      12.55388                      42.10763
                      11.61537                      14.08802                      45.29148
                      11.61543                      15.67012                      48.49994
                      11.39483                      17.28086                      51.72527
                      11.23897                      18.09023                      53.34109
                      -1.08904                       0.03619                       0.89127
        </DataArray>
        <DataArray type="Float32" Name="RotationalAcceleration" NumberOfComponents="3" format="ascii">
                       0.00399                      -0.08999                      -0.00725
                       0.02253                      -0.09790                      -0.00970
                       0.04817                      -0.11057                      -0.01292
                       0.07867                      -0.12862                      -0.01647
                       0.11156                      -0.15112                      -0.02001
                       0.14477                      -0.17531                      -0.02345
                       0.17681                      -0.19715                      -0.02691
                       0.20645                      -0.21240                      -0.03058
                       0.23293                      -0.21691                      -0.03472
                       0.25598                      -0.20709                      -0.03963
                       0.27569                      -0.18052                      -0.04555
                       0.29236                      -0.13642                      -0.05262
                       0.30632                      -0.07616                      -0.06075
                       0.31772                      -0.00380                      -0.06959
                       0.32655                       0.07340                      -0.07844
                       0.33240                       0.14452                      -0.08620
                       0.33415                       0.19449                      -0.09124
                       0.33380                       0.21204                      -0.09285
                      -0.00324                      -0.08704                      -0.00628
        </DataArray>
        <DataArray type="Float32" Name="OrientationX" NumberOfComponents="3" format="ascii">
                       0.95636                       0.22539                      -0.18594
                       0.95664                       0.22554                      -0.18432
                       0.95707                       0.22578                      -0.18178
                       0.96069                       0.21316                      -0.17786
                       0.96786                       0.18329                      -0.17219
                       0.97192                       0.16640                      -0.16637
                       0.97586                       0.14935                      -0.15937
                       0.97980                       0.13137                      -0.15080
                       0.98359                       0.11326                      -0.14047
                       0.98707                       0.09608                      -0.12828
                       0.99028                       0.07930                      -0.11425
                       0.99308                       0.06359                      -0.09871
                       0.99527                       0.05125                      -0.08252
                       0.99696                       0.04045                      -0.06656
                       0.99820                       0.02949                      -0.05220
                       0.99897                       0.01829                      -0.04146
                       0.99925                       0.01067                      -0.03732
                       0.99927                       0.00820                      -0.03731
                       0.95627                       0.22534                      -0.18647
        </DataArray>
        <DataArray type="Float32" Name="OrientationY" NumberOfComponents="3" format="ascii">
                       0.23848                      -0.96981                       0.05103
                       0.23854                      -0.96977                       0.05139
                       0.23862                      -0.96973                       0.05187
                       0.22595                      -0.97260                       0.05482
                       0.19616                      -0.97868                       0.06086
                       0.17911                      -0.98171                       0.06447
                       0.16178                      -0.98448                       0.06800
                       0.14336                      -0.98708                       0.07154
                       0.12462                      -0.98937                       0.07490
                       0.10661                      -0.99124                       0.07791
                       0.08880                      -0.99278                       0.08059
                       0.07188                      -0.99397                       0.08286
                       0.05823                      -0.99472                       0.08451
                       0.04611                      -0.99525                       0.08575
                       0.03395                      -0.99565                       0.08673
                       0.02187                      -0.99593                       0.08746
                       0.01391                      -0.99604                       0.08782
                       0.01146                      -0.99606                       0.08791
                       0.23845                      -0.96982                       0.05089
        </DataArray>
        <DataArray type="Float32" Name="OrientationZ" NumberOfComponents="3" format="ascii">
                      -0.16882                      -0.09315                      -0.98124
                      -0.16716                      -0.09313                      -0.98152
                      -0.16457                      -0.09302                      -0.98197
                      -0.16130                      -0.09285                      -0.98253
                      -0.15737                      -0.09268                      -0.98318
                      -0.15260                      -0.09246                      -0.98395
                      -0.14674                      -0.09214                      -0.98487
                      -0.13946                      -0.09171                      -0.98597
                      -0.13049                      -0.09118                      -0.98725
                      -0.11967                      -0.09058                      -0.98867
                      -0.10703                      -0.08996                      -0.99018
                      -0.09285                      -0.08939                      -0.99166
                      -0.07776                      -0.08891                      -0.99300
                      -0.06278                      -0.08856                      -0.99409
                      -0.04942                      -0.08835                      -0.99486
                      -0.03969                      -0.08827                      -0.99530
                      -0.03624                      -0.08827                      -0.99544
                      -0.03644                      -0.08827                      -0.99543
                      -0.16937                      -0.09313                      -0.98114
        </DataArray>
      </PointData>
      <Lines>
        <DataArray type="Int32" Name="connectivity" format="ascii">
      0      1
      1      2
      2      3
      3      4
      4      5
      5      6
      6      7
      7      8
      8      9
      9     10
     10     11
     11     12
     12     13
     13     14
     14     15
     15     16
     16     17
     18      0
        </DataArray>
        <DataArray type="Int32" Name="offsets" format="ascii">
      2
      4
      6
      8
     10
     12
     14
     16
     18
     20
     22
     24
     26
     28
     30
     32
     34
     36
        </DataArray>
      </Lines>
    </Piece>
  </PolyData>
</VTKFile>
