<?xml version="1.0"?>
<VTKFile type="PolyData" version="0.1" byte_order="LittleEndian">
  <PolyData>
    <Piece NumberOfPoints="     19" NumberOfVerts="  0" NumberOfLines="     18"
           NumberOfStrips="  0" NumberOfPolys="      0">
      <Points>
        <DataArray type="Float32" NumberOfComponents="3" format="ascii">
                       2.72689                      -1.48876                      89.85649
                       2.63571                      -2.82755                      89.59724
                       2.42123                      -5.48561                      88.98866
                       2.19480                      -8.13418                      88.33527
                       1.91032                     -11.43882                      87.48838
                       1.65211                     -15.43332                      86.59657
                       1.45259                     -19.45331                      85.81787
                       1.27592                     -23.47270                      85.03048
                       1.13112                     -27.49178                      84.23474
                       1.02510                     -31.50989                      83.42781
                       0.95963                     -35.52608                      82.60693
                       0.94898                     -39.53986                      81.77154
                       1.00047                     -43.55038                      80.92186
                       1.11796                     -47.55675                      80.05889
                       1.30166                     -51.55818                      79.18417
                       1.49723                     -54.88913                      78.44846
                       1.67562                     -57.55360                      77.86452
                       1.86506                     -60.22945                      77.33322
                       1.95443                     -61.55841                      77.02719
        </DataArray>
      </Points>
      <PointData>
        <DataArray type="Float32" Name="Force" NumberOfComponents="3" format="ascii">
                       0.74682                      -1.24309                       6.25052
                      89.45246                     -10.85295                      25.40088
                     114.61481                     -19.50043                      62.59191
                     105.34520                     -22.51688                      82.47508
                     796.11407                      36.05413                    -441.80812
                    1023.60157                      38.86009                    -503.07485
                    1196.83919                      38.27336                    -513.77414
                    1548.66169                      47.45397                    -595.05927
                    1705.37838                      53.65711                    -582.72529
                    1983.49517                      72.76188                    -617.92223
                    2456.25579                     109.94587                    -697.04640
                    2829.10821                     158.16915                    -740.12029
                    3293.39882                     231.03317                    -816.90498
                    3616.55366                     304.38728                    -839.25164
                    3903.88971                     378.26825                    -847.74276
                    4073.23434                     424.77079                    -831.82795
                    3993.50665                     425.56763                    -770.06384
                    2918.40227                     311.24499                    -540.85199
                    1263.45360                     109.12543                    -113.01138
        </DataArray>
        <DataArray type="Float32" Name="Moment" NumberOfComponents="3" format="ascii">
                       0.00000                       0.00000                       0.00000
                       0.00000                       0.00000                       0.00000
                       0.00000                       0.00000                       0.00000
                       0.00000                       0.00000                       0.00000
                      15.72439                     257.63541                      49.35904
                      27.71594                     490.86470                      94.31027
                      31.68367                     623.82362                     120.27870
                      37.36790                     853.81907                     165.34040
                      39.82481                    1135.86675                     221.13970
                      30.75082                    1262.03799                     247.31647
                      14.76556                    1307.41627                     258.25113
                      -5.15971                    1371.49931                     273.37650
                     -25.19983                    1246.22339                     250.85640
                     -46.03518                    1244.58720                     253.02045
                     -63.10885                    1205.51565                     247.29000
                     -71.31145                    1147.36172                     236.70457
                     -68.16029                    1022.21007                     211.43825
                     -35.00403                     512.65187                     106.13714
                     -28.67959                     422.64943                      87.48205
        </DataArray>
        <DataArray type="Float32" Name="TranslationalVelocity" NumberOfComponents="3" format="ascii">
                      -0.77365                       0.26037                      -1.39666
                      -0.91660                       0.50862                      -2.62838
                      -1.19910                       1.09139                      -5.07420
                      -1.48052                       1.71652                      -7.51081
                      -1.83258                       2.52553                     -10.54974
                      -2.26274                       3.37249                     -14.21960
                      -2.70111                       4.10875                     -17.90924
                      -3.14392                       4.85005                     -21.59505
                      -3.59251                       5.59500                     -25.27694
                      -4.04840                       6.34530                     -28.95402
                      -4.51225                       7.10315                     -32.62562
                      -4.98671                       7.86710                     -36.29070
                      -5.47339                       8.63571                     -39.94849
                      -5.97322                       9.40719                     -43.59839
                      -6.48592                      10.17976                     -47.24018
                      -6.92145                      10.82336                     -50.26964
                      -7.27433                      11.33068                     -52.69193
                      -7.63057                      11.78849                     -55.12426
                      -7.80711                      12.05485                     -56.33230
        </DataArray>
        <DataArray type="Float32" Name="RotationalVelocity" NumberOfComponents="3" format="ascii">
                       0.91903                      -0.01587                      -0.10977
                       0.91894                      -0.01585                      -0.10984
                       0.91873                      -0.01580                      -0.11005
                       0.91845                      -0.01572                      -0.11033
                       0.91801                      -0.01560                      -0.11082
                       0.91739                      -0.01541                      -0.11157
                       0.91671                      -0.01518                      -0.11253
                       0.91597                      -0.01490                      -0.11375
                       0.91519                      -0.01455                      -0.11530
                       0.91436                      -0.01413                      -0.11725
                       0.91350                      -0.01360                      -0.11968
                       0.91264                      -0.01301                      -0.12251
                       0.91181                      -0.01235                      -0.12565
                       0.91105                      -0.01168                      -0.12887
                       0.91042                      -0.01107                      -0.13185
                       0.91004                      -0.01068                      -0.13377
                       0.90987                      -0.01050                      -0.13466
                       0.90981                      -0.01043                      -0.13499
                       0.90982                      -0.01045                      -0.13492
        </DataArray>
        <DataArray type="Float32" Name="TranslationalAcceleration" NumberOfComponents="3" format="ascii">
                       0.52122                       0.97897                       0.35104
                       0.57009                       2.13753                       0.51947
                       0.67570                       4.44107                       0.93911
                       0.79137                       6.73528                       1.40283
                       0.95165                       9.59305                       2.01536
                       1.16224                      13.03374                       2.64295
                       1.39881                      16.48366                       3.17952
                       1.66280                      19.92491                       3.73697
                       1.93445                      23.35788                       4.31913
                       2.17930                      26.78172                       4.93484
                       2.36115                      30.19548                       5.58979
                       2.42075                      33.59494                       6.29295
                       2.29987                      36.97415                       7.04771
                       1.94785                      40.32510                       7.85343
                       1.33475                      43.63956                       8.70495
                       0.63240                      46.37234                       9.44216
                      -0.04303                      48.54243                      10.03937
                      -0.78486                      50.71666                      10.59872
                      -1.16044                      51.79447                      10.91337
        </DataArray>
        <DataArray type="Float32" Name="OrientationX" NumberOfComponents="3" format="ascii">
                       0.93759                       0.00298                      -0.34773
                       0.93762                       0.00346                      -0.34764
                       0.93771                       0.00484                      -0.34738
                       0.93784                       0.00672                      -0.34701
                       0.93803                       0.00984                      -0.34641
                       0.94872                       0.00815                      -0.31602
                       0.95594                       0.00927                      -0.29343
                       0.96189                       0.01224                      -0.27316
                       0.96775                       0.01656                      -0.25138
                       0.97328                       0.02261                      -0.22848
                       0.97803                       0.03114                      -0.20612
                       0.98216                       0.04155                      -0.18342
                       0.98531                       0.05362                      -0.16217
                       0.98716                       0.06685                      -0.14510
                       0.98858                       0.07869                      -0.12851
                       0.98964                       0.08562                      -0.11525
                       0.99046                       0.08810                      -0.10596
                       0.99091                       0.08864                      -0.10116
                       0.99094                       0.08824                      -0.10124
        </DataArray>
        <DataArray type="Float32" Name="OrientationY" NumberOfComponents="3" format="ascii">
                       0.34138                      -0.19837                       0.91875
                       0.34137                      -0.19851                       0.91873
                       0.34135                      -0.19884                       0.91867
                       0.34132                      -0.19925                       0.91859
                       0.34128                      -0.19986                       0.91847
                       0.31113                      -0.20098                       0.92887
                       0.28918                      -0.20207                       0.93571
                       0.26988                      -0.20317                       0.94122
                       0.24938                      -0.20434                       0.94660
                       0.22819                      -0.20558                       0.95167
                       0.20807                      -0.20687                       0.95599
                       0.18806                      -0.20827                       0.95982
                       0.16989                      -0.20975                       0.96288
                       0.15613                      -0.21111                       0.96491
                       0.14258                      -0.21253                       0.96670
                       0.13122                      -0.21373                       0.96804
                       0.12275                      -0.21461                       0.96895
                       0.11820                      -0.21508                       0.96942
                       0.11820                      -0.21508                       0.96942
        </DataArray>
        <DataArray type="Float32" Name="OrientationZ" NumberOfComponents="3" format="ascii">
                      -0.06624                      -0.98012                      -0.18701
                      -0.06583                      -0.98009                      -0.18731
                      -0.06463                      -0.98002                      -0.18811
                      -0.06297                      -0.97993                      -0.18915
                      -0.06019                      -0.97978                      -0.19083
                      -0.05594                      -0.97956                      -0.19321
                      -0.05062                      -0.97933                      -0.19585
                      -0.04398                      -0.97907                      -0.19873
                      -0.03569                      -0.97876                      -0.20187
                      -0.02545                      -0.97838                      -0.20525
                      -0.01287                      -0.97787                      -0.20880
                       0.00168                      -0.97719                      -0.21237
                       0.01762                      -0.97628                      -0.21578
                       0.03387                      -0.97517                      -0.21884
                       0.04876                      -0.97398                      -0.22132
                       0.05825                      -0.97313                      -0.22275
                       0.06263                      -0.97272                      -0.22338
                       0.06418                      -0.97257                      -0.22360
                       0.06377                      -0.97260                      -0.22356
        </DataArray>
      </PointData>
      <Lines>
        <DataArray type="Int32" Name="connectivity" format="ascii">
      0      1
      1      2
      2      3
      3      4
      4      5
      5      6
      6      7
      7      8
      8      9
      9     10
     10     11
     11     12
     12     13
     13     14
     14     15
     15     16
     16     17
     17     18
        </DataArray>
        <DataArray type="Int32" Name="offsets" format="ascii">
      2
      4
      6
      8
     10
     12
     14
     16
     18
     20
     22
     24
     26
     28
     30
     32
     34
     36
        </DataArray>
      </Lines>
    </Piece>
  </PolyData>
</VTKFile>
