<?xml version="1.0"?>
<VTKFile type="PolyData" version="0.1" byte_order="LittleEndian">
  <PolyData>
    <Piece NumberOfPoints="     17" NumberOfVerts="  0" NumberOfLines="      0"
           NumberOfStrips="  0" NumberOfPolys="      0">
      <Points>
        <DataArray type="Float32" NumberOfComponents="3" format="ascii">
                       2.62687                      -0.18290                      86.89510
                       2.01716                      -0.35179                      83.33320
                       1.41502                      -0.52003                      79.76999
                       0.82335                      -0.68726                      76.20498
                       0.24455                      -0.85330                      72.63781
                      -0.31873                      -1.01802                      69.06809
                      -0.86315                      -1.18120                      65.49538
                      -1.38445                      -1.34250                      61.91915
                      -1.87743                      -1.50160                      58.33882
                      -2.33622                      -1.65827                      54.75385
                      -2.75471                      -1.81244                      51.16386
                      -3.12736                      -1.96427                      47.56873
                      -3.45011                      -2.11407                      43.96870
                      -3.72171                      -2.26232                      40.36436
                      -3.94516                      -2.40952                      36.75663
                      -4.12951                      -2.55622                      33.14661
                      -4.29186                      -2.70280                      29.53547
        </DataArray>
      </Points>
      <PointData>
        <DataArray type="Float32" Name="Force" NumberOfComponents="3" format="ascii">
                     131.74286                     -68.27118                     -19.39215
                     455.38362                    -232.97088                     -65.95387
                    1678.68609                     584.47162                    -306.67055
                    2907.53434                    1027.51896                    -522.79498
                    1838.68361                     573.77950                    -320.73582
                    4151.28472                    1144.09456                    -699.46574
                    5265.78999                    1262.93046                    -846.04908
                    6106.94730                    1274.41166                    -924.36948
                    6850.28717                    1284.20732                    -966.26854
                    9013.86480                    1537.29902                   -1165.57082
                   10825.15515                    1716.12834                   -1253.14705
                   12849.80663                    1959.57356                   -1299.01866
                    7607.06523                    1126.09493                    -681.53367
                   15685.16249                    2249.12598                   -1224.33927
                   15736.63919                    2178.42246                   -1029.39395
                   23418.22003                    3078.06130                   -1290.42476
                    9724.83115                    1087.82055                    -488.42050
        </DataArray>
        <DataArray type="Float32" Name="Moment" NumberOfComponents="3" format="ascii">
                     -18.05851                     -17.45820                       0.53940
                      88.76832                    -312.32630                     -50.60313
                     676.89475                   -1763.88230                    -309.47809
                     711.45413                   -2412.06363                    -406.57841
                      25.13026                    -224.03442                    -154.48031
                    -624.83595                    1899.86398                    -131.39721
                    -371.62651                    1333.65573                     249.64578
                      45.65045                       0.00093                     910.66475
                     206.48360                    -793.04429                     953.05943
                     323.26100                   -1807.96343                     697.51801
                     720.40921                   -4522.51085                     447.57392
                    1242.11222                   -8382.89150                     -98.87896
                    -105.67176                     433.88087                    -365.67299
                   -1598.22347                   10262.95932                   -1144.75338
                   -1485.69013                    9887.24496                   -1264.40930
                    -315.51532                     958.54636                   -1406.63982
                    -183.29740                     -48.17405                    -205.32392
        </DataArray>
      </PointData>
    </Piece>
  </PolyData>
</VTKFile>
