<?xml version="1.0"?>
<VTKFile type="PolyData" version="0.1" byte_order="LittleEndian">
  <PolyData>
    <Piece NumberOfPoints="     19" NumberOfVerts="  0" NumberOfLines="     18"
           NumberOfStrips="  0" NumberOfPolys="      0">
      <Points>
        <DataArray type="Float32" NumberOfComponents="3" format="ascii">
                      -5.13049                      -1.29780                      89.25927
                      -5.25044                      -2.47852                      88.58148
                      -5.51974                      -4.79168                      87.14671
                      -5.80296                      -7.08203                      85.67441
                      -6.16531                      -9.93139                      83.81158
                      -6.53677                     -13.42413                      81.69388
                      -6.87451                     -16.98279                      79.68574
                      -7.21433                     -20.54266                      77.68008
                      -7.55370                     -24.10472                      75.67819
                      -7.89359                     -27.66800                      73.67851
                      -8.23560                     -31.23060                      71.67803
                      -8.57890                     -34.79331                      69.67796
                      -8.92413                     -38.35609                      67.67836
                      -9.27200                     -41.91890                      65.67927
                      -9.62079                     -45.48172                      63.68038
                      -9.91208                     -48.45078                      62.01474
                     -10.14505                     -50.82991                      60.68914
                     -10.37518                     -53.23650                      59.41116
                     -10.49406                     -54.41889                      58.73630
        </DataArray>
      </Points>
      <PointData>
        <DataArray type="Float32" Name="RefOrientationX" NumberOfComponents="3" format="ascii">
                       0.94930                       0.07833                      -0.30447
                       0.94930                       0.07833                      -0.30447
                       0.94930                       0.07833                      -0.30447
                       0.94930                       0.07833                      -0.30447
                       0.94930                       0.07833                      -0.30447
                       0.95845                       0.06249                      -0.27833
                       0.96445                       0.05103                      -0.25931
                       0.96926                       0.04100                      -0.24258
                       0.97393                       0.03039                      -0.22481
                       0.97827                       0.01945                      -0.20641
                       0.98195                       0.00911                      -0.18893
                       0.98518                      -0.00116                      -0.17151
                       0.98775                      -0.01046                      -0.15567
                       0.98948                      -0.01751                      -0.14362
                       0.99098                      -0.02445                      -0.13174
                       0.99210                      -0.03024                      -0.12178
                       0.99284                      -0.03455                      -0.11437
                       0.99320                      -0.03685                      -0.11040
                       0.99320                      -0.03685                      -0.11040
        </DataArray>
        <DataArray type="Float32" Name="RefOrientationY" NumberOfComponents="3" format="ascii">
                       0.30211                      -0.49527                       0.81452
                       0.30211                      -0.49527                       0.81452
                       0.30211                      -0.49527                       0.81452
                       0.30211                      -0.49527                       0.81452
                       0.30211                      -0.49527                       0.81452
                       0.27167                      -0.49752                       0.82382
                       0.24955                      -0.49882                       0.83000
                       0.23013                      -0.49975                       0.83504
                       0.20951                      -0.50050                       0.84000
                       0.18820                      -0.50105                       0.84471
                       0.16796                      -0.50134                       0.84879
                       0.14782                      -0.50142                       0.85248
                       0.12952                      -0.50132                       0.85552
                       0.11561                      -0.50112                       0.85762
                       0.10191                      -0.50083                       0.85953
                       0.09043                      -0.50051                       0.86099
                       0.08189                      -0.50023                       0.86201
                       0.07732                      -0.50007                       0.86253
                       0.07732                      -0.50007                       0.86253
        </DataArray>
        <DataArray type="Float32" Name="RefOrientationZ" NumberOfComponents="3" format="ascii">
                      -0.08699                      -0.86520                      -0.49382
                      -0.08699                      -0.86520                      -0.49382
                      -0.08699                      -0.86520                      -0.49382
                      -0.08699                      -0.86520                      -0.49382
                      -0.08699                      -0.86520                      -0.49382
                      -0.08699                      -0.86520                      -0.49382
                      -0.08699                      -0.86520                      -0.49382
                      -0.08699                      -0.86520                      -0.49382
                      -0.08699                      -0.86520                      -0.49382
                      -0.08699                      -0.86520                      -0.49382
                      -0.08699                      -0.86520                      -0.49382
                      -0.08699                      -0.86520                      -0.49382
                      -0.08699                      -0.86520                      -0.49382
                      -0.08699                      -0.86520                      -0.49382
                      -0.08699                      -0.86520                      -0.49382
                      -0.08699                      -0.86520                      -0.49382
                      -0.08699                      -0.86520                      -0.49382
                      -0.08699                      -0.86520                      -0.49382
                      -0.08699                      -0.86520                      -0.49382
        </DataArray>
      </PointData>
      <Lines>
        <DataArray type="Int32" Name="connectivity" format="ascii">
      0      1
      1      2
      2      3
      3      4
      4      5
      5      6
      6      7
      7      8
      8      9
      9     10
     10     11
     11     12
     12     13
     13     14
     14     15
     15     16
     16     17
     17     18
        </DataArray>
        <DataArray type="Int32" Name="offsets" format="ascii">
      2
      4
      6
      8
     10
     12
     14
     16
     18
     20
     22
     24
     26
     28
     30
     32
     34
     36
        </DataArray>
      </Lines>
    </Piece>
  </PolyData>
</VTKFile>
