<?xml version="1.0"?>
<VTKFile type="PolyData" version="0.1" byte_order="LittleEndian">
  <PolyData>
    <Piece NumberOfPoints="     17" NumberOfVerts="  0" NumberOfLines="      0"
           NumberOfStrips="  0" NumberOfPolys="      0">
      <Points>
        <DataArray type="Float32" NumberOfComponents="3" format="ascii">
                       2.34611                       3.04248                      88.94259
                       2.04486                       6.40757                      87.64925
                       1.75151                       9.77284                      86.35453
                       1.46906                      13.13840                      85.05817
                       1.19999                      16.50432                      83.75990
                       0.94697                      19.87064                      82.45945
                       0.71346                      23.23745                      81.15663
                       0.50388                      26.60485                      79.85132
                       0.32365                      29.97289                      78.54329
                       0.17891                      33.34145                      77.23224
                       0.07601                      36.71019                      75.91774
                       0.02074                      40.07850                      74.59930
                       0.01727                      43.44554                      73.27649
                       0.06690                      46.81045                      71.94911
                       0.16651                      50.17256                      70.61734
                       0.30673                      53.53184                      69.28189
                       0.46992                      56.88928                      67.94427
        </DataArray>
      </Points>
      <PointData>
        <DataArray type="Float32" Name="Force" NumberOfComponents="3" format="ascii">
                     160.54906                     -12.02919                     -69.02376
                     536.84999                     -40.12898                    -226.21567
                    2225.46036                     389.50387                     525.94111
                    3813.75092                     660.03946                     913.93999
                    2315.32395                     358.53161                     466.44693
                    4942.22219                     666.73969                     796.34842
                    5885.93097                     665.71955                     714.91036
                    6481.08380                     596.60543                     573.32687
                    6910.56881                     502.48493                     443.57440
                    8684.06739                     465.27813                     393.19664
                    9976.52048                     340.79450                     314.80098
                   11379.31805                     179.66456                     281.30563
                    6529.64570                      11.10891                     132.74316
                   13031.50879                    -164.81318                     202.85630
                   12566.08748                    -362.66885                     118.74333
                   17784.03450                    -783.12913                     -10.09543
                    7251.41367                    -403.58027                    -132.09336
        </DataArray>
        <DataArray type="Float32" Name="Moment" NumberOfComponents="3" format="ascii">
                     -19.22731                      -3.71660                     -17.40557
                     103.20693                     -78.51425                    -399.34450
                     734.12333                    -434.83824                   -2307.85592
                     731.44343                    -224.07560                   -3190.29218
                      -0.62978                     338.34448                    -390.11795
                    -632.31453                    1382.15226                    2042.59480
                    -377.48531                     692.59928                    1459.65040
                    -113.65108                    -473.68411                     334.40457
                     -18.96762                    -968.13041                    -322.00620
                      11.13339                   -1256.32313                   -1179.16052
                      98.01686                   -2078.24270                   -3447.40441
                     154.94371                   -2848.01499                   -6625.53755
                     -22.90299                     131.57346                     404.42494
                    -153.47994                    3176.81965                    8148.88199
                     -46.95818                    2966.25826                    7550.48611
                    -136.71677                     399.09284                    1197.09936
                    -121.16190                    -214.73166                     -84.92887
        </DataArray>
      </PointData>
    </Piece>
  </PolyData>
</VTKFile>
