<?xml version="1.0"?>
<VTKFile type="PolyData" version="0.1" byte_order="LittleEndian">
  <PolyData>
    <Piece NumberOfPoints="     17" NumberOfVerts="  0" NumberOfLines="      0"
           NumberOfStrips="  0" NumberOfPolys="      0">
      <Points>
        <DataArray type="Float32" NumberOfComponents="3" format="ascii">
                       3.23887                      -0.19472                      93.40927
                       3.51556                      -0.40759                      97.01004
                       3.79262                      -0.62049                     100.61077
                       4.07021                      -0.83345                     104.21146
                       4.34845                      -1.04646                     107.81210
                       4.62744                      -1.25954                     111.41267
                       4.90728                      -1.47268                     115.01318
                       5.18806                      -1.68589                     118.61360
                       5.46985                      -1.89915                     122.21395
                       5.75271                      -2.11247                     125.81421
                       6.03667                      -2.32582                     129.41437
                       6.32175                      -2.53920                     133.01445
                       6.60790                      -2.75260                     136.61445
                       6.89502                      -2.96599                     140.21436
                       7.18295                      -3.17938                     143.81421
                       7.47139                      -3.39275                     147.41403
                       7.75994                      -3.60611                     151.01383
        </DataArray>
      </Points>
      <PointData>
        <DataArray type="Float32" Name="Force" NumberOfComponents="3" format="ascii">
                     175.00253                      77.33032                      -8.87050
                     569.35512                     246.81998                     -29.21455
                    2065.71863                    -738.02636                    -202.86342
                    3612.40117                   -1328.04146                    -357.51692
                    2242.56461                    -731.30341                    -216.79736
                    4737.94946                   -1341.95314                    -446.90166
                    5545.64373                   -1305.12088                    -508.86807
                    6523.64845                   -1275.77056                    -585.13935
                    6867.83236                   -1134.25360                    -605.70291
                    8234.60932                   -1128.09560                    -715.09825
                    8992.59946                   -1011.87963                    -770.83746
                    9257.58609                    -889.12297                    -787.48653
                    5007.59586                    -413.72799                    -423.16058
                    9631.07670                    -656.79589                    -807.65053
                    8971.82841                    -466.90748                    -745.60515
                   12637.56438                    -461.55264                   -1040.10314
                    5664.25917                    -134.14673                    -461.81474
        </DataArray>
        <DataArray type="Float32" Name="Moment" NumberOfComponents="3" format="ascii">
                     -19.08276                      20.45823                       7.11336
                     136.81393                     359.25010                      77.05347
                     933.22745                    2111.54379                     439.98284
                    1075.53586                    2902.89473                     788.50067
                      81.71330                     225.90963                     339.55126
                    -777.57580                   -2439.13051                     249.23259
                    -466.95141                   -1331.96993                    -292.14940
                    -201.41709                      -1.01601                    -826.56435
                    -118.85552                     556.53785                   -1033.62648
                     -48.98717                    1325.81610                   -1183.09922
                     180.28557                    3356.35514                   -1205.05593
                     398.07403                    5497.94249                    -781.39681
                     -91.52204                    -340.31896                    -541.19850
                    -641.16070                   -6586.51766                   -1418.28669
                    -469.60830                   -5824.62679                   -1332.38330
                    -226.72379                    -656.62456                   -1360.41319
                     -70.76375                     634.01547                    -471.77682
        </DataArray>
      </PointData>
    </Piece>
  </PolyData>
</VTKFile>
