<?xml version="1.0"?>
<VTKFile type="PolyData" version="0.1" byte_order="LittleEndian">
  <PolyData>
    <Piece NumberOfPoints="     17" NumberOfVerts="  0" NumberOfLines="      0"
           NumberOfStrips="  0" NumberOfPolys="      0">
      <Points>
        <DataArray type="Float32" NumberOfComponents="3" format="ascii">
                       2.56578                      -2.04010                      87.54979
                       2.06851                      -4.25792                      84.73531
                       1.57879                      -6.47175                      81.91636
                       1.09973                      -8.68041                      79.09153
                       0.63412                     -10.88321                      76.25990
                       0.18488                     -13.07981                      73.42081
                      -0.24473                     -15.27003                      70.57377
                      -0.65098                     -17.45375                      67.71834
                      -1.02965                     -19.63098                      64.85418
                      -1.37627                     -21.80182                      61.98114
                      -1.68650                     -23.96645                      59.09927
                      -1.95669                     -26.12515                      56.20895
                      -2.18464                     -28.27835                      53.31087
                      -2.37059                     -30.42656                      50.40609
                      -2.51829                     -32.57057                      47.49596
                      -2.63637                     -34.71149                      44.58215
                      -2.73983                     -36.85087                      41.66662
        </DataArray>
      </Points>
      <PointData>
        <DataArray type="Float32" Name="Force" NumberOfComponents="3" format="ascii">
                     153.67278                     -78.20695                      34.48435
                     565.70592                    -248.34286                      97.64891
                    1981.07563                     518.32455                    -745.87450
                    3246.08301                     868.98680                   -1223.67206
                    1944.24039                     453.69349                    -670.98438
                    4130.83037                     835.76008                   -1300.62722
                    4828.58202                     823.74498                   -1359.94108
                    5070.26647                     713.67599                   -1258.20114
                    5097.65797                     599.37262                   -1113.84527
                    5978.55965                     573.61642                   -1128.24090
                    6143.62612                     472.17878                    -978.00347
                    6142.24889                     384.67188                    -812.87217
                    3084.63517                     161.10061                    -346.87454
                    5102.82442                     203.95223                    -466.73824
                    4100.48418                     109.62502                    -276.47143
                    7289.46757                     234.90858                    -451.80896
                    4043.38789                     139.11671                    -246.97034
        </DataArray>
        <DataArray type="Float32" Name="Moment" NumberOfComponents="3" format="ascii">
                     -19.94153                     -19.29348                      14.01956
                     150.06313                    -344.77355                     168.05254
                     968.96287                   -1886.49699                     865.96270
                     970.78490                   -2380.63294                    1108.44468
                      36.62941                    -245.58234                       2.50717
                    -807.33986                    1698.40474                   -1171.19212
                    -475.33471                    1567.82548                    -347.54923
                     -29.88599                    1222.73101                    1048.36724
                     136.31301                     966.40163                    1639.95634
                     220.99773                     796.17709                    2195.36469
                     412.79687                     -77.28581                    3157.72954
                     510.14536                   -1539.75633                    3633.69048
                       4.06641                     904.51404                     603.92552
                    -317.15057                    4627.88778                    -717.42423
                     -99.58539                    3368.44314                     104.84385
                     120.17495                     901.93037                    2063.85577
                      68.10439                    -233.68120                    1026.15850
        </DataArray>
      </PointData>
    </Piece>
  </PolyData>
</VTKFile>
