<?xml version="1.0"?>
<VTKFile type="PolyData" version="0.1" byte_order="LittleEndian">
  <PolyData>
    <Piece NumberOfPoints="     19" NumberOfVerts="  0" NumberOfLines="     18"
           NumberOfStrips="  0" NumberOfPolys="      0">
      <Points>
        <DataArray type="Float32" NumberOfComponents="3" format="ascii">
                       3.11069                      -0.40159                      91.56109
                       3.20963                      -0.76709                      92.87430
                       3.38276                      -1.58936                      95.47731
                       3.54602                      -2.45565                      98.06889
                       3.74734                      -3.56605                     101.30094
                       4.05412                      -4.76419                     105.21128
                       4.39998                      -5.84099                     109.15209
                       4.75683                      -6.91915                     113.09156
                       5.12956                      -7.99702                     117.02968
                       5.51989                      -9.07638                     120.96573
                       5.92673                     -10.16019                     124.89888
                       6.35521                     -11.24708                     128.82891
                       6.80641                     -12.33657                     132.75569
                       7.27996                     -13.42813                     136.67928
                       7.77579                     -14.52127                     140.59970
                       8.20236                     -15.43298                     143.86484
                       8.54975                     -16.15503                     146.47820
                       8.89829                     -16.82425                     149.10661
                       9.07031                     -17.19893                     150.40953
        </DataArray>
      </Points>
      <PointData>
        <DataArray type="Float32" Name="Force" NumberOfComponents="3" format="ascii">
                       0.09807                       2.95629                       0.80701
                      71.79103                      25.07325                       1.45175
                      90.06149                      58.95961                       9.33543
                      80.54669                      77.01012                      14.96207
                     702.13941                    -285.65763                    -134.44690
                     910.94612                    -326.45071                    -164.57840
                    1028.20153                    -300.97769                    -170.33689
                    1276.42795                    -311.78015                    -199.07751
                    1299.57089                    -254.99118                    -191.02111
                    1389.61068                    -222.23079                    -197.19004
                    1562.15794                    -188.21163                    -213.45057
                    1543.33067                    -129.92949                    -204.85871
                    1609.84365                     -94.12868                    -212.50431
                    1414.83720                     -31.93429                    -181.47109
                    1173.04096                      13.44633                    -145.71874
                     798.91935                      41.39044                     -92.85008
                    1116.20947                      43.25325                    -135.13572
                    1084.15711                      29.08894                    -134.93829
                    1333.76701                      20.64456                    -169.64407
        </DataArray>
        <DataArray type="Float32" Name="Moment" NumberOfComponents="3" format="ascii">
                       0.00000                       0.00000                       0.00000
                       0.00000                       0.00000                       0.00000
                       0.00000                       0.00000                       0.00000
                       0.00000                       0.00000                       0.00000
                     -14.23996                      49.46045                    -179.45516
                     -31.16772                     104.96120                    -380.71079
                     -43.01375                     139.67831                    -506.44845
                     -62.86164                     195.83536                    -709.75339
                     -89.50128                     266.18715                    -964.23179
                    -104.24343                     294.63832                   -1066.66383
                    -115.91803                     310.06582                   -1121.75977
                    -128.26116                     324.15261                   -1171.86311
                    -107.45355                     256.83409                    -927.78761
                    -108.65135                     246.69813                    -890.51157
                    -108.22075                     235.47537                    -849.45217
                    -105.90763                     224.90569                    -811.01396
                    -103.17435                     217.09286                    -782.72583
                     -53.82665                     113.18136                    -408.06966
                     -56.41895                     119.00607                    -429.09196
        </DataArray>
        <DataArray type="Float32" Name="TranslationalVelocity" NumberOfComponents="3" format="ascii">
                       0.09158                      -1.38479                      -0.35346
                       0.05568                      -2.61361                      -0.69277
                      -0.02341                      -5.04748                      -1.45635
                      -0.09676                      -7.47212                      -2.26220
                      -0.16952                     -10.50089                      -3.29820
                      -0.20246                     -14.18101                      -4.42317
                      -0.16783                     -17.90459                      -5.44360
                      -0.06858                     -21.63941                      -6.47469
                       0.10755                     -25.38641                      -7.51690
                       0.37378                     -29.14510                      -8.57405
                       0.73219                     -32.91296                      -9.64943
                       1.20555                     -36.69032                     -10.74572
                       1.80370                     -40.47527                     -11.86458
                       2.52968                     -44.26547                     -13.00663
                       3.37531                     -48.05842                     -14.17113
                       4.15326                     -51.21991                     -15.15547
                       4.81080                     -53.75102                     -15.94214
                       5.47958                     -56.29671                     -16.67892
                       5.80846                     -57.55861                     -17.08520
        </DataArray>
        <DataArray type="Float32" Name="RotationalVelocity" NumberOfComponents="3" format="ascii">
                       0.92695                       0.00276                      -0.11274
                       0.92727                       0.00395                      -0.11243
                       0.92816                       0.00727                      -0.11158
                       0.92937                       0.01178                      -0.11043
                       0.93137                       0.01930                      -0.10851
                       0.93423                       0.03070                      -0.10559
                       0.93733                       0.04453                      -0.10201
                       0.94063                       0.06095                      -0.09774
                       0.94412                       0.08023                      -0.09269
                       0.94769                       0.10264                      -0.08679
                       0.95121                       0.12848                      -0.07994
                       0.95451                       0.15690                      -0.07236
                       0.95740                       0.18674                      -0.06436
                       0.95978                       0.21602                      -0.05647
                       0.96151                       0.24177                      -0.04951
                       0.96237                       0.25726                      -0.04531
                       0.96269                       0.26351                      -0.04361
                       0.96274                       0.26446                      -0.04335
                       0.96268                       0.26275                      -0.04382
        </DataArray>
        <DataArray type="Float32" Name="TranslationalAcceleration" NumberOfComponents="3" format="ascii">
                       0.48254                      -0.10287                      -1.39861
                       0.31512                       0.06514                      -2.57775
                      -0.02022                       0.49816                      -4.91962
                      -0.36437                       1.01888                      -7.24102
                      -0.81704                       1.78120                     -10.11165
                      -1.41130                       2.72109                     -13.54290
                      -2.07729                       3.73349                     -16.96659
                      -2.81881                       4.93139                     -20.36164
                      -3.61968                       6.30786                     -23.73669
                      -4.44032                       7.85232                     -27.10423
                      -5.22872                       9.53802                     -30.47832
                      -5.90993                      11.36608                     -33.87824
                      -6.40007                      13.32319                     -37.32563
                      -6.62053                      15.39709                     -40.84083
                      -6.51549                      17.57399                     -44.43775
                      -6.17560                      19.45082                     -47.49666
                      -5.74380                      20.97624                     -49.98372
                      -5.19777                      22.46574                     -52.51742
                      -4.91813                      23.24417                     -53.76186
        </DataArray>
        <DataArray type="Float32" Name="OrientationX" NumberOfComponents="3" format="ascii">
                       0.96270                      -0.23322                      -0.13717
                       0.96268                      -0.23315                      -0.13742
                       0.96263                      -0.23296                      -0.13814
                       0.96255                      -0.23269                      -0.13911
                       0.96243                      -0.23224                      -0.14072
                       0.97005                      -0.20161                      -0.13547
                       0.97484                      -0.17906                      -0.13277
                       0.97851                      -0.15905                      -0.13123
                       0.98192                      -0.13774                      -0.12989
                       0.98489                      -0.11561                      -0.12890
                       0.98717                      -0.09440                      -0.12877
                       0.98893                      -0.07318                      -0.12907
                       0.99006                      -0.05373                      -0.13001
                       0.99051                      -0.03861                      -0.13192
                       0.99081                      -0.02392                      -0.13311
                       0.99106                      -0.01197                      -0.13288
                       0.99129                      -0.00338                      -0.13167
                       0.99145                       0.00108                      -0.13050
                       0.99150                       0.00097                      -0.13012
        </DataArray>
        <DataArray type="Float32" Name="OrientationY" NumberOfComponents="3" format="ascii">
                       0.26058                       0.93565                       0.23803
                       0.26059                       0.93563                       0.23808
                       0.26060                       0.93560                       0.23821
                       0.26061                       0.93556                       0.23836
                       0.26063                       0.93549                       0.23860
                       0.22982                       0.94232                       0.24332
                       0.20748                       0.94661                       0.24675
                       0.18789                       0.94991                       0.24974
                       0.16712                       0.95297                       0.25284
                       0.14568                       0.95564                       0.25598
                       0.12536                       0.95773                       0.25892
                       0.10517                       0.95937                       0.26182
                       0.08685                       0.96048                       0.26445
                       0.07296                       0.96107                       0.26650
                       0.05928                       0.96145                       0.26850
                       0.04784                       0.96163                       0.27014
                       0.03932                       0.96168                       0.27133
                       0.03475                       0.96168                       0.27195
                       0.03475                       0.96168                       0.27195
        </DataArray>
        <DataArray type="Float32" Name="OrientationZ" NumberOfComponents="3" format="ascii">
                       0.07283                      -0.26489                       0.96152
                       0.07307                      -0.26501                       0.96147
                       0.07375                      -0.26530                       0.96134
                       0.07468                      -0.26569                       0.96116
                       0.07623                      -0.26631                       0.96087
                       0.07860                      -0.26717                       0.96044
                       0.08150                      -0.26809                       0.95994
                       0.08493                      -0.26903                       0.95938
                       0.08895                      -0.26997                       0.95875
                       0.09359                      -0.27089                       0.95805
                       0.09889                      -0.27174                       0.95728
                       0.10466                      -0.27249                       0.95645
                       0.11066                      -0.27311                       0.95560
                       0.11649                      -0.27359                       0.95476
                       0.12156                      -0.27392                       0.95404
                       0.12455                      -0.27408                       0.95361
                       0.12570                      -0.27414                       0.95344
                       0.12579                      -0.27416                       0.95342
                       0.12539                      -0.27416                       0.95347
        </DataArray>
      </PointData>
      <Lines>
        <DataArray type="Int32" Name="connectivity" format="ascii">
      0      1
      1      2
      2      3
      3      4
      4      5
      5      6
      6      7
      7      8
      8      9
      9     10
     10     11
     11     12
     12     13
     13     14
     14     15
     15     16
     16     17
     17     18
        </DataArray>
        <DataArray type="Int32" Name="offsets" format="ascii">
      2
      4
      6
      8
     10
     12
     14
     16
     18
     20
     22
     24
     26
     28
     30
     32
     34
     36
        </DataArray>
      </Lines>
    </Piece>
  </PolyData>
</VTKFile>
