<?xml version="1.0"?>
<VTKFile type="PolyData" version="0.1" byte_order="LittleEndian">
  <PolyData>
    <Piece NumberOfPoints="     19" NumberOfVerts="  0" NumberOfLines="     18"
           NumberOfStrips="  0" NumberOfPolys="      0">
      <Points>
        <DataArray type="Float32" NumberOfComponents="3" format="ascii">
                       3.23932                      -0.07791                      93.41435
                       3.51667                      -0.16309                      97.02035
                       3.79409                      -0.24828                     100.62634
                       4.07160                      -0.33348                     104.23232
                       4.34922                      -0.41868                     107.83829
                       4.62696                      -0.50388                     111.44425
                       4.90485                      -0.58909                     115.05020
                       5.18290                      -0.67430                     118.65614
                       5.46112                      -0.75952                     122.26207
                       5.73953                      -0.84475                     125.86798
                       6.01812                      -0.92997                     129.47388
                       6.29691                      -1.01520                     133.07976
                       6.57588                      -1.10042                     136.68563
                       6.85502                      -1.18564                     140.29148
                       7.13429                      -1.27086                     143.89733
                       7.41366                      -1.35607                     147.50316
                       7.69306                      -1.44128                     151.10900
                       7.83275                      -1.48389                     152.91192
                       3.10065                      -0.03531                      91.61136
        </DataArray>
      </Points>
      <PointData>
        <DataArray type="Float32" Name="TranslationalVelocity" NumberOfComponents="3" format="ascii">
                      -0.00861                      -3.11669                      -0.07934
                      -0.02003                      -6.52475                      -0.15898
                      -0.02639                      -9.93298                      -0.23901
                      -0.02570                     -13.34156                      -0.31959
                      -0.01634                     -16.75059                      -0.40085
                       0.00311                     -20.16006                      -0.48291
                       0.03385                     -23.56996                      -0.56586
                       0.07691                     -26.98029                      -0.64977
                       0.13314                     -30.39099                      -0.73472
                       0.20315                     -33.80197                      -0.82074
                       0.28727                     -37.21309                      -0.90786
                       0.38536                     -40.62420                      -0.99607
                       0.49674                     -44.03515                      -1.08530
                       0.61999                     -47.44581                      -1.17545
                       0.75272                     -50.85612                      -1.26633
                       0.89137                     -54.26606                      -1.35765
                       1.03091                     -57.67577                      -1.44904
                       1.10016                     -59.38058                      -1.49469
                      -0.00190                      -1.41268                      -0.03960
        </DataArray>
        <DataArray type="Float32" Name="RotationalVelocity" NumberOfComponents="3" format="ascii">
                       0.93637                      -0.00104                      -0.11348
                       0.93639                       0.00006                      -0.11345
                       0.93647                       0.00177                      -0.11342
                       0.93659                       0.00397                      -0.11338
                       0.93672                       0.00658                      -0.11332
                       0.93684                       0.00956                      -0.11326
                       0.93697                       0.01284                      -0.11319
                       0.93709                       0.01639                      -0.11312
                       0.93718                       0.02014                      -0.11304
                       0.93725                       0.02403                      -0.11295
                       0.93727                       0.02796                      -0.11286
                       0.93725                       0.03178                      -0.11277
                       0.93719                       0.03533                      -0.11268
                       0.93710                       0.03836                      -0.11260
                       0.93700                       0.04058                      -0.11254
                       0.93691                       0.04164                      -0.11251
                       0.93687                       0.04107                      -0.11252
                       0.93687                       0.04033                      -0.11254
                       0.93638                      -0.00143                      -0.11349
        </DataArray>
        <DataArray type="Float32" Name="TranslationalAcceleration" NumberOfComponents="3" format="ascii">
                      -0.30240                       0.02498                      -3.13426
                      -0.74600                       0.07062                      -6.32186
                      -1.01065                       0.09912                      -9.52393
                      -1.02682                       0.10119                     -12.74643
                      -0.73627                       0.07173                     -15.99419
                      -0.08573                       0.00931                     -19.27144
                       0.97679                      -0.08739                     -22.58231
                       2.50384                      -0.21977                     -25.93100
                       4.54821                      -0.38775                     -29.32165
                       7.16026                      -0.58940                     -32.75810
                      10.38289                      -0.82076                     -36.24351
                      14.24431                      -1.07583                     -39.77979
                      18.74849                      -1.34731                     -43.36691
                      23.86339                      -1.62789                     -47.00202
                      29.50697                      -1.91097                     -50.67837
                      35.53099                      -2.19153                     -54.38406
                      41.70256                      -2.46838                     -58.10075
                      44.79021                      -2.60604                     -59.95910
                      -0.04551                      -0.00079                      -1.54326
        </DataArray>
        <DataArray type="Float32" Name="RotationalAcceleration" NumberOfComponents="3" format="ascii">
                       0.00644                      -0.03516                      -0.00404
                       0.00967                       0.00376                      -0.00337
                       0.01585                       0.06407                      -0.00242
                       0.02418                       0.14157                      -0.00123
                       0.03315                       0.23419                       0.00027
                       0.04228                       0.34121                       0.00210
                       0.05197                       0.46266                       0.00422
                       0.06188                       0.59882                       0.00667
                       0.07154                       0.74954                       0.00949
                       0.08041                       0.91360                       0.01269
                       0.08792                       1.08809                       0.01623
                       0.09351                       1.26777                       0.02004
                       0.09703                       1.44444                       0.02395
                       0.09862                       1.60633                       0.02765
                       0.09851                       1.73751                       0.03076
                       0.09735                       1.81721                       0.03273
                       0.09656                       1.81927                       0.03284
                       0.09648                       1.79726                       0.03233
                       0.00561                      -0.04859                      -0.00429
        </DataArray>
        <DataArray type="Float32" Name="OrientationX" NumberOfComponents="3" format="ascii">
                       0.96963                      -0.23112                      -0.08003
                       0.96963                      -0.23112                      -0.08005
                       0.96962                      -0.23112                      -0.08007
                       0.97263                      -0.21816                      -0.08002
                       0.97895                      -0.18782                      -0.07982
                       0.98214                      -0.17043                      -0.07969
                       0.98505                      -0.15278                      -0.07954
                       0.98779                      -0.13405                      -0.07936
                       0.99020                      -0.11504                      -0.07914
                       0.99217                      -0.09680                      -0.07892
                       0.99378                      -0.07880                      -0.07867
                       0.99501                      -0.06173                      -0.07841
                       0.99578                      -0.04798                      -0.07820
                       0.99631                      -0.03579                      -0.07799
                       0.99669                      -0.02357                      -0.07777
                       0.99693                      -0.01144                      -0.07752
                       0.99700                      -0.00347                      -0.07733
                       0.99701                      -0.00102                      -0.07726
                       0.96963                      -0.23112                      -0.08003
        </DataArray>
        <DataArray type="Float32" Name="OrientationY" NumberOfComponents="3" format="ascii">
                       0.23227                       0.97264                       0.00511
                       0.23226                       0.97264                       0.00511
                       0.23226                       0.97264                       0.00511
                       0.21934                       0.97563                       0.00617
                       0.18909                       0.98192                       0.00864
                       0.17176                       0.98509                       0.01004
                       0.15416                       0.98798                       0.01146
                       0.13549                       0.99069                       0.01296
                       0.11653                       0.99308                       0.01448
                       0.09835                       0.99502                       0.01592
                       0.08040                       0.99661                       0.01734
                       0.06338                       0.99781                       0.01868
                       0.04967                       0.99857                       0.01976
                       0.03751                       0.99908                       0.02071
                       0.02532                       0.99944                       0.02166
                       0.01323                       0.99966                       0.02260
                       0.00528                       0.99972                       0.02321
                       0.00283                       0.99972                       0.02340
                       0.23227                       0.97264                       0.00512
        </DataArray>
        <DataArray type="Float32" Name="OrientationZ" NumberOfComponents="3" format="ascii">
                       0.07666                      -0.02355                       0.99678
                       0.07667                      -0.02355                       0.99678
                       0.07670                      -0.02355                       0.99678
                       0.07672                      -0.02355                       0.99677
                       0.07676                      -0.02355                       0.99677
                       0.07679                      -0.02355                       0.99677
                       0.07684                      -0.02355                       0.99677
                       0.07688                      -0.02356                       0.99676
                       0.07693                      -0.02356                       0.99676
                       0.07698                      -0.02356                       0.99675
                       0.07704                      -0.02356                       0.99675
                       0.07709                      -0.02356                       0.99675
                       0.07714                      -0.02356                       0.99674
                       0.07718                      -0.02356                       0.99674
                       0.07722                      -0.02356                       0.99674
                       0.07723                      -0.02355                       0.99673
                       0.07723                      -0.02355                       0.99674
                       0.07722                      -0.02355                       0.99674
                       0.07666                      -0.02355                       0.99678
        </DataArray>
      </PointData>
      <Lines>
        <DataArray type="Int32" Name="connectivity" format="ascii">
      0      1
      1      2
      2      3
      3      4
      4      5
      5      6
      6      7
      7      8
      8      9
      9     10
     10     11
     11     12
     12     13
     13     14
     14     15
     15     16
     16     17
     18      0
        </DataArray>
        <DataArray type="Int32" Name="offsets" format="ascii">
      2
      4
      6
      8
     10
     12
     14
     16
     18
     20
     22
     24
     26
     28
     30
     32
     34
     36
        </DataArray>
      </Lines>
    </Piece>
  </PolyData>
</VTKFile>
