<?xml version="1.0"?>
<VTKFile type="PolyData" version="0.1" byte_order="LittleEndian">
  <PolyData>
    <Piece NumberOfPoints="     17" NumberOfVerts="  0" NumberOfLines="      0"
           NumberOfStrips="  0" NumberOfPolys="      0">
      <Points>
        <DataArray type="Float32" NumberOfComponents="3" format="ascii">
                       2.59086                      -1.25257                      87.11094
                       2.02540                      -2.60187                      83.80232
                       1.47048                      -3.94941                      80.49120
                       0.93020                      -5.29451                      77.17666
                       0.40804                      -6.63675                      73.85808
                      -0.09238                      -7.97593                      70.53492
                      -0.56686                      -9.31178                      67.20663
                      -1.01030                     -10.64398                      63.87261
                      -1.41678                     -11.97220                      60.53231
                      -1.77979                     -13.29621                      57.18536
                      -2.09278                     -14.61587                      53.83167
                      -2.35000                     -15.93120                      50.47154
                      -2.54762                     -17.24239                      47.10574
                      -2.68516                     -18.54976                      43.73542
                      -2.76713                     -19.85385                      40.36192
                      -2.80507                     -21.15558                      36.98661
                      -2.81978                     -22.45615                      33.61058
        </DataArray>
      </Points>
      <PointData>
        <DataArray type="Float32" Name="Force" NumberOfComponents="3" format="ascii">
                     137.63314                     -79.03566                       8.61597
                     509.60909                    -259.95893                      20.60716
                    1869.12340                     594.77339                    -547.88013
                    3131.98132                    1014.53875                    -910.42874
                    1909.95846                     541.70632                    -513.89717
                    4135.61870                    1022.45435                   -1025.24852
                    4981.25218                    1049.00455                   -1115.52853
                    5488.02849                     974.37139                   -1093.96588
                    5872.94622                     904.25682                   -1038.54420
                    7439.56638                    1000.30816                   -1146.92602
                    8578.47433                    1032.37223                   -1127.15713
                    9835.23947                    1126.97268                   -1086.90244
                    5679.68977                     627.07858                    -537.01151
                   11463.18403                    1223.53501                    -904.65759
                   11262.51760                    1188.23831                    -711.94453
                   16738.16882                    1796.64008                    -871.12454
                    7506.71077                     804.88516                    -359.12482
        </DataArray>
        <DataArray type="Float32" Name="Moment" NumberOfComponents="3" format="ascii">
                     -19.39523                     -19.22110                       7.49816
                     122.48514                    -358.65377                      65.33215
                     846.76462                   -1958.05659                     295.28106
                     865.95780                   -2538.38686                     422.57284
                      34.26394                    -240.26898                     -48.88476
                    -719.07735                    1905.72620                    -632.18944
                    -407.90990                    1525.66899                      86.75487
                      28.01425                     673.01038                    1294.91945
                     194.41404                     105.69500                    1741.34836
                     307.88982                    -563.72358                    2162.23582
                     610.44306                   -2486.70151                    2917.29201
                     943.50240                   -5360.57381                    3362.10225
                     -41.42829                     550.43381                     346.18307
                    -989.94658                    7492.10658                   -1861.60802
                    -879.74579                    7035.31857                   -1880.66062
                     -21.85776                     635.19384                     602.08068
                     -44.96127                    -159.71522                     308.36936
        </DataArray>
      </PointData>
    </Piece>
  </PolyData>
</VTKFile>
