<?xml version="1.0"?>
<VTKFile type="PolyData" version="0.1" byte_order="LittleEndian">
  <PolyData>
    <Piece NumberOfPoints="     19" NumberOfVerts="  0" NumberOfLines="     18"
           NumberOfStrips="  0" NumberOfPolys="      0">
      <Points>
        <DataArray type="Float32" NumberOfComponents="3" format="ascii">
                       3.27660                      -1.73957                      92.94642
                       3.50338                      -3.62567                      96.02515
                       3.73771                      -5.51414                      99.10185
                       3.98258                      -7.40575                     102.17580
                       4.24054                      -9.30095                     105.24647
                       4.51431                     -11.19997                     108.31340
                       4.80715                     -13.10299                     111.37608
                       5.12301                     -15.01017                     114.43387
                       5.46654                     -16.92157                     117.48603
                       5.84287                     -18.83707                     120.53173
                       6.25717                     -20.75631                     123.57013
                       6.71396                     -22.67868                     126.60043
                       7.21630                     -24.60337                     129.62205
                       7.76466                     -26.52947                     132.63478
                       8.35567                     -28.45609                     135.63914
                       8.98062                     -30.38261                     138.63676
                       9.62377                     -32.30888                     141.63073
                       9.94743                     -33.27197                     143.12729
                       3.16468                      -0.79699                      91.40666
        </DataArray>
      </Points>
      <PointData>
        <DataArray type="Float32" Name="TranslationalVelocity" NumberOfComponents="3" format="ascii">
                       0.13430                      -2.65168                      -1.55783
                      -0.05375                      -5.52417                      -3.30374
                      -0.23746                      -8.39824                      -5.05384
                      -0.41501                     -11.27431                      -6.80955
                      -0.58475                     -14.15262                      -8.57178
                      -0.74519                     -17.03321                     -10.34112
                      -0.89504                     -19.91593                     -12.11801
                      -1.03322                     -22.80046                     -13.90289
                      -1.15887                     -25.68633                     -15.69604
                      -1.27138                     -28.57288                     -17.49758
                      -1.37049                     -31.45939                     -19.30740
                      -1.45637                     -34.34501                     -21.12508
                      -1.52976                     -37.22894                     -22.94987
                      -1.59212                     -40.11048                     -24.78072
                      -1.64584                     -42.98933                     -26.61620
                      -1.69447                     -45.86576                     -28.45456
                      -1.74294                     -48.74092                     -30.29382
                      -1.76785                     -50.17839                     -31.21341
                       0.22917                      -1.21576                      -0.68572
        </DataArray>
        <DataArray type="Float32" Name="RotationalVelocity" NumberOfComponents="3" format="ascii">
                       0.92429                       0.00800                      -0.11372
                       0.92502                       0.00887                      -0.11323
                       0.92607                       0.01024                      -0.11247
                       0.92735                       0.01204                      -0.11146
                       0.92875                       0.01423                      -0.11023
                       0.93019                       0.01675                      -0.10878
                       0.93165                       0.01957                      -0.10717
                       0.93308                       0.02262                      -0.10540
                       0.93444                       0.02586                      -0.10352
                       0.93571                       0.02919                      -0.10157
                       0.93686                       0.03254                      -0.09960
                       0.93787                       0.03578                      -0.09770
                       0.93873                       0.03874                      -0.09595
                       0.93942                       0.04122                      -0.09448
                       0.93991                       0.04299                      -0.09343
                       0.94018                       0.04373                      -0.09300
                       0.94020                       0.04310                      -0.09339
                       0.94014                       0.04239                      -0.09382
                       0.92402                       0.00770                      -0.11388
        </DataArray>
        <DataArray type="Float32" Name="TranslationalAcceleration" NumberOfComponents="3" format="ascii">
                       0.01272                       1.72086                      -2.30750
                      -0.30573                       3.37968                      -4.94943
                      -0.66517                       5.04397                      -7.59173
                      -1.08040                       6.71615                     -10.23356
                      -1.56360                       8.39741                     -12.87394
                      -2.13206                      10.08905                     -15.51032
                      -2.81339                      11.79367                     -18.13737
                      -3.64819                      13.51480                     -20.74649
                      -4.69026                      15.25553                     -23.32578
                      -6.00404                      17.01713                     -25.86019
                      -7.65943                      18.79775                     -28.33202
                      -9.72392                      20.59152                     -30.72211
                     -12.25215                      22.38897                     -33.01189
                     -15.27283                      24.17894                     -35.18701
                     -18.77323                      25.95132                     -37.24328
                     -22.68125                      27.70116                     -39.19457
                     -26.84473                      29.43416                     -41.08065
                     -28.96563                      30.29802                     -42.01422
                       0.16399                       0.89240                      -0.98676
        </DataArray>
        <DataArray type="Float32" Name="RotationalAcceleration" NumberOfComponents="3" format="ascii">
                      -0.00843                       0.01987                      -0.01228
                      -0.00881                       0.01245                      -0.01679
                      -0.00992                       0.00072                      -0.02388
                      -0.01134                      -0.01364                      -0.03257
                      -0.01308                      -0.03111                      -0.04313
                      -0.01569                      -0.05369                      -0.05676
                      -0.02000                      -0.08433                      -0.07519
                      -0.02651                      -0.12632                      -0.10042
                      -0.03542                      -0.18270                      -0.13427
                      -0.04657                      -0.25555                      -0.17804
                      -0.05942                      -0.34545                      -0.23212
                      -0.07311                      -0.45076                      -0.29556
                      -0.08676                      -0.56704                      -0.36572
                      -0.09940                      -0.68638                      -0.43783
                      -0.10984                      -0.79684                      -0.50466
                      -0.11692                      -0.88180                      -0.55613
                      -0.11979                      -0.91930                      -0.57887
                      -0.12010                      -0.92309                      -0.58117
                      -0.00850                       0.02213                      -0.01088
        </DataArray>
        <DataArray type="Float32" Name="OrientationX" NumberOfComponents="3" format="ascii">
                       0.95455                      -0.21824                      -0.20298
                       0.95444                      -0.21733                      -0.20447
                       0.95426                      -0.21589                      -0.20681
                       0.95782                      -0.20307                      -0.20332
                       0.96571                      -0.17513                      -0.19169
                       0.96958                      -0.15775                      -0.18718
                       0.97309                      -0.13961                      -0.18332
                       0.97635                      -0.11993                      -0.17990
                       0.97911                      -0.09928                      -0.17742
                       0.98116                      -0.07852                      -0.17651
                       0.98258                      -0.05724                      -0.17680
                       0.98329                      -0.03617                      -0.17843
                       0.98311                      -0.01764                      -0.18215
                       0.98249                      -0.00062                      -0.18634
                       0.98183                       0.01556                      -0.18913
                       0.98148                       0.02991                      -0.18919
                       0.98165                       0.03787                      -0.18689
                       0.98191                       0.03968                      -0.18516
                       0.95459                      -0.21855                      -0.20248
        </DataArray>
        <DataArray type="Float32" Name="OrientationY" NumberOfComponents="3" format="ascii">
                       0.29155                       0.82512                       0.48391
                       0.29156                       0.82503                       0.48406
                       0.29158                       0.82491                       0.48426
                       0.27887                       0.82756                       0.48721
                       0.24908                       0.83327                       0.49357
                       0.23200                       0.83606                       0.49717
                       0.21464                       0.83857                       0.50073
                       0.19623                       0.84088                       0.50440
                       0.17753                       0.84284                       0.50804
                       0.15959                       0.84434                       0.51149
                       0.14189                       0.84544                       0.51487
                       0.12514                       0.84613                       0.51807
                       0.11166                       0.84640                       0.52070
                       0.09974                       0.84643                       0.52307
                       0.08781                       0.84628                       0.52546
                       0.07596                       0.84595                       0.52782
                       0.06815                       0.84566                       0.52935
                       0.06574                       0.84557                       0.52981
                       0.29155                       0.82516                       0.48386
        </DataArray>
        <DataArray type="Float32" Name="OrientationZ" NumberOfComponents="3" format="ascii">
                       0.06187                      -0.52110                       0.85125
                       0.06350                      -0.52162                       0.85081
                       0.06605                      -0.52241                       0.85013
                       0.06932                      -0.52336                       0.84929
                       0.07329                      -0.52439                       0.84832
                       0.07806                      -0.52547                       0.84722
                       0.08382                      -0.52660                       0.84597
                       0.09078                      -0.52777                       0.84452
                       0.09910                      -0.52893                       0.84286
                       0.10887                      -0.53003                       0.84096
                       0.12001                      -0.53099                       0.83884
                       0.13223                      -0.53174                       0.83652
                       0.14498                      -0.53225                       0.83408
                       0.15739                      -0.53249                       0.83167
                       0.16823                      -0.53252                       0.82953
                       0.17583                      -0.53242                       0.82802
                       0.17809                      -0.53237                       0.82756
                       0.17759                      -0.53239                       0.82766
                       0.06134                      -0.52092                       0.85140
        </DataArray>
      </PointData>
      <Lines>
        <DataArray type="Int32" Name="connectivity" format="ascii">
      0      1
      1      2
      2      3
      3      4
      4      5
      5      6
      6      7
      7      8
      8      9
      9     10
     10     11
     11     12
     12     13
     13     14
     14     15
     15     16
     16     17
     18      0
        </DataArray>
        <DataArray type="Int32" Name="offsets" format="ascii">
      2
      4
      6
      8
     10
     12
     14
     16
     18
     20
     22
     24
     26
     28
     30
     32
     34
     36
        </DataArray>
      </Lines>
    </Piece>
  </PolyData>
</VTKFile>
