<?xml version="1.0"?>
<VTKFile type="PolyData" version="0.1" byte_order="LittleEndian">
  <PolyData>
    <Piece NumberOfPoints="     17" NumberOfVerts="  0" NumberOfLines="      0"
           NumberOfStrips="  0" NumberOfPolys="      0">
      <Points>
        <DataArray type="Float32" NumberOfComponents="3" format="ascii">
                       3.06303                       3.23005                      90.76520
                       2.99504                       6.78181                      91.44910
                       2.93522                      10.33396                      92.13172
                       2.88665                      13.88658                      92.81280
                       2.85188                      17.43970                      93.49210
                       2.83366                      20.99334                      94.16931
                       2.83539                      24.54746                      94.84422
                       2.86141                      28.10194                      95.51662
                       2.91694                      31.65661                      96.18621
                       3.00788                      35.21116                      96.85249
                       3.14022                      38.76515                      97.51473
                       3.31939                      42.31799                      98.17207
                       3.54920                      45.86898                      98.82363
                       3.83062                      49.41744                      99.46877
                       4.16035                      52.96297                     100.10744
                       4.52907                      56.50572                     100.74050
                       4.91950                      60.04680                     101.37023
        </DataArray>
      </Points>
      <PointData>
        <DataArray type="Float32" Name="Force" NumberOfComponents="3" format="ascii">
                     147.51978                      15.74610                     -66.51686
                     475.08810                      53.17124                    -234.41024
                    1927.44823                     -53.35946                     416.65408
                    3401.68824                    -124.24303                     836.02225
                    2076.29638                     -68.53910                     435.73113
                    4412.02102                    -123.77924                     713.15102
                    5232.49693                    -131.86133                     596.36473
                    5709.47454                    -143.12455                     408.03788
                    6091.43490                    -172.55969                     235.30653
                    7706.24373                    -262.35966                      75.36958
                    8924.41025                    -382.42636                    -124.81915
                   10382.11661                    -569.94776                    -296.25272
                    6084.23912                    -392.95876                    -235.28311
                   12447.98594                    -925.73881                    -606.16544
                   12370.69127                   -1055.43683                    -723.06822
                   18313.02867                   -1724.32571                   -1218.31669
                    8044.10807                    -772.59333                    -632.14712
        </DataArray>
        <DataArray type="Float32" Name="Moment" NumberOfComponents="3" format="ascii">
                     -18.97481                       6.49981                     -14.48311
                      63.35280                     122.69571                    -319.59670
                     546.39606                     732.50136                   -1902.27673
                     650.00945                    1260.44229                   -2568.80182
                      16.55790                     372.38096                    -145.87876
                    -462.55396                    -101.52065                    2163.97193
                    -287.89555                    -532.31649                    1378.71089
                    -144.20891                   -1144.66976                     -77.51327
                    -109.90816                   -1294.90047                    -846.22697
                    -137.29134                   -1317.06221                   -1684.22441
                    -171.06348                    -969.21020                   -3850.20687
                    -221.47520                     212.95407                   -6776.90307
                     -29.61893                    -446.64003                     286.91228
                     180.51497                   -2134.36039                    7943.10638
                     253.16746                   -1925.47748                    7663.55486
                     -81.42638                    -626.64563                     477.50879
                    -151.43192                    -162.63188                    -388.37085
        </DataArray>
      </PointData>
    </Piece>
  </PolyData>
</VTKFile>
