<?xml version="1.0"?>
<VTKFile type="PolyData" version="0.1" byte_order="LittleEndian">
  <PolyData>
    <Piece NumberOfPoints="     19" NumberOfVerts="  0" NumberOfLines="     18"
           NumberOfStrips="  0" NumberOfPolys="      0">
      <Points>
        <DataArray type="Float32" NumberOfComponents="3" format="ascii">
                       2.57873                      -2.37929                      87.85397
                       2.12219                      -4.97535                      85.37618
                       1.67009                      -7.56863                      82.89468
                       1.22433                     -10.15838                      80.40834
                       0.78666                     -12.74412                      77.91641
                       0.35876                     -15.32566                      75.41843
                      -0.05780                     -17.90295                      72.91417
                      -0.46151                     -20.47607                      70.40352
                      -0.85096                     -23.04517                      67.88650
                      -1.22492                     -25.61049                      65.36329
                      -1.58245                     -28.17232                      62.83416
                      -1.92310                     -30.73102                      60.29954
                      -2.24712                     -33.28697                      57.75996
                      -2.55574                     -35.84060                      55.21614
                      -2.85151                     -38.39239                      52.66893
                      -3.13860                     -40.94289                      50.11945
                      -3.42331                     -43.49276                      47.56905
                      -3.56600                     -44.76762                      46.29382
                       2.80786                      -1.08070                      89.09211
        </DataArray>
      </Points>
      <PointData>
        <DataArray type="Float32" Name="TranslationalVelocity" NumberOfComponents="3" format="ascii">
                      -0.15555                       2.11238                      -2.17709
                      -0.44060                       4.46166                      -4.58596
                      -0.70058                       6.82609                      -7.00951
                      -0.92506                       9.21012                      -9.45240
                      -1.10471                      11.61643                     -11.91767
                      -1.22992                      14.04634                     -14.40733
                      -1.29031                      16.50051                     -16.92292
                      -1.27437                      18.97918                     -19.46568
                      -1.16947                      21.48214                     -22.03650
                      -0.96249                      24.00877                     -24.63578
                      -0.64105                      26.55806                     -27.26328
                      -0.19514                      29.12857                     -29.91793
                       0.38059                      31.71841                     -32.59775
                       1.08401                      34.32518                     -35.29980
                       1.90223                      36.94575                     -38.02008
                       2.80776                      39.57592                     -40.75337
                       3.75410                      42.21042                     -43.49312
                       4.23032                      43.52802                     -44.86369
                      -0.00820                       0.94086                      -0.97563
        </DataArray>
        <DataArray type="Float32" Name="RotationalVelocity" NumberOfComponents="3" format="ascii">
                       0.92557                       0.00212                      -0.11146
                       0.93026                      -0.00199                      -0.10802
                       0.93703                      -0.00846                      -0.10248
                       0.94521                      -0.01685                      -0.09519
                       0.95420                      -0.02709                      -0.08612
                       0.96365                      -0.03925                      -0.07510
                       0.97349                      -0.05353                      -0.06195
                       0.98354                      -0.07013                      -0.04638
                       0.99366                      -0.08924                      -0.02820
                       1.00365                      -0.11083                      -0.00740
                       1.01332                      -0.13460                       0.01576
                       1.02238                      -0.15989                       0.04062
                       1.03059                      -0.18553                       0.06602
                       1.03762                      -0.20980                       0.09019
                       1.04306                      -0.23028                       0.11067
                       1.04645                      -0.24377                       0.12420
                       1.04728                      -0.24618                       0.12658
                       1.04699                      -0.24405                       0.12440
                       0.92384                       0.00349                      -0.11258
        </DataArray>
        <DataArray type="Float32" Name="TranslationalAcceleration" NumberOfComponents="3" format="ascii">
                       0.88060                       2.07167                       1.50931
                       1.16095                       4.57266                       3.43940
                       1.38677                       6.99678                       5.51203
                       1.52665                       9.32418                       7.76918
                       1.54872                      11.54320                      10.23828
                       1.44098                      13.65145                      12.92947
                       1.22826                      15.65488                      15.83682
                       0.98082                      17.56645                      18.94061
                       0.81556                      19.40426                      22.21056
                       0.89154                      21.18943                      25.61061
                       1.39894                      22.94390                      29.10397
                       2.54100                      24.68841                      32.65748
                       4.50915                      26.44109                      36.24400
                       7.45111                      28.21610                      39.84252
                      11.43218                      30.02057                      43.43640
                      16.38979                      31.85104                      47.01026
                      22.08181                      33.69249                      50.54595
                      25.06821                      34.61340                      52.30168
                       0.73005                       0.80488                       0.57393
        </DataArray>
        <DataArray type="Float32" Name="RotationalAcceleration" NumberOfComponents="3" format="ascii">
                       0.10935                      -0.03127                      -0.01237
                       0.07388                      -0.01951                      -0.01813
                       0.02467                      -0.00125                      -0.02816
                      -0.03463                       0.02516                      -0.04487
                      -0.09886                       0.05729                      -0.06668
                      -0.16287                       0.08889                      -0.08797
                      -0.22223                       0.11119                      -0.10036
                      -0.27319                       0.11482                      -0.09471
                      -0.31326                       0.09078                      -0.06204
                      -0.34138                       0.03173                       0.00516
                      -0.35785                      -0.06678                       0.11162
                      -0.36415                      -0.20498                       0.25786
                      -0.36224                      -0.37772                       0.43882
                      -0.35441                      -0.57319                       0.64253
                      -0.34345                      -0.77166                       0.84883
                      -0.33219                      -0.94436                       1.02802
                      -0.32250                      -1.05230                       1.13952
                      -0.31820                      -1.08453                       1.17255
                       0.12332                      -0.03602                      -0.00998
        </DataArray>
        <DataArray type="Float32" Name="OrientationX" NumberOfComponents="3" format="ascii">
                       0.94170                       0.12980                      -0.31040
                       0.94186                       0.13068                      -0.30956
                       0.94210                       0.13205                      -0.30825
                       0.94646                       0.12468                      -0.29776
                       0.95562                       0.10541                      -0.27509
                       0.96063                       0.09557                      -0.26089
                       0.96542                       0.08581                      -0.24618
                       0.97015                       0.07555                      -0.23045
                       0.97459                       0.06531                      -0.21426
                       0.97854                       0.05579                      -0.19837
                       0.98210                       0.04654                      -0.18251
                       0.98518                       0.03793                      -0.16725
                       0.98750                       0.03150                      -0.15444
                       0.98938                       0.02579                      -0.14306
                       0.99102                       0.01938                      -0.13232
                       0.99238                       0.01201                      -0.12264
                       0.99308                       0.00609                      -0.11731
                       0.99322                       0.00379                      -0.11615
                       0.94165                       0.12949                      -0.31069
        </DataArray>
        <DataArray type="Float32" Name="OrientationY" NumberOfComponents="3" format="ascii">
                       0.31169                      -0.68391                       0.65963
                       0.31160                      -0.68441                       0.65916
                       0.31148                      -0.68508                       0.65851
                       0.29878                      -0.68757                       0.66180
                       0.26916                      -0.69198                       0.66987
                       0.25209                      -0.69461                       0.67377
                       0.23472                      -0.69708                       0.67748
                       0.21628                      -0.69943                       0.68119
                       0.19754                      -0.70155                       0.68469
                       0.17952                      -0.70339                       0.68776
                       0.16173                      -0.70498                       0.69054
                       0.14483                      -0.70631                       0.69293
                       0.13120                      -0.70733                       0.69460
                       0.11909                      -0.70813                       0.69596
                       0.10696                      -0.70877                       0.69728
                       0.09491                      -0.70920                       0.69859
                       0.08698                      -0.70936                       0.69946
                       0.08454                      -0.70937                       0.69975
                       0.31172                      -0.68372                       0.65982
        </DataArray>
        <DataArray type="Float32" Name="OrientationZ" NumberOfComponents="3" format="ascii">
                      -0.12667                      -0.71792                      -0.68450
                      -0.12573                      -0.71729                      -0.68534
                      -0.12422                      -0.71640                      -0.68655
                      -0.12222                      -0.71533                      -0.68801
                      -0.11975                      -0.71418                      -0.68964
                      -0.11682                      -0.71301                      -0.69135
                      -0.11347                      -0.71184                      -0.69312
                      -0.10972                      -0.71070                      -0.69489
                      -0.10560                      -0.70962                      -0.69663
                      -0.10116                      -0.70861                      -0.69831
                      -0.09653                      -0.70770                      -0.69989
                      -0.09185                      -0.70688                      -0.70134
                      -0.08736                      -0.70618                      -0.70262
                      -0.08336                      -0.70561                      -0.70368
                      -0.08027                      -0.70517                      -0.70448
                      -0.07859                      -0.70490                      -0.70494
                      -0.07896                      -0.70482                      -0.70498
                      -0.07974                      -0.70483                      -0.70488
                      -0.12699                      -0.71816                      -0.68419
        </DataArray>
      </PointData>
      <Lines>
        <DataArray type="Int32" Name="connectivity" format="ascii">
      0      1
      1      2
      2      3
      3      4
      4      5
      5      6
      6      7
      7      8
      8      9
      9     10
     10     11
     11     12
     12     13
     13     14
     14     15
     15     16
     16     17
     18      0
        </DataArray>
        <DataArray type="Int32" Name="offsets" format="ascii">
      2
      4
      6
      8
     10
     12
     14
     16
     18
     20
     22
     24
     26
     28
     30
     32
     34
     36
        </DataArray>
      </Lines>
    </Piece>
  </PolyData>
</VTKFile>
