<?xml version="1.0"?>
<VTKFile type="PolyData" version="0.1" byte_order="LittleEndian">
  <PolyData>
    <Piece NumberOfPoints="     19" NumberOfVerts="  0" NumberOfLines="     18"
           NumberOfStrips="  0" NumberOfPolys="      0">
      <Points>
        <DataArray type="Float32" NumberOfComponents="3" format="ascii">
                       3.29200                      -2.02575                      92.75849
                       3.49609                      -4.22285                      95.62527
                       3.70783                      -6.42262                      98.48946
                       3.93024                      -8.62590                     101.35012
                       4.16595                     -10.83318                     104.20663
                       4.41777                     -13.04470                     107.05848
                       4.68896                     -15.26063                     109.90512
                       4.98348                     -17.48109                     112.74590
                       5.30593                     -19.70607                     115.58008
                       5.66135                     -21.93538                     118.40690
                       6.05478                     -24.16860                     121.22558
                       6.49060                     -26.40503                     124.03545
                       6.97171                     -28.64380                     126.83606
                       7.49843                     -30.88393                     129.62738
                       8.06727                     -33.12452                     132.41010
                       8.66946                     -35.36494                     135.18601
                       9.28928                     -37.60509                     137.95829
                       9.60115                     -38.72513                     139.34403
                       3.19144                      -0.92774                      91.32458
        </DataArray>
      </Points>
      <PointData>
        <DataArray type="Float32" Name="TranslationalVelocity" NumberOfComponents="3" format="ascii">
                       0.13266                      -2.43104                      -1.77537
                      -0.08231                      -5.07736                      -3.78820
                      -0.30028                      -7.72799                      -5.80784
                      -0.52203                     -10.38390                      -7.83618
                      -0.74792                     -13.04566                      -9.87433
                      -0.97808                     -15.71355                     -11.92288
                      -1.21278                     -18.38750                     -13.98202
                      -1.45247                     -21.06715                     -16.05168
                      -1.69781                     -23.75197                     -18.13148
                      -1.94966                     -26.44136                     -20.22073
                      -2.20895                     -29.13469                     -22.31842
                      -2.47662                     -31.83136                     -24.42322
                      -2.75340                     -34.53079                     -26.53354
                      -3.03960                     -37.23242                     -28.64767
                      -3.33484                     -39.93574                     -30.76397
                      -3.63774                     -42.64027                     -32.88112
                      -3.94558                     -45.34556                     -34.99837
                      -4.10030                     -46.69833                     -36.05698
                       0.23951                      -1.10882                      -0.77037
        </DataArray>
        <DataArray type="Float32" Name="RotationalVelocity" NumberOfComponents="3" format="ascii">
                       0.91414                       0.01254                      -0.11370
                       0.91583                       0.01211                      -0.11415
                       0.91813                       0.01150                      -0.11477
                       0.92081                       0.01081                      -0.11549
                       0.92371                       0.01010                      -0.11624
                       0.92668                       0.00936                      -0.11701
                       0.92961                       0.00855                      -0.11783
                       0.93241                       0.00762                      -0.11874
                       0.93502                       0.00651                      -0.11977
                       0.93742                       0.00518                      -0.12095
                       0.93959                       0.00361                      -0.12230
                       0.94152                       0.00183                      -0.12380
                       0.94320                      -0.00013                      -0.12541
                       0.94460                      -0.00212                      -0.12704
                       0.94569                      -0.00398                      -0.12854
                       0.94640                      -0.00544                      -0.12970
                       0.94663                      -0.00613                      -0.13025
                       0.94661                      -0.00624                      -0.13033
                       0.91347                       0.01271                      -0.11353
        </DataArray>
        <DataArray type="Float32" Name="TranslationalAcceleration" NumberOfComponents="3" format="ascii">
                      -0.32351                       1.98373                      -1.93038
                      -0.63225                       4.13224                      -4.13394
                      -0.98736                       6.26342                      -6.36460
                      -1.40488                       8.37388                      -8.62778
                      -1.89685                      10.46140                     -10.92645
                      -2.47124                      12.52424                     -13.26187
                      -3.13253                      14.56134                     -15.63359
                      -3.88176                      16.57203                     -18.03987
                      -4.71651                      18.55556                     -20.47834
                      -5.63103                      20.51099                     -22.94628
                      -6.61648                      22.43733                     -25.44090
                      -7.66117                      24.33375                     -27.95959
                      -8.75090                      26.20009                     -30.49997
                      -9.86948                      28.03751                     -33.05999
                     -10.99915                      29.84921                     -35.63778
                     -12.12121                      31.64130                     -38.23142
                     -13.21667                      33.42358                     -40.83809
                     -13.75538                      34.31375                     -42.14424
                      -0.17848                       0.90567                      -0.83449
        </DataArray>
        <DataArray type="Float32" Name="RotationalAcceleration" NumberOfComponents="3" format="ascii">
                      -0.10237                       0.00946                       0.00401
                      -0.09444                       0.00176                      -0.00244
                      -0.08407                      -0.00974                      -0.01195
                      -0.07234                      -0.02425                      -0.02387
                      -0.05971                      -0.04087                      -0.03747
                      -0.04666                      -0.05882                      -0.05211
                      -0.03362                      -0.07741                      -0.06725
                      -0.02079                      -0.09589                      -0.08228
                      -0.00824                      -0.11351                      -0.09664
                       0.00395                      -0.12958                      -0.10978
                       0.01572                      -0.14344                      -0.12120
                       0.02693                      -0.15450                      -0.13044
                       0.03737                      -0.16225                      -0.13710
                       0.04672                      -0.16630                      -0.14085
                       0.05453                      -0.16638                      -0.14145
                       0.06016                      -0.16234                      -0.13875
                       0.06276                      -0.15424                      -0.13273
                       0.06319                      -0.14919                      -0.12890
                      -0.10555                       0.01228                       0.00639
        </DataArray>
        <DataArray type="Float32" Name="OrientationX" NumberOfComponents="3" format="ascii">
                       0.95157                      -0.20823                      -0.22619
                       0.95146                      -0.20713                      -0.22763
                       0.95130                      -0.20541                      -0.22988
                       0.95502                      -0.19298                      -0.22517
                       0.96325                      -0.16642                      -0.21083
                       0.96734                      -0.14956                      -0.20466
                       0.97107                      -0.13188                      -0.19907
                       0.97457                      -0.11262                      -0.19372
                       0.97759                      -0.09231                      -0.18920
                       0.97989                      -0.07175                      -0.18617
                       0.98158                      -0.05055                      -0.18426
                       0.98255                      -0.02946                      -0.18365
                       0.98261                      -0.01069                      -0.18535
                       0.98222                       0.00660                      -0.18763
                       0.98179                       0.02290                      -0.18858
                       0.98166                       0.03708                      -0.18701
                       0.98195                       0.04465                      -0.18377
                       0.98225                       0.04622                      -0.18181
                       0.95160                      -0.20860                      -0.22571
        </DataArray>
        <DataArray type="Float32" Name="OrientationY" NumberOfComponents="3" format="ascii">
                       0.30238                       0.76691                       0.56605
                       0.30239                       0.76674                       0.56628
                       0.30242                       0.76650                       0.56658
                       0.28976                       0.76888                       0.56996
                       0.26006                       0.77416                       0.57709
                       0.24304                       0.77666                       0.58115
                       0.22573                       0.77888                       0.58514
                       0.20737                       0.78090                       0.58922
                       0.18871                       0.78260                       0.59324
                       0.17082                       0.78385                       0.59700
                       0.15317                       0.78471                       0.60064
                       0.13645                       0.78518                       0.60404
                       0.12301                       0.78527                       0.60681
                       0.11111                       0.78514                       0.60928
                       0.09920                       0.78483                       0.61172
                       0.08736                       0.78438                       0.61410
                       0.07956                       0.78401                       0.61562
                       0.07714                       0.78390                       0.61607
                       0.30237                       0.76698                       0.56597
        </DataArray>
        <DataArray type="Float32" Name="OrientationZ" NumberOfComponents="3" format="ascii">
                       0.05560                      -0.60703                       0.79273
                       0.05724                      -0.60763                       0.79216
                       0.05982                      -0.60851                       0.79129
                       0.06314                      -0.60957                       0.79022
                       0.06717                      -0.61072                       0.78899
                       0.07204                      -0.61191                       0.78764
                       0.07788                      -0.61315                       0.78612
                       0.08492                      -0.61441                       0.78440
                       0.09330                      -0.61565                       0.78248
                       0.10310                      -0.61680                       0.78034
                       0.11423                      -0.61779                       0.77800
                       0.12640                      -0.61856                       0.77550
                       0.13906                      -0.61906                       0.77293
                       0.15134                      -0.61929                       0.77044
                       0.16201                      -0.61929                       0.76826
                       0.16945                      -0.61918                       0.76675
                       0.17157                      -0.61913                       0.76631
                       0.17099                      -0.61916                       0.76642
                       0.05505                      -0.60682                       0.79293
        </DataArray>
      </PointData>
      <Lines>
        <DataArray type="Int32" Name="connectivity" format="ascii">
      0      1
      1      2
      2      3
      3      4
      4      5
      5      6
      6      7
      7      8
      8      9
      9     10
     10     11
     11     12
     12     13
     13     14
     14     15
     15     16
     16     17
     18      0
        </DataArray>
        <DataArray type="Int32" Name="offsets" format="ascii">
      2
      4
      6
      8
     10
     12
     14
     16
     18
     20
     22
     24
     26
     28
     30
     32
     34
     36
        </DataArray>
      </Lines>
    </Piece>
  </PolyData>
</VTKFile>
