<?xml version="1.0"?>
<VTKFile type="PolyData" version="0.1" byte_order="LittleEndian">
  <PolyData>
    <Piece NumberOfPoints="     19" NumberOfVerts="  0" NumberOfLines="     18"
           NumberOfStrips="  0" NumberOfPolys="      0">
      <Points>
        <DataArray type="Float32" NumberOfComponents="3" format="ascii">
                       3.11324                       3.17880                      90.99025
                       3.07595                       6.67551                      91.91706
                       3.04641                      10.17229                      92.84389
                       3.02761                      13.66912                      93.77080
                       3.02201                      17.16599                      94.69772
                       3.03230                      20.66290                      95.62446
                       3.06185                      24.15979                      96.55082
                       3.11494                      27.65655                      97.47656
                       3.19672                      31.15303                      98.40129
                       3.31302                      34.64893                      99.32440
                       3.46976                      38.14389                     100.24506
                       3.67231                      41.63740                     101.16224
                       3.92444                      45.12887                     102.07489
                       4.22716                      48.61774                     102.98219
                       4.57728                      52.10367                     103.88386
                       4.96568                      55.58691                     104.78050
                       5.37548                      59.06853                     105.67412
                       5.58307                      60.80912                     106.12054
                       3.13339                       1.43046                      90.52683
        </DataArray>
      </Points>
      <PointData>
        <DataArray type="Float32" Name="TranslationalVelocity" NumberOfComponents="3" format="ascii">
                       0.64641                      -0.79360                       2.98422
                       1.05533                      -1.64356                       6.20746
                       1.45832                      -2.49758                       9.44242
                       1.85331                      -3.35680                      12.69192
                       2.23885                      -4.22184                      15.95771
                       2.61395                      -5.09299                      19.24075
                       2.97778                      -5.97039                      22.54128
                       3.32959                      -6.85405                      25.85899
                       3.66871                      -7.74378                      29.19325
                       3.99463                      -8.63914                      32.54312
                       4.30701                      -9.53936                      35.90744
                       4.60586                     -10.44334                      39.28482
                       4.89161                     -11.34978                      42.67361
                       5.16543                     -12.25730                      46.07185
                       5.42937                     -13.16475                      49.47735
                       5.68678                     -14.07146                      52.88770
                       5.94258                     -14.97764                      56.30026
                       6.07080                     -15.43069                      58.00675
                       0.44077                      -0.36945                       1.37510
        </DataArray>
        <DataArray type="Float32" Name="RotationalVelocity" NumberOfComponents="3" format="ascii">
                       0.92028                       0.00796                      -0.11551
                       0.92313                       0.00765                      -0.11424
                       0.92699                       0.00719                      -0.11232
                       0.93148                       0.00661                      -0.10993
                       0.93634                       0.00596                      -0.10724
                       0.94137                       0.00525                      -0.10432
                       0.94639                       0.00448                      -0.10119
                       0.95130                       0.00366                      -0.09788
                       0.95602                       0.00280                      -0.09442
                       0.96051                       0.00191                      -0.09085
                       0.96473                       0.00100                      -0.08724
                       0.96863                       0.00011                      -0.08370
                       0.97216                      -0.00073                      -0.08039
                       0.97520                      -0.00145                      -0.07750
                       0.97762                      -0.00200                      -0.07532
                       0.97920                      -0.00228                      -0.07421
                       0.97966                      -0.00218                      -0.07458
                       0.97957                      -0.00201                      -0.07519
                       0.91916                       0.00806                      -0.11597
        </DataArray>
        <DataArray type="Float32" Name="TranslationalAcceleration" NumberOfComponents="3" format="ascii">
                      -0.68421                      -3.02593                      -0.38686
                      -0.69634                      -6.12097                      -0.87989
                      -0.71061                      -9.19432                      -1.53843
                      -0.73133                     -12.24049                      -2.40369
                      -0.76597                     -15.25645                      -3.49996
                      -0.82407                     -18.24110                      -4.83833
                      -0.91389                     -21.19449                      -6.42014
                      -1.04142                     -24.11735                      -8.23967
                      -1.21078                     -27.01095                     -10.28618
                      -1.42380                     -29.87684                     -12.54549
                      -1.67979                     -32.71680                     -15.00105
                      -1.97551                     -35.53280                     -17.63448
                      -2.30523                     -38.32714                     -20.42573
                      -2.66070                     -41.10260                     -23.35271
                      -3.03146                     -43.86272                     -26.39039
                      -3.40516                     -46.61217                     -29.50927
                      -3.76754                     -49.35681                     -32.67341
                      -3.94399                     -50.72874                     -34.26181
                      -0.67829                      -1.47384                      -0.17540
        </DataArray>
        <DataArray type="Float32" Name="RotationalAcceleration" NumberOfComponents="3" format="ascii">
                       0.10339                      -0.01169                      -0.02045
                       0.06485                      -0.01213                      -0.02055
                       0.01243                      -0.01293                      -0.01992
                      -0.04871                      -0.01421                      -0.01788
                      -0.11446                      -0.01621                      -0.01335
                      -0.18172                      -0.01891                      -0.00624
                      -0.24823                      -0.02208                       0.00270
                      -0.31241                      -0.02560                       0.01303
                      -0.37317                      -0.02930                       0.02422
                      -0.42985                      -0.03300                       0.03561
                      -0.48198                      -0.03653                       0.04653
                      -0.52918                      -0.03970                       0.05633
                      -0.57096                      -0.04232                       0.06433
                      -0.60654                      -0.04423                       0.06988
                      -0.63470                      -0.04524                       0.07242
                      -0.65364                      -0.04521                       0.07145
                      -0.66075                      -0.04395                       0.06638
                      -0.66096                      -0.04299                       0.06275
                       0.11848                      -0.01156                      -0.02026
        </DataArray>
        <DataArray type="Float32" Name="OrientationX" NumberOfComponents="3" format="ascii">
                       0.99382                      -0.01760                       0.10962
                       0.99384                      -0.01920                       0.10919
                       0.99386                      -0.02172                       0.10853
                       0.99526                      -0.02151                       0.09489
                       0.99780                      -0.01743                       0.06402
                       0.99880                      -0.01753                       0.04573
                       0.99946                      -0.01860                       0.02695
                       0.99976                      -0.02068                       0.00683
                       0.99961                      -0.02418                      -0.01392
                       0.99898                      -0.02949                      -0.03429
                       0.99783                      -0.03643                      -0.05478
                       0.99620                      -0.04488                      -0.07465
                       0.99430                      -0.05488                      -0.09145
                       0.99217                      -0.06506                      -0.10664
                       0.98986                      -0.07369                      -0.12142
                       0.98766                      -0.07901                      -0.13521
                       0.98642                      -0.07978                      -0.14357
                       0.98616                      -0.07883                      -0.14585
                       0.99381                      -0.01707                       0.10976
        </DataArray>
        <DataArray type="Float32" Name="OrientationY" NumberOfComponents="3" format="ascii">
                       0.11046                       0.25584                      -0.96039
                       0.11046                       0.25564                      -0.96044
                       0.11047                       0.25538                      -0.96051
                       0.09723                       0.25535                      -0.96195
                       0.06634                       0.25562                      -0.96450
                       0.04870                       0.25558                      -0.96556
                       0.03081                       0.25557                      -0.96630
                       0.01189                       0.25561                      -0.96671
                      -0.00727                       0.25572                      -0.96672
                      -0.02561                       0.25591                      -0.96636
                      -0.04366                       0.25624                      -0.96563
                      -0.06072                       0.25668                      -0.96459
                      -0.07442                       0.25715                      -0.96350
                      -0.08654                       0.25770                      -0.96234
                      -0.09864                       0.25841                      -0.96099
                      -0.11061                       0.25925                      -0.95946
                      -0.11847                       0.25986                      -0.95835
                      -0.12089                       0.26006                      -0.95800
                       0.11046                       0.25591                      -0.96037
        </DataArray>
        <DataArray type="Float32" Name="OrientationZ" NumberOfComponents="3" format="ascii">
                      -0.01114                       0.96656                       0.25620
                      -0.00947                       0.96658                       0.25619
                      -0.00686                       0.96660                       0.25621
                      -0.00354                       0.96661                       0.25623
                       0.00044                       0.96662                       0.25621
                       0.00524                       0.96663                       0.25613
                       0.01109                       0.96661                       0.25600
                       0.01824                       0.96656                       0.25579
                       0.02693                       0.96645                       0.25544
                       0.03727                       0.96625                       0.25490
                       0.04921                       0.96593                       0.25409
                       0.06245                       0.96545                       0.25298
                       0.07639                       0.96481                       0.25160
                       0.09009                       0.96403                       0.25005
                       0.10219                       0.96322                       0.24852
                       0.11086                       0.96257                       0.24731
                       0.11376                       0.96234                       0.24688
                       0.11344                       0.96237                       0.24693
                      -0.01169                       0.96655                       0.25621
        </DataArray>
      </PointData>
      <Lines>
        <DataArray type="Int32" Name="connectivity" format="ascii">
      0      1
      1      2
      2      3
      3      4
      4      5
      5      6
      6      7
      7      8
      8      9
      9     10
     10     11
     11     12
     12     13
     13     14
     14     15
     15     16
     16     17
     18      0
        </DataArray>
        <DataArray type="Int32" Name="offsets" format="ascii">
      2
      4
      6
      8
     10
     12
     14
     16
     18
     20
     22
     24
     26
     28
     30
     32
     34
     36
        </DataArray>
      </Lines>
    </Piece>
  </PolyData>
</VTKFile>
