<?xml version="1.0"?>
<VTKFile type="PolyData" version="0.1" byte_order="LittleEndian">
  <PolyData>
    <Piece NumberOfPoints="     19" NumberOfVerts="  0" NumberOfLines="     18"
           NumberOfStrips="  0" NumberOfPolys="      0">
      <Points>
        <DataArray type="Float32" NumberOfComponents="3" format="ascii">
                       3.23847                      -0.46491                      93.38243
                       3.51233                      -0.97233                      96.95383
                       3.78784                      -1.48030                     100.52503
                       4.06566                      -1.98899                     104.09594
                       4.34634                      -2.49850                     107.66651
                       4.63043                      -3.00889                     111.23669
                       4.91846                      -3.52018                     114.80642
                       5.21100                      -4.03237                     118.37566
                       5.50864                      -4.54546                     121.94434
                       5.81196                      -5.05940                     125.51243
                       6.12148                      -5.57413                     129.07986
                       6.43758                      -6.08955                     132.64662
                       6.76038                      -6.60554                     136.21270
                       7.08963                      -7.12199                     139.77812
                       7.42454                      -7.63876                     143.34297
                       7.76363                      -8.15572                     146.90740
                       8.10448                      -8.67276                     150.47165
                       8.27497                      -8.93128                     152.25376
                       3.10186                      -0.21130                      91.59669
        </DataArray>
      </Points>
      <PointData>
        <DataArray type="Float32" Name="TranslationalVelocity" NumberOfComponents="3" format="ascii">
                       0.01331                      -3.05867                      -0.41350
                      -0.02211                      -6.38820                      -0.88385
                      -0.04037                      -9.72758                      -1.35743
                      -0.03452                     -13.07982                      -1.83543
                       0.00154                     -16.44665                      -2.31872
                       0.07392                     -19.82889                      -2.80801
                       0.18913                     -23.22696                      -3.30402
                       0.35438                     -26.64096                      -3.80750
                       0.57745                     -30.07067                      -4.31924
                       0.86641                     -33.51546                      -4.84002
                       1.22878                     -36.97433                      -5.37055
                       1.67056                     -40.44587                      -5.91140
                       2.19475                     -43.92831                      -6.46278
                       2.79967                     -47.41967                      -7.02440
                       3.47692                     -50.91777                      -7.59514
                       4.20899                     -54.42028                      -8.17277
                       4.96655                     -57.92486                      -8.75360
                       5.34721                     -59.67739                      -9.04425
                       0.03435                      -1.39593                      -0.17897
        </DataArray>
        <DataArray type="Float32" Name="RotationalVelocity" NumberOfComponents="3" format="ascii">
                       0.92264                       0.00397                      -0.11093
                       0.92492                       0.00766                      -0.11058
                       0.92824                       0.01349                      -0.11001
                       0.93223                       0.02103                      -0.10924
                       0.93655                       0.03021                      -0.10827
                       0.94104                       0.04112                      -0.10707
                       0.94563                       0.05390                      -0.10560
                       0.95023                       0.06875                      -0.10384
                       0.95474                       0.08583                      -0.10176
                       0.95906                       0.10510                      -0.09936
                       0.96307                       0.12632                      -0.09665
                       0.96666                       0.14888                      -0.09372
                       0.96973                       0.17176                      -0.09071
                       0.97223                       0.19339                      -0.08783
                       0.97404                       0.21162                      -0.08538
                       0.97511                       0.22360                      -0.08376
                       0.97540                       0.22567                      -0.08349
                       0.97535                       0.22372                      -0.08376
                       0.92179                       0.00274                      -0.11104
        </DataArray>
        <DataArray type="Float32" Name="TranslationalAcceleration" NumberOfComponents="3" format="ascii">
                       0.45802                       0.73605                      -2.40844
                       0.37166                       1.57130                      -5.44949
                       0.32699                       2.33547                      -8.52293
                       0.34290                       3.00934                     -11.63919
                       0.43757                       3.58145                     -14.80561
                       0.63122                       4.04609                     -18.02750
                       0.94665                       4.40123                     -21.30959
                       1.40981                       4.64740                     -24.65671
                       2.04975                       4.78752                     -28.07378
                       2.89713                       4.82664                     -31.56581
                       3.98143                       4.77182                     -35.13766
                       5.32716                       4.63217                     -38.79329
                       6.94887                       4.41857                     -42.53466
                       8.84492                       4.14334                     -46.36006
                      10.99033                       3.82017                     -50.26144
                      13.32845                       3.46404                     -54.22121
                      15.76124                       3.09099                     -58.20944
                      16.98613                       2.90230                     -60.20608
                       0.50906                       0.30357                      -0.89449
        </DataArray>
        <DataArray type="Float32" Name="RotationalAcceleration" NumberOfComponents="3" format="ascii">
                      -0.11927                       0.07437                       0.00629
                      -0.10224                       0.08369                       0.00631
                      -0.07846                       0.09892                       0.00665
                      -0.05033                       0.11913                       0.00738
                      -0.01988                       0.14466                       0.00867
                       0.01160                       0.17616                       0.01074
                       0.04339                       0.21435                       0.01374
                       0.07480                       0.26022                       0.01785
                       0.10525                       0.31448                       0.02323
                       0.13422                       0.37725                       0.02993
                       0.16117                       0.44775                       0.03788
                       0.18554                       0.52401                       0.04684
                       0.20686                       0.60245                       0.05635
                       0.22462                       0.67766                       0.06567
                       0.23814                       0.74204                       0.07378
                       0.24664                       0.78548                       0.07930
                       0.24934                       0.79499                       0.08044
                       0.24915                       0.78945                       0.07967
                      -0.12577                       0.07141                       0.00636
        </DataArray>
        <DataArray type="Float32" Name="OrientationX" NumberOfComponents="3" format="ascii">
                       0.96636                      -0.23384                      -0.10713
                       0.96633                      -0.23378                      -0.10751
                       0.96628                      -0.23370                      -0.10809
                       0.96941                      -0.22077                      -0.10725
                       0.97610                      -0.19063                      -0.10439
                       0.97945                      -0.17328                      -0.10324
                       0.98252                      -0.15564                      -0.10218
                       0.98541                      -0.13692                      -0.10110
                       0.98797                      -0.11789                      -0.10012
                       0.99005                      -0.09960                      -0.09936
                       0.99177                      -0.08154                      -0.09872
                       0.99308                      -0.06438                      -0.09826
                       0.99388                      -0.05050                      -0.09822
                       0.99443                      -0.03818                      -0.09824
                       0.99486                      -0.02588                      -0.09794
                       0.99518                      -0.01376                      -0.09712
                       0.99536                      -0.00585                      -0.09607
                       0.99542                      -0.00345                      -0.09553
                       0.96637                      -0.23385                      -0.10701
        </DataArray>
        <DataArray type="Float32" Name="OrientationY" NumberOfComponents="3" format="ascii">
                       0.24587                       0.96211                       0.11783
                       0.24588                       0.96211                       0.11786
                       0.24588                       0.96210                       0.11790
                       0.23300                       0.96512                       0.11939
                       0.20285                       0.97149                       0.12272
                       0.18558                       0.97470                       0.12461
                       0.16802                       0.97763                       0.12650
                       0.14941                       0.98039                       0.12848
                       0.13050                       0.98283                       0.13045
                       0.11236                       0.98482                       0.13233
                       0.09445                       0.98645                       0.13416
                       0.07747                       0.98769                       0.13589
                       0.06379                       0.98848                       0.13728
                       0.05166                       0.98901                       0.13851
                       0.03950                       0.98940                       0.13973
                       0.02743                       0.98964                       0.14093
                       0.01950                       0.98972                       0.14171
                       0.01705                       0.98973                       0.14194
                       0.24587                       0.96212                       0.11781
        </DataArray>
        <DataArray type="Float32" Name="OrientationZ" NumberOfComponents="3" format="ascii">
                       0.07552                      -0.14020                       0.98724
                       0.07588                      -0.14032                       0.98719
                       0.07644                      -0.14050                       0.98713
                       0.07715                      -0.14072                       0.98704
                       0.07802                      -0.14096                       0.98694
                       0.07903                      -0.14121                       0.98682
                       0.08020                      -0.14146                       0.98669
                       0.08153                      -0.14171                       0.98655
                       0.08302                      -0.14195                       0.98639
                       0.08467                      -0.14218                       0.98621
                       0.08645                      -0.14239                       0.98603
                       0.08830                      -0.14256                       0.98584
                       0.09015                      -0.14270                       0.98565
                       0.09187                      -0.14281                       0.98548
                       0.09328                      -0.14288                       0.98533
                       0.09417                      -0.14292                       0.98524
                       0.09425                      -0.14292                       0.98524
                       0.09405                      -0.14292                       0.98525
                       0.07540                      -0.14016                       0.98725
        </DataArray>
      </PointData>
      <Lines>
        <DataArray type="Int32" Name="connectivity" format="ascii">
      0      1
      1      2
      2      3
      3      4
      4      5
      5      6
      6      7
      7      8
      8      9
      9     10
     10     11
     11     12
     12     13
     13     14
     14     15
     15     16
     16     17
     18      0
        </DataArray>
        <DataArray type="Int32" Name="offsets" format="ascii">
      2
      4
      6
      8
     10
     12
     14
     16
     18
     20
     22
     24
     26
     28
     30
     32
     34
     36
        </DataArray>
      </Lines>
    </Piece>
  </PolyData>
</VTKFile>
