<?xml version="1.0"?>
<VTKFile type="PolyData" version="0.1" byte_order="LittleEndian">
  <PolyData>
    <Piece NumberOfPoints="     19" NumberOfVerts="  0" NumberOfLines="     18"
           NumberOfStrips="  0" NumberOfPolys="      0">
      <Points>
        <DataArray type="Float32" NumberOfComponents="3" format="ascii">
                       2.69828                       0.81509                      88.91593
                       2.50211                       1.57879                      87.79961
                       2.09514                       3.18387                      85.62240
                       1.68457                       4.82491                      83.46996
                       1.17473                       6.89680                      80.79202
                       0.61933                       9.26263                      77.48676
                       0.09768                      11.51723                      74.10074
                      -0.40363                      13.76598                      70.70782
                      -0.87697                      16.00778                      67.30637
                      -1.31624                      18.24468                      63.89727
                      -1.71959                      20.48034                      60.48309
                      -2.07464                      22.71336                      57.06198
                      -2.37499                      24.94351                      53.63390
                      -2.61722                      27.17036                      50.19921
                      -2.80069                      29.39357                      46.75863
                      -2.91570                      31.24354                      43.88799
                      -2.98933                      32.71532                      41.58560
                      -3.06217                      34.14060                      39.25286
                      -3.09626                      34.88806                      38.10925
        </DataArray>
      </Points>
      <PointData>
        <DataArray type="Float32" Name="Force" NumberOfComponents="3" format="ascii">
                      -0.03887                      -0.47920                      -0.31937
                      63.08654                     -10.07461                     -17.89140
                      82.25252                     -34.11620                     -37.47233
                      74.22390                     -51.11597                     -47.48156
                     783.57313                     282.05561                      60.45064
                     972.86716                     302.65233                      47.67047
                    1152.05642                     303.92055                      26.50103
                    1490.80984                     338.61214                       8.27308
                    1644.92692                     314.82102                     -15.74161
                    1902.74828                     310.25771                     -33.51715
                    2336.50754                     316.87668                     -52.74641
                    2678.44839                     299.19664                     -61.74792
                    3098.43607                     291.48159                     -55.12227
                    3383.45033                     253.19038                     -44.77759
                    3621.55888                     206.26348                     -33.14101
                    3741.98291                     158.95665                     -31.85158
                    3630.09193                     111.70551                     -41.66843
                    2613.27689                      56.21289                     -41.31483
                    1203.66284                     -65.05449                     -80.26090
        </DataArray>
        <DataArray type="Float32" Name="Moment" NumberOfComponents="3" format="ascii">
                       0.00000                       0.00000                       0.00000
                       0.00000                       0.00000                       0.00000
                       0.00000                       0.00000                       0.00000
                       0.00000                       0.00000                       0.00000
                      45.61464                    -185.03435                     272.08267
                      60.84366                    -254.57965                     374.57822
                      73.82972                    -321.08868                     472.79099
                      95.41086                    -435.75690                     642.21796
                     118.15344                    -574.93164                     848.27426
                     121.69223                    -643.59206                     950.86474
                     113.48965                    -671.42591                     993.62611
                     103.21237                    -707.48361                    1048.97938
                      77.97823                    -647.08828                     961.43042
                      60.63949                    -641.43603                     955.05957
                      43.51737                    -616.33813                     919.48526
                      32.14165                    -582.34182                     869.86006
                      24.76347                    -516.67895                     772.23446
                      11.69530                    -259.06055                     387.28269
                      10.15833                    -222.60895                     332.77614
        </DataArray>
        <DataArray type="Float32" Name="TranslationalVelocity" NumberOfComponents="3" format="ascii">
                      -0.53036                       1.18544                       0.73158
                      -0.42846                       2.23630                       1.43260
                      -0.21708                       4.28764                       2.90526
                      -0.00303                       6.31347                       4.40857
                       0.26457                       8.82829                       6.30226
                       0.56939                      11.91465                       8.45819
                       0.85712                      15.05920                      10.50547
                       1.13848                      18.19557                      12.54048
                       1.41580                      21.32498                      14.56245
                       1.69420                      24.44711                      16.57345
                       1.97972                      27.56154                      18.57763
                       2.28103                      30.66876                      20.57325
                       2.60731                      33.76891                      22.56044
                       2.96678                      36.86171                      24.53944
                       3.36481                      39.94674                      26.51102
                       3.72540                      42.51206                      28.14934
                       4.03075                      44.56501                      29.45165
                       4.34201                      46.64386                      30.71189
                       4.50245                      47.66267                      31.37293
        </DataArray>
        <DataArray type="Float32" Name="RotationalVelocity" NumberOfComponents="3" format="ascii">
                       0.92219                      -0.01470                      -0.11217
                       0.92168                      -0.01464                      -0.11204
                       0.92043                      -0.01448                      -0.11171
                       0.91889                      -0.01426                      -0.11129
                       0.91653                      -0.01383                      -0.11059
                       0.91331                      -0.01304                      -0.10948
                       0.90994                      -0.01210                      -0.10825
                       0.90661                      -0.01138                      -0.10718
                       0.90347                      -0.01131                      -0.10658
                       0.90057                      -0.01234                      -0.10677
                       0.89795                      -0.01503                      -0.10814
                       0.89554                      -0.01944                      -0.11072
                       0.89330                      -0.02552                      -0.11447
                       0.89123                      -0.03290                      -0.11913
                       0.88939                      -0.04082                      -0.12420
                       0.88818                      -0.04691                      -0.12813
                       0.88752                      -0.05070                      -0.13059
                       0.88716                      -0.05341                      -0.13237
                       0.88710                      -0.05428                      -0.13295
        </DataArray>
        <DataArray type="Float32" Name="TranslationalAcceleration" NumberOfComponents="3" format="ascii">
                       0.09828                      -1.00619                       0.87093
                       0.21584                      -1.72765                       1.79548
                       0.43520                      -3.21347                       3.61100
                       0.62991                      -4.66068                       5.45723
                       0.83413                      -6.36685                       7.85095
                       1.02615                      -8.10701                      10.93683
                       1.14910                      -9.48671                      14.23422
                       1.20755                     -10.58716                      17.68958
                       1.23578                     -11.40471                      21.29673
                       1.28977                     -11.94638                      25.04384
                       1.42778                     -12.25244                      28.90386
                       1.73864                     -12.31177                      32.87576
                       2.30927                     -12.14953                      36.94283
                       3.21409                     -11.79912                      41.08878
                       4.49627                     -11.30221                      45.29789
                       5.84079                     -10.81151                      48.84021
                       7.07899                     -10.37880                      51.68754
                       8.40615                      -9.87892                      54.52710
                       9.08033                      -9.67313                      55.95325
        </DataArray>
        <DataArray type="Float32" Name="OrientationX" NumberOfComponents="3" format="ascii">
                       0.97634                       0.21480                      -0.02511
                       0.97639                       0.21458                      -0.02478
                       0.97655                       0.21395                      -0.02385
                       0.97677                       0.21308                      -0.02258
                       0.97713                       0.21165                      -0.02047
                       0.98234                       0.18371                      -0.03548
                       0.98573                       0.16233                      -0.04462
                       0.98846                       0.14262                      -0.05112
                       0.99100                       0.12109                      -0.05701
                       0.99327                       0.09803                      -0.06176
                       0.99514                       0.07473                      -0.06404
                       0.99662                       0.05056                      -0.06470
                       0.99763                       0.02725                      -0.06316
                       0.99824                       0.00749                      -0.05881
                       0.99841                      -0.01146                      -0.05525
                       0.99818                      -0.02587                      -0.05439
                       0.99782                      -0.03529                      -0.05569
                       0.99758                      -0.04000                      -0.05690
                       0.99757                      -0.03985                      -0.05713
        </DataArray>
        <DataArray type="Float32" Name="OrientationY" NumberOfComponents="3" format="ascii">
                       0.16174                      -0.80234                      -0.57453
                       0.16179                      -0.80252                      -0.57428
                       0.16190                      -0.80295                      -0.57364
                       0.16203                      -0.80348                      -0.57286
                       0.16224                      -0.80429                      -0.57167
                       0.13124                      -0.81169                      -0.56915
                       0.10888                      -0.81682                      -0.56652
                       0.08930                      -0.82105                      -0.56383
                       0.06853                      -0.82497                      -0.56100
                       0.04706                      -0.82843                      -0.55811
                       0.02668                      -0.83120                      -0.55533
                       0.00640                      -0.83338                      -0.55266
                      -0.01203                      -0.83490                      -0.55028
                      -0.02604                      -0.83581                      -0.54840
                      -0.03985                      -0.83632                      -0.54680
                      -0.05141                      -0.83640                      -0.54570
                      -0.06000                      -0.83628                      -0.54502
                      -0.06460                      -0.83616                      -0.54468
                      -0.06459                      -0.83615                      -0.54468
        </DataArray>
        <DataArray type="Float32" Name="OrientationZ" NumberOfComponents="3" format="ascii">
                      -0.14355                       0.55688                      -0.81809
                      -0.14311                       0.55671                      -0.81829
                      -0.14188                       0.55633                      -0.81876
                      -0.14021                       0.55590                      -0.81934
                      -0.13746                       0.55527                      -0.82023
                      -0.13336                       0.55445                      -0.82147
                      -0.12841                       0.55358                      -0.82284
                      -0.12238                       0.55276                      -0.82431
                      -0.11497                       0.55205                      -0.82585
                      -0.10587                       0.55145                      -0.82747
                      -0.09474                       0.55092                      -0.82916
                      -0.08186                       0.55038                      -0.83089
                      -0.06772                       0.54973                      -0.83259
                      -0.05326                       0.54896                      -0.83415
                      -0.03994                       0.54813                      -0.83544
                      -0.03137                       0.54750                      -0.83622
                      -0.02734                       0.54717                      -0.83657
                      -0.02579                       0.54703                      -0.83671
                      -0.02607                       0.54705                      -0.83670
        </DataArray>
      </PointData>
      <Lines>
        <DataArray type="Int32" Name="connectivity" format="ascii">
      0      1
      1      2
      2      3
      3      4
      4      5
      5      6
      6      7
      7      8
      8      9
      9     10
     10     11
     11     12
     12     13
     13     14
     14     15
     15     16
     16     17
     17     18
        </DataArray>
        <DataArray type="Int32" Name="offsets" format="ascii">
      2
      4
      6
      8
     10
     12
     14
     16
     18
     20
     22
     24
     26
     28
     30
     32
     34
     36
        </DataArray>
      </Lines>
    </Piece>
  </PolyData>
</VTKFile>
