<?xml version="1.0"?>
<VTKFile type="PolyData" version="0.1" byte_order="LittleEndian">
  <PolyData>
    <Piece NumberOfPoints="     19" NumberOfVerts="  0" NumberOfLines="     18"
           NumberOfStrips="  0" NumberOfPolys="      0">
      <Points>
        <DataArray type="Float32" NumberOfComponents="3" format="ascii">
                       2.89568                      -3.32388                      90.40170
                       2.77637                      -6.92920                      90.67517
                       2.66517                     -10.53522                      90.94276
                       2.56542                     -14.14214                      91.20259
                       2.48005                     -17.75005                      91.45344
                       2.41223                     -21.35901                      91.69449
                       2.36563                     -24.96898                      91.92503
                       2.34458                     -28.57988                      92.14437
                       2.35407                     -32.19151                      92.35189
                       2.39955                     -35.80355                      92.54711
                       2.48641                     -39.41548                      92.72974
                       2.61932                     -43.02661                      92.89985
                       2.80128                     -46.63616                      93.05792
                       3.03253                     -50.24338                      93.20491
                       3.30912                     -53.84784                      93.34245
                       3.62137                     -57.44971                      93.47305
                       3.95206                     -61.05010                      93.60016
                       4.11933                     -62.85014                      93.66334
                       2.95690                      -1.52136                      90.26377
        </DataArray>
      </Points>
      <PointData>
        <DataArray type="Float32" Name="TranslationalVelocity" NumberOfComponents="3" format="ascii">
                      -0.99580                      -0.16776                      -3.09061
                      -1.41275                      -0.40659                      -6.42112
                      -1.82795                      -0.64086                      -9.75059
                      -2.24081                      -0.86919                     -13.07881
                      -2.65095                      -1.09078                     -16.40561
                      -3.05794                      -1.30524                     -19.73092
                      -3.46123                      -1.51230                     -23.05474
                      -3.86005                      -1.71178                     -26.37714
                      -4.25340                      -1.90363                     -29.69819
                      -4.64009                      -2.08789                     -33.01783
                      -5.01883                      -2.26475                     -36.33587
                      -5.38837                      -2.43454                     -39.65194
                      -5.74774                      -2.59775                     -42.96555
                      -6.09649                      -2.75501                     -46.27624
                      -6.43503                      -2.90723                     -49.58380
                      -6.76508                      -3.05573                     -52.88859
                      -7.09007                      -3.20230                     -56.19187
                      -7.25185                      -3.27535                     -57.84336
                      -0.78696                      -0.04741                      -1.42512
        </DataArray>
        <DataArray type="Float32" Name="RotationalVelocity" NumberOfComponents="3" format="ascii">
                       0.92342                      -0.01646                      -0.11460
                       0.92305                      -0.01642                      -0.11421
                       0.92256                      -0.01635                      -0.11364
                       0.92200                      -0.01628                      -0.11294
                       0.92140                      -0.01620                      -0.11215
                       0.92080                      -0.01611                      -0.11124
                       0.92025                      -0.01601                      -0.11015
                       0.91978                      -0.01589                      -0.10882
                       0.91939                      -0.01575                      -0.10720
                       0.91911                      -0.01559                      -0.10524
                       0.91892                      -0.01541                      -0.10295
                       0.91881                      -0.01520                      -0.10036
                       0.91877                      -0.01499                      -0.09757
                       0.91877                      -0.01477                      -0.09478
                       0.91880                      -0.01458                      -0.09225
                       0.91883                      -0.01443                      -0.09035
                       0.91885                      -0.01438                      -0.08960
                       0.91886                      -0.01437                      -0.08957
                       0.92357                      -0.01647                      -0.11473
        </DataArray>
        <DataArray type="Float32" Name="TranslationalAcceleration" NumberOfComponents="3" format="ascii">
                      -0.41205                       2.80676                      -0.34273
                      -0.35796                       5.92125                      -0.66426
                      -0.32735                       9.03811                      -0.92430
                      -0.33280                      12.15791                      -1.10519
                      -0.38695                      15.28060                      -1.19567
                      -0.49833                      18.40546                      -1.19096
                      -0.66745                      21.53112                      -1.09170
                      -0.88488                      24.65575                      -0.90306
                      -1.13092                      27.77736                      -0.63389
                      -1.37624                      30.89431                      -0.29551
                      -1.58375                      34.00595                       0.09946
                      -1.71188                      37.11324                       0.53821
                      -1.71906                      40.21916                       1.00847
                      -1.56957                      43.32849                       1.49893
                      -1.24072                      46.44670                       1.99955
                      -0.73127                      49.57781                       2.50166
                      -0.07111                      52.72161                       2.99775
                       0.29065                      54.29630                       3.24340
                      -0.44351                       1.25000                      -0.16917
        </DataArray>
        <DataArray type="Float32" Name="RotationalAcceleration" NumberOfComponents="3" format="ascii">
                       0.03255                      -0.00513                       0.01029
                       0.01934                      -0.00506                       0.00526
                       0.00087                      -0.00507                      -0.00303
                      -0.02140                      -0.00522                      -0.01509
                      -0.04566                      -0.00557                      -0.03041
                      -0.07030                      -0.00601                      -0.04719
                      -0.09400                      -0.00639                      -0.06278
                      -0.11557                      -0.00653                      -0.07434
                      -0.13419                      -0.00625                      -0.07905
                      -0.14938                      -0.00537                      -0.07443
                      -0.16098                      -0.00376                      -0.05870
                      -0.16914                      -0.00136                      -0.03118
                      -0.17417                       0.00178                       0.00740
                      -0.17649                       0.00549                       0.05453
                      -0.17661                       0.00943                       0.10557
                      -0.17510                       0.01306                       0.15341
                      -0.17234                       0.01564                       0.18815
                      -0.17067                       0.01656                       0.20083
                       0.03767                      -0.00517                       0.01211
        </DataArray>
        <DataArray type="Float32" Name="OrientationX" NumberOfComponents="3" format="ascii">
                       0.93696                      -0.05819                      -0.34455
                       0.93703                      -0.05611                      -0.34471
                       0.93713                      -0.05286                      -0.34495
                       0.94179                      -0.04793                      -0.33276
                       0.95184                      -0.04115                      -0.30382
                       0.95721                      -0.03423                      -0.28737
                       0.96231                      -0.02622                      -0.27067
                       0.96733                      -0.01689                      -0.25297
                       0.97198                      -0.00613                      -0.23499
                       0.97598                       0.00604                      -0.21779
                       0.97943                       0.01955                      -0.20084
                       0.98219                       0.03402                      -0.18478
                       0.98390                       0.04872                      -0.17194
                       0.98502                       0.06281                      -0.16057
                       0.98598                       0.07503                      -0.14904
                       0.98698                       0.08361                      -0.13741
                       0.98782                       0.08609                      -0.12960
                       0.98820                       0.08546                      -0.12714
                       0.93694                      -0.05889                      -0.34450
        </DataArray>
        <DataArray type="Float32" Name="OrientationY" NumberOfComponents="3" format="ascii">
                       0.34779                       0.05978                       0.93566
                       0.34777                       0.05915                       0.93571
                       0.34774                       0.05828                       0.93578
                       0.33521                       0.05795                       0.94036
                       0.30584                       0.05825                       0.95030
                       0.28895                       0.05782                       0.95560
                       0.27177                       0.05726                       0.96066
                       0.25352                       0.05662                       0.96567
                       0.23496                       0.05584                       0.97040
                       0.21715                       0.05490                       0.97459
                       0.19955                       0.05381                       0.97841
                       0.18287                       0.05258                       0.98173
                       0.16945                       0.05132                       0.98420
                       0.15757                       0.05006                       0.98624
                       0.14565                       0.04877                       0.98813
                       0.13379                       0.04750                       0.98987
                       0.12594                       0.04671                       0.99094
                       0.12351                       0.04650                       0.99125
                       0.34780                       0.06003                       0.93565
        </DataArray>
        <DataArray type="Float32" Name="OrientationZ" NumberOfComponents="3" format="ascii">
                      -0.03385                      -0.99651                       0.07625
                      -0.03211                      -0.99667                       0.07494
                      -0.02936                      -0.99690                       0.07300
                      -0.02579                      -0.99717                       0.07065
                      -0.02141                      -0.99745                       0.06803
                      -0.01609                      -0.99774                       0.06523
                      -0.00969                      -0.99801                       0.06223
                      -0.00199                      -0.99825                       0.05905
                       0.00717                      -0.99842                       0.05571
                       0.01784                      -0.99847                       0.05227
                       0.02993                      -0.99836                       0.04881
                       0.04311                      -0.99804                       0.04542
                       0.05678                      -0.99749                       0.04224
                       0.06998                      -0.99677                       0.03942
                       0.08141                      -0.99599                       0.03716
                       0.08929                      -0.99537                       0.03570
                       0.09136                      -0.99519                       0.03530
                       0.09063                      -0.99526                       0.03540
                      -0.03441                      -0.99646                       0.07673
        </DataArray>
      </PointData>
      <Lines>
        <DataArray type="Int32" Name="connectivity" format="ascii">
      0      1
      1      2
      2      3
      3      4
      4      5
      5      6
      6      7
      7      8
      8      9
      9     10
     10     11
     11     12
     12     13
     13     14
     14     15
     15     16
     16     17
     18      0
        </DataArray>
        <DataArray type="Int32" Name="offsets" format="ascii">
      2
      4
      6
      8
     10
     12
     14
     16
     18
     20
     22
     24
     26
     28
     30
     32
     34
     36
        </DataArray>
      </Lines>
    </Piece>
  </PolyData>
</VTKFile>
