<?xml version="1.0"?>
<VTKFile type="PolyData" version="0.1" byte_order="LittleEndian">
  <PolyData>
    <Piece NumberOfPoints="     17" NumberOfVerts="  0" NumberOfLines="      0"
           NumberOfStrips="  0" NumberOfPolys="      0">
      <Points>
        <DataArray type="Float32" NumberOfComponents="3" format="ascii">
                       3.27004                       2.32003                      92.47280
                       3.43709                       4.89665                      95.00667
                       3.61172                       7.47519                      97.53806
                       3.79675                      10.05603                     100.06638
                       3.99444                      12.63938                     102.59116
                       4.20718                      15.22534                     105.11204
                       4.43801                      17.81380                     107.62876
                       4.69080                      20.40447                     110.14109
                       4.97028                      22.99695                     112.64869
                       5.28180                      25.59081                     115.15107
                       5.63086                      28.18558                     117.64753
                       6.02241                      30.78080                     120.13719
                       6.45999                      33.37603                     122.61918
                       6.94456                      35.97084                     125.09288
                       7.47318                      38.56494                     127.55834
                       8.03743                      41.15831                     130.01674
                       8.62170                      43.75124                     132.47099
        </DataArray>
      </Points>
      <PointData>
        <DataArray type="Float32" Name="Force" NumberOfComponents="3" format="ascii">
                     180.59791                      45.86099                     -58.31984
                     568.61064                     155.01040                    -196.61175
                    2176.79543                    -465.55231                     314.34944
                    3752.78745                    -886.01943                     611.08253
                    2282.06295                    -488.43018                     310.19820
                    4875.42864                    -904.60543                     494.23230
                    5845.68263                    -935.30942                     393.07472
                    6488.47598                    -908.17965                     237.36407
                    6948.03267                    -884.35694                      79.72704
                    8733.45240                   -1035.18071                    -103.16304
                    9989.94808                   -1136.67580                    -337.27405
                   11334.10621                   -1293.31130                    -594.99386
                    6456.89741                    -739.60807                    -432.94127
                   12750.13823                   -1455.77008                   -1053.09177
                   12092.36570                   -1357.92377                   -1225.62274
                   16672.22645                   -1752.18308                   -2041.60449
                    6749.06568                    -605.09386                    -972.13375
        </DataArray>
        <DataArray type="Float32" Name="Moment" NumberOfComponents="3" format="ascii">
                     -20.08806                      17.56303                      -9.61240
                      95.78687                     305.84171                    -227.38733
                     711.68998                    1778.40731                   -1408.24312
                     854.85529                    2589.18028                   -1694.75319
                      51.45354                     405.36235                      59.86777
                    -560.42309                   -1355.76133                    1958.60021
                    -367.72431                   -1126.77892                    1079.80193
                    -186.21982                    -613.47443                    -467.21984
                    -111.75318                    -184.12004                   -1147.06165
                     -65.05085                     508.06091                   -1731.64854
                      58.48417                    2242.17946                   -3411.80656
                     207.34010                    4817.64516                   -5417.14872
                     -32.70401                    -304.27654                     281.81454
                    -252.48464                   -6012.95308                    6252.04620
                    -122.92131                   -5535.04510                    5699.16095
                    -224.39464                   -1162.05128                     861.85005
                    -158.91559                      29.78002                    -403.20612
        </DataArray>
      </PointData>
    </Piece>
  </PolyData>
</VTKFile>
