<?xml version="1.0"?>
<VTKFile type="PolyData" version="0.1" byte_order="LittleEndian">
  <PolyData>
    <Piece NumberOfPoints="     17" NumberOfVerts="  0" NumberOfLines="      0"
           NumberOfStrips="  0" NumberOfPolys="      0">
      <Points>
        <DataArray type="Float32" NumberOfComponents="3" format="ascii">
                       2.62814                      -2.78170                      88.36027
                       2.23715                      -5.82300                      86.44062
                       1.84636                      -8.86422                      84.52083
                       1.45583                     -11.90536                      82.60085
                       1.06565                     -14.94641                      80.68064
                       0.67589                     -17.98735                      78.76020
                       0.28661                     -21.02819                      76.83949
                      -0.10211                     -24.06894                      74.91852
                      -0.49020                     -27.10960                      72.99729
                      -0.87759                     -30.15017                      71.07578
                      -1.26422                     -33.19068                      69.15401
                      -1.65005                     -36.23113                      67.23199
                      -2.03508                     -39.27153                      65.30973
                      -2.41933                     -42.31190                      63.38726
                      -2.80292                     -45.35225                      61.46463
                      -3.18602                     -48.39258                      59.54187
                      -3.56894                     -51.43291                      57.61907
        </DataArray>
      </Points>
      <PointData>
        <DataArray type="Float32" Name="Force" NumberOfComponents="3" format="ascii">
                     178.90848                     -62.19874                      62.10196
                     619.59539                    -192.94326                     179.55945
                    2062.32313                     327.12290                    -937.80773
                    3384.70530                     548.00063                   -1556.19737
                    2053.71010                     281.60499                    -863.22124
                    4462.02325                     513.08983                   -1718.07327
                    5414.85098                     501.71086                   -1891.70511
                    6009.14730                     434.12618                   -1902.88806
                    6469.04705                     369.43301                   -1890.90007
                    8196.63423                     359.33825                   -2220.19210
                    9442.92963                     312.93296                   -2393.41814
                   10918.73803                     290.99703                   -2650.13812
                    6281.40080                     136.71989                   -1473.83695
                   12490.05179                     203.99977                   -2819.06378
                   11990.35291                     117.96915                   -2578.96753
                   16960.46732                      34.24733                   -3434.15844
                    7076.38288                     -63.33328                   -1309.64994
        </DataArray>
        <DataArray type="Float32" Name="Moment" NumberOfComponents="3" format="ascii">
                     -19.64544                     -15.37115                      20.42413
                     173.84438                    -272.42773                     274.73465
                    1088.75047                   -1523.39232                    1511.98316
                    1118.74051                   -1954.10641                    1937.37672
                      53.45134                    -273.90489                      90.59987
                    -920.21359                    1137.47459                   -1798.24743
                    -562.23046                    1190.49380                    -976.44692
                     -11.01406                    1112.74258                     584.01352
                     226.38300                     823.33793                    1290.43070
                     415.47408                     347.25784                    1994.04414
                     931.67907                   -1020.85440                    3859.40530
                    1528.10527                   -3437.55177                    6133.69782
                     -89.71201                     324.90734                    -284.79793
                   -1718.42179                    4824.26084                   -6952.23567
                   -1489.65771                    4414.09496                   -6434.95895
                    -319.53968                     840.56109                    -870.20768
                     -12.47935                       5.44071                     479.21974
        </DataArray>
      </PointData>
    </Piece>
  </PolyData>
</VTKFile>
