<?xml version="1.0"?>
<VTKFile type="PolyData" version="0.1" byte_order="LittleEndian">
  <PolyData>
    <Piece NumberOfPoints="     19" NumberOfVerts="  0" NumberOfLines="     18"
           NumberOfStrips="  0" NumberOfPolys="      0">
      <Points>
        <DataArray type="Float32" NumberOfComponents="3" format="ascii">
                       2.93285                      -0.06472                      88.67493
                       2.70026                      -0.09337                      87.32847
                       2.21377                      -0.05591                      84.63704
                       1.72034                       0.02678                      81.94567
                       1.10474                       0.15787                      78.58042
                       0.43186                       0.17377                      74.53438
                      -0.19870                       0.06176                      70.48438
                      -0.80889                      -0.05049                      66.43128
                      -1.39054                      -0.16435                      62.37402
                      -1.93719                      -0.27746                      58.31190
                      -2.44677                      -0.38625                      54.24488
                      -2.90605                      -0.49185                      50.17182
                      -3.30797                      -0.59459                      46.09264
                      -3.64860                      -0.69505                      42.00784
                      -3.92713                      -0.79387                      37.91829
                      -4.11906                      -0.87559                      34.50776
                      -4.25243                      -0.94872                      31.77845
                      -4.38076                      -1.07687                      29.04982
                      -4.44542                      -1.09926                      27.68490
        </DataArray>
      </Points>
      <PointData>
        <DataArray type="Float32" Name="Force" NumberOfComponents="3" format="ascii">
                       0.00628                      -2.04670                       0.04778
                      54.19020                     -21.30782                      -8.81906
                      70.54913                     -53.28283                     -10.78608
                      65.11271                     -72.12274                      -9.29974
                     582.17418                     236.55367                    -102.58693
                     797.09497                     273.42081                    -135.96326
                     979.68175                     281.26454                    -160.83313
                    1328.89755                     329.06729                    -208.59295
                    1510.50080                     318.67034                    -224.01960
                    1824.36490                     343.00057                    -252.01420
                    2339.51911                     392.29977                    -294.32175
                    2798.52044                     431.17202                    -312.75002
                    3380.77382                     502.19968                    -326.41713
                    3862.40280                     543.04419                    -312.64051
                    4326.05856                     582.66834                    -288.15385
                    4666.85865                     604.12143                    -267.60349
                    4712.04628                     582.63858                    -249.17420
                    3507.81274                     410.20875                    -179.04000
                    1346.98882                     -14.66026                     -65.06441
        </DataArray>
        <DataArray type="Float32" Name="Moment" NumberOfComponents="3" format="ascii">
                       0.00000                       0.00000                       0.00000
                       0.00000                       0.00000                       0.00000
                       0.00000                       0.00000                       0.00000
                       0.00000                       0.00000                       0.00000
                      29.74135                       4.26121                     178.60609
                      63.08191                       9.26278                     388.44986
                      81.71625                      12.37734                     519.40309
                     112.41209                      17.71761                     744.10204
                     147.11657                      24.42209                    1026.70611
                     154.49704                      27.45863                    1155.79716
                     146.13405                      28.45382                    1199.52343
                     136.53244                      29.90481                    1262.93504
                     108.37680                      27.52803                    1164.83479
                      91.34293                      27.75198                    1176.66696
                      72.13469                      26.76896                    1137.08815
                      58.71308                      25.42582                    1081.32338
                      48.47377                      22.79464                     969.97077
                      24.21360                      11.78028                     501.39151
                      21.88782                      10.59068                     450.74389
        </DataArray>
        <DataArray type="Float32" Name="TranslationalVelocity" NumberOfComponents="3" format="ascii">
                      -0.02840                       1.34566                      -0.01958
                      -0.03108                       2.61818                      -0.04620
                      -0.02524                       5.16604                      -0.01167
                      -0.01445                       7.71998                       0.06524
                       0.00157                      10.92272                       0.18827
                       0.00361                      14.78093                       0.20542
                      -0.00997                      18.65674                       0.10298
                      -0.02661                      22.55195                       0.00013
                      -0.05407                      26.46508                      -0.10343
                      -0.10487                      30.39361                      -0.20395
                      -0.19051                      34.33357                      -0.29690
                      -0.33393                      38.28342                      -0.38167
                      -0.55594                      42.24041                      -0.45823
                      -0.87414                      46.20221                      -0.52809
                      -1.29782                      50.16677                      -0.59415
                      -1.72650                      53.47171                      -0.64852
                      -2.11398                      56.11592                      -0.69994
                      -2.53071                      58.75951                      -0.80406
                      -2.73651                      60.08199                      -0.81583
        </DataArray>
        <DataArray type="Float32" Name="RotationalVelocity" NumberOfComponents="3" format="ascii">
                       0.92391                      -0.00055                      -0.11845
                       0.92461                      -0.00054                      -0.11857
                       0.92630                      -0.00040                      -0.11886
                       0.92837                      -0.00020                      -0.11922
                       0.93153                       0.00001                      -0.11977
                       0.93587                       0.00008                      -0.12052
                       0.94039                       0.00038                      -0.12131
                       0.94475                       0.00182                      -0.12210
                       0.94865                       0.00555                      -0.12286
                       0.95195                       0.01271                      -0.12360
                       0.95458                       0.02475                      -0.12434
                       0.95669                       0.04160                      -0.12511
                       0.95843                       0.06286                      -0.12592
                       0.95990                       0.08719                      -0.12675
                       0.96114                       0.11208                      -0.12756
                       0.96194                       0.13024                      -0.12813
                       0.96234                       0.14080                      -0.12845
                       0.96251                       0.14756                      -0.12864
                       0.96249                       0.14928                      -0.12868
        </DataArray>
        <DataArray type="Float32" Name="TranslationalAcceleration" NumberOfComponents="3" format="ascii">
                      -1.11880                       0.04466                       1.20909
                      -0.92991                       0.09715                       2.37852
                      -0.54733                       0.12310                       4.72231
                      -0.14756                       0.12095                       7.07537
                       0.38764                       0.11486                      10.03169
                       1.09351                       0.26821                      13.59764
                       1.88672                       0.58184                      17.18128
                       2.78467                       0.94470                      20.78612
                       3.80365                       1.35794                      24.40909
                       4.95920                       1.81782                      28.04670
                       6.24945                       2.31472                      31.69552
                       7.69975                       2.85257                      35.35756
                       9.31588                       3.43086                      39.03738
                      11.09439                       4.05023                      42.74308
                      13.01769                       4.71105                      46.48410
                      14.70367                       5.29093                      49.63121
                      16.08539                       5.77767                      52.16669
                      17.45465                       6.32281                      54.70419
                      18.14292                       6.55707                      55.97907
        </DataArray>
        <DataArray type="Float32" Name="OrientationX" NumberOfComponents="3" format="ascii">
                       0.95827                       0.22920                      -0.17083
                       0.95834                       0.22921                      -0.17042
                       0.95854                       0.22924                      -0.16927
                       0.95881                       0.22928                      -0.16768
                       0.95925                       0.22934                      -0.16505
                       0.96675                       0.19827                      -0.16149
                       0.97186                       0.17579                      -0.15679
                       0.97616                       0.15612                      -0.15082
                       0.98039                       0.13529                      -0.14328
                       0.98444                       0.11382                      -0.13385
                       0.98810                       0.09352                      -0.12215
                       0.99138                       0.07339                      -0.10851
                       0.99409                       0.05516                      -0.09346
                       0.99609                       0.04140                      -0.07803
                       0.99758                       0.02784                      -0.06376
                       0.99838                       0.01645                      -0.05449
                       0.99872                       0.00793                      -0.05005
                       0.99883                       0.00336                      -0.04830
                       0.99881                       0.00335                      -0.04857
        </DataArray>
        <DataArray type="Float32" Name="OrientationY" NumberOfComponents="3" format="ascii">
                       0.22982                      -0.97309                      -0.01642
                       0.22983                      -0.97309                      -0.01636
                       0.22986                      -0.97309                      -0.01621
                       0.22989                      -0.97309                      -0.01603
                       0.22994                      -0.97308                      -0.01575
                       0.19927                      -0.97989                      -0.01015
                       0.17704                      -0.98419                      -0.00609
                       0.15753                      -0.98751                      -0.00259
                       0.13683                      -0.99059                       0.00093
                       0.11543                      -0.99331                       0.00432
                       0.09512                      -0.99544                       0.00733
                       0.07491                      -0.99714                       0.01003
                       0.05654                      -0.99833                       0.01219
                       0.04259                      -0.99900                       0.01363
                       0.02884                      -0.99947                       0.01478
                       0.01732                      -0.99973                       0.01555
                       0.00874                      -0.99983                       0.01603
                       0.00415                      -0.99986                       0.01626
                       0.00415                      -0.99986                       0.01626
        </DataArray>
        <DataArray type="Float32" Name="OrientationZ" NumberOfComponents="3" format="ascii">
                      -0.17000                      -0.02352                      -0.98516
                      -0.16959                      -0.02349                      -0.98523
                      -0.16843                      -0.02337                      -0.98544
                      -0.16684                      -0.02318                      -0.98571
                      -0.16421                      -0.02285                      -0.98616
                      -0.16025                      -0.02236                      -0.98682
                      -0.15538                      -0.02184                      -0.98761
                      -0.14934                      -0.02123                      -0.98856
                      -0.14181                      -0.02051                      -0.98968
                      -0.13247                      -0.01970                      -0.99099
                      -0.12091                      -0.01886                      -0.99248
                      -0.10747                      -0.01807                      -0.99404
                      -0.09263                      -0.01740                      -0.99555
                      -0.07739                      -0.01690                      -0.99686
                      -0.06331                      -0.01658                      -0.99786
                      -0.05422                      -0.01647                      -0.99839
                      -0.04992                      -0.01644                      -0.99862
                      -0.04824                      -0.01644                      -0.99870
                      -0.04851                      -0.01644                      -0.99869
        </DataArray>
      </PointData>
      <Lines>
        <DataArray type="Int32" Name="connectivity" format="ascii">
      0      1
      1      2
      2      3
      3      4
      4      5
      5      6
      6      7
      7      8
      8      9
      9     10
     10     11
     11     12
     12     13
     13     14
     14     15
     15     16
     16     17
     17     18
        </DataArray>
        <DataArray type="Int32" Name="offsets" format="ascii">
      2
      4
      6
      8
     10
     12
     14
     16
     18
     20
     22
     24
     26
     28
     30
     32
     34
     36
        </DataArray>
      </Lines>
    </Piece>
  </PolyData>
</VTKFile>
