<?xml version="1.0"?>
<VTKFile type="PolyData" version="0.1" byte_order="LittleEndian">
  <PolyData>
    <Piece NumberOfPoints="     17" NumberOfVerts="  0" NumberOfLines="      0"
           NumberOfStrips="  0" NumberOfPolys="      0">
      <Points>
        <DataArray type="Float32" NumberOfComponents="3" format="ascii">
                       3.18017                       1.70108                      92.96273
                       3.40653                       3.58731                      96.04141
                       3.64202                       5.47334                      99.11952
                       3.89013                       7.35893                     102.19691
                       4.15375                       9.24394                     105.27336
                       4.43587                      11.12830                     108.34856
                       4.74000                      13.01184                     111.42216
                       5.07040                      14.89425                     114.49373
                       5.43206                      16.77522                     117.56264
                       5.83046                      18.65445                     120.62806
                       6.27108                      20.53169                     123.68889
                       6.75868                      22.40678                     126.74391
                       7.29638                      24.27965                     129.79189
                       7.88450                      26.15032                     132.83192
                       8.51918                      28.01898                     135.86388
                       9.19077                      29.88612                     138.88889
                       9.88202                      31.75250                     141.91000
        </DataArray>
      </Points>
      <PointData>
        <DataArray type="Float32" Name="Force" NumberOfComponents="3" format="ascii">
                     193.28601                      58.68220                     -49.99026
                     619.06283                     190.95400                    -164.26406
                    2389.55224                    -667.57737                     217.37479
                    4104.62478                   -1264.82990                     428.91937
                    2492.17846                    -701.59712                     208.65841
                    5310.87893                   -1304.04470                     298.13176
                    6326.09340                   -1341.75051                     174.77652
                    6963.22943                   -1286.59409                       6.65136
                    7374.10223                   -1215.46017                    -168.32587
                    9163.65311                   -1363.00447                    -422.19681
                   10382.28455                   -1419.38066                    -717.72283
                   11730.58537                   -1535.51648                   -1054.73940
                    6674.59210                    -847.63528                    -705.30653
                   13187.00609                   -1615.72293                   -1605.93440
                   12556.55714                   -1463.13959                   -1758.99200
                   17448.31455                   -1851.78638                   -2757.33203
                    7148.67429                    -635.99722                   -1236.74259
        </DataArray>
        <DataArray type="Float32" Name="Moment" NumberOfComponents="3" format="ascii">
                     -20.54993                      21.33687                      -5.53919
                     123.21670                     386.25266                    -169.96531
                     864.14447                    2247.50225                   -1059.76152
                    1072.50334                    3214.24045                   -1065.81913
                      75.56711                     441.92938                     226.85031
                    -694.21066                   -1902.32358                    1850.04290
                    -456.82199                   -1421.90626                     997.27147
                    -224.22774                    -484.71973                    -464.43952
                    -132.39253                      86.20263                   -1107.96526
                     -71.09681                     874.24062                   -1595.04825
                     105.93536                    3000.61717                   -2935.17526
                     339.57818                    6102.92364                   -4315.41062
                     -63.05874                    -457.28104                     135.63614
                    -487.55185                   -7811.52053                    4575.61725
                    -330.41825                   -7185.85659                    4176.61002
                    -274.01691                   -1466.52584                     436.54551
                    -162.41699                     130.27067                    -418.44546
        </DataArray>
      </PointData>
    </Piece>
  </PolyData>
</VTKFile>
