<?xml version="1.0"?>
<VTKFile type="PolyData" version="0.1" byte_order="LittleEndian">
  <PolyData>
    <Piece NumberOfPoints="     17" NumberOfVerts="  0" NumberOfLines="      0"
           NumberOfStrips="  0" NumberOfPolys="      0">
      <Points>
        <DataArray type="Float32" NumberOfComponents="3" format="ascii">
                       3.30025                      -2.55433                      92.27344
                       3.44175                      -5.32405                      94.59636
                       3.59026                      -8.09623                      96.91591
                       3.74862                     -10.87163                      99.23095
                       3.91928                     -13.65068                     101.54073
                       4.10492                     -16.43360                     103.84467
                       4.30866                     -19.22054                     106.14222
                       4.53430                     -22.01157                     108.43273
                       4.78627                     -24.80665                     110.71553
                       5.06944                     -27.60557                     112.98995
                       5.38869                     -30.40789                     115.25536
                       5.74827                     -33.21294                     117.51132
                       6.15103                     -36.01987                     119.75763
                       6.59736                     -38.82775                     121.99453
                       7.08398                     -41.63574                     124.22292
                       7.60257                     -44.44332                     126.44468
                       8.13810                     -47.25050                     128.66298
        </DataArray>
      </Points>
      <PointData>
        <DataArray type="Float32" Name="Force" NumberOfComponents="3" format="ascii">
                     179.94971                      55.26730                      54.99854
                     582.32096                     169.66638                     164.90936
                    1891.10217                    -485.75553                    -708.07415
                    3132.40283                    -820.73473                   -1207.06511
                    1884.08074                    -431.52947                    -661.79617
                    4027.00792                    -790.96203                   -1283.89097
                    4820.51217                    -786.28942                   -1390.21577
                    5297.59562                    -698.47010                   -1391.63937
                    5683.52880                    -606.93541                   -1400.14851
                    7224.91733                    -602.27007                   -1690.61605
                    8367.13285                    -521.70543                   -1900.94128
                    9768.45319                    -454.97464                   -2231.72388
                    5684.60999                    -197.15533                   -1305.83904
                   11458.47118                    -257.64300                   -2642.19782
                   11203.92809                    -102.62548                   -2593.32370
                   16327.95511                      69.61432                   -3730.75190
                    6948.42975                     121.53526                   -1509.16390
        </DataArray>
        <DataArray type="Float32" Name="Moment" NumberOfComponents="3" format="ascii">
                     -17.02853                      10.72633                      20.38731
                     157.63612                     168.67687                     292.57164
                    1024.64655                     976.90663                    1672.15261
                    1090.46260                    1269.48665                    2160.62286
                      62.35223                      28.11783                     224.11036
                    -821.43493                   -1228.21380                   -1522.92583
                    -579.06281                    -379.83300                   -1431.78355
                    -241.78535                    1057.71201                   -1055.80902
                     -74.83911                    1633.97764                    -651.87756
                      63.45105                    2180.62042                    -120.40164
                     497.93407                    3444.82640                    1501.37600
                    1160.87791                    4744.50451                    4228.74547
                    -123.94034                     -11.16709                    -495.39389
                   -1588.97167                   -4569.84764                   -6273.21055
                   -1427.85354                   -4353.32627                   -5831.72278
                    -322.28986                    -258.00058                    -948.60517
                     -86.25298                     371.74941                      71.18665
        </DataArray>
      </PointData>
    </Piece>
  </PolyData>
</VTKFile>
