<?xml version="1.0"?>
<VTKFile type="PolyData" version="0.1" byte_order="LittleEndian">
  <PolyData>
    <Piece NumberOfPoints="     19" NumberOfVerts="  0" NumberOfLines="     18"
           NumberOfStrips="  0" NumberOfPolys="      0">
      <Points>
        <DataArray type="Float32" NumberOfComponents="3" format="ascii">
                       2.69828                      -1.47829                      89.80438
                       2.60177                      -2.80696                      89.49906
                       2.37676                      -5.44154                      88.79906
                       2.13986                      -8.06506                      88.05463
                       1.84227                     -11.33734                      87.09423
                       1.56808                     -15.29767                      86.06525
                       1.35229                     -19.28762                      85.14859
                       1.15919                     -23.27680                      84.22340
                       0.99776                     -27.26553                      83.29003
                       0.87483                     -31.25310                      82.34567
                       0.79210                     -35.23848                      81.38760
                       0.76372                     -39.22123                      80.41530
                       0.79690                     -43.20056                      79.42903
                       0.89543                     -47.17565                      78.42978
                       1.05953                     -51.14579                      77.41913
                       1.23833                     -54.45069                      76.57037
                       1.40305                     -57.09461                      75.89604
                       1.57866                     -59.75177                      75.27394
                       1.66117                     -61.06998                      74.92284
        </DataArray>
      </Points>
      <PointData>
        <DataArray type="Float32" Name="Force" NumberOfComponents="3" format="ascii">
                       0.72482                      -1.43541                       6.09554
                      88.77956                     -11.99967                      24.84404
                     114.17505                     -22.12036                      62.03399
                     105.21076                     -25.82397                      81.87260
                     797.94630                      48.16045                    -441.20099
                    1027.19034                      52.35154                    -503.73751
                    1200.90962                      51.39953                    -514.54611
                    1553.02441                      61.86601                    -595.43272
                    1708.24443                      66.84545                    -582.34715
                    1984.82680                      85.73231                    -616.24154
                    2456.23132                     123.24932                    -693.67281
                    2829.02930                     170.87274                    -735.07617
                    3295.80091                     243.87416                    -810.00669
                    3626.05411                     316.60916                    -832.12734
                    3925.00604                     390.30288                    -841.92690
                    4106.25577                     436.75484                    -828.32826
                    4034.34535                     436.81007                    -768.87134
                    2951.23403                     319.02766                    -540.63615
                    1264.35489                     106.31129                    -108.92869
        </DataArray>
        <DataArray type="Float32" Name="Moment" NumberOfComponents="3" format="ascii">
                       0.00000                       0.00000                       0.00000
                       0.00000                       0.00000                       0.00000
                       0.00000                       0.00000                       0.00000
                       0.00000                       0.00000                       0.00000
                      16.61393                     253.49387                      57.71837
                      29.48504                     483.66429                     110.38949
                      34.02791                     615.55863                     140.90840
                      40.67665                     843.04330                     193.68696
                      44.28116                    1119.80602                     258.43174
                      35.94093                    1245.64231                     289.05600
                      20.36297                    1289.17089                     301.15869
                       1.03297                    1353.07974                     318.50677
                     -19.30594                    1232.60072                     292.55430
                     -39.86633                    1230.79093                     294.57295
                     -56.90436                    1192.69164                     287.62714
                     -65.27574                    1135.59224                     275.17654
                     -62.72796                    1011.92013                     245.75070
                     -32.37130                     509.17133                     123.75133
                     -26.49240                     419.52445                     101.94180
        </DataArray>
        <DataArray type="Float32" Name="TranslationalVelocity" NumberOfComponents="3" format="ascii">
                      -0.75190                       0.29814                      -1.38231
                      -0.89324                       0.58992                      -2.60741
                      -1.17224                       1.25923                      -5.03686
                      -1.44975                       1.97048                      -7.45538
                      -1.79627                       2.88669                     -10.47032
                      -2.21898                       3.86264                     -14.11522
                      -2.64875                       4.72815                     -17.78304
                      -3.08175                       5.59826                     -21.44597
                      -3.52000                       6.47159                     -25.10380
                      -3.96622                       7.34980                     -28.75536
                      -4.42231                       8.23510                     -32.39981
                      -4.89295                       9.12587                     -36.03582
                      -5.38177                      10.02049                     -39.66255
                      -5.89144                      10.91695                     -43.27947
                      -6.42276                      11.81320                     -46.88660
                      -6.88028                      12.55886                     -49.88617
                      -7.25461                      13.14727                     -52.28431
                      -7.63454                      13.68641                     -54.69391
                      -7.82312                      13.99305                     -55.88928
        </DataArray>
        <DataArray type="Float32" Name="RotationalVelocity" NumberOfComponents="3" format="ascii">
                       0.92114                      -0.01418                      -0.10961
                       0.92103                      -0.01417                      -0.10963
                       0.92073                      -0.01412                      -0.10973
                       0.92035                      -0.01406                      -0.10989
                       0.91976                      -0.01396                      -0.11015
                       0.91894                      -0.01380                      -0.11059
                       0.91804                      -0.01359                      -0.11122
                       0.91705                      -0.01330                      -0.11221
                       0.91597                      -0.01288                      -0.11372
                       0.91478                      -0.01229                      -0.11594
                       0.91349                      -0.01148                      -0.11908
                       0.91215                      -0.01048                      -0.12307
                       0.91081                      -0.00931                      -0.12779
                       0.90954                      -0.00806                      -0.13292
                       0.90845                      -0.00684                      -0.13791
                       0.90778                      -0.00601                      -0.14136
                       0.90744                      -0.00558                      -0.14318
                       0.90728                      -0.00535                      -0.14414
                       0.90727                      -0.00532                      -0.14426
        </DataArray>
        <DataArray type="Float32" Name="TranslationalAcceleration" NumberOfComponents="3" format="ascii">
                       0.63284                       1.03592                       0.39705
                       0.67185                       2.19814                       0.58711
                       0.75767                       4.50708                       1.05132
                       0.85461                       6.80405                       1.56273
                       0.99367                       9.66116                       2.24008
                       1.18289                      13.09805                       2.95375
                       1.40314                      16.54093                       3.58728
                       1.65714                      19.96928                       4.25263
                       1.92964                      23.38349                       4.95223
                       2.19342                      26.78287                       5.69257
                       2.41847                      30.16752                       6.47628
                       2.55858                      33.53400                       7.31002
                       2.56676                      36.87869                       8.19445
                       2.40153                      40.19671                       9.12671
                       2.03713                      43.48324                      10.10016
                       1.58559                      46.19805                      10.93522
                       1.13542                      48.35769                      11.60861
                       0.63088                      50.52524                      12.24355
                       0.37533                      51.59823                      12.59524
        </DataArray>
        <DataArray type="Float32" Name="OrientationX" NumberOfComponents="3" format="ascii">
                       0.93781                       0.01111                      -0.34696
                       0.93785                       0.01159                      -0.34685
                       0.93794                       0.01294                      -0.34654
                       0.93807                       0.01479                      -0.34612
                       0.93828                       0.01787                      -0.34541
                       0.94894                       0.01507                      -0.31510
                       0.95615                       0.01534                      -0.29249
                       0.96210                       0.01754                      -0.27214
                       0.96796                       0.02101                      -0.25023
                       0.97350                       0.02617                      -0.22716
                       0.97827                       0.03380                      -0.20455
                       0.98243                       0.04327                      -0.18153
                       0.98563                       0.05444                      -0.15992
                       0.98754                       0.06691                      -0.14245
                       0.98902                       0.07803                      -0.12549
                       0.99011                       0.08439                      -0.11203
                       0.99095                       0.08651                      -0.10267
                       0.99140                       0.08686                      -0.09786
                       0.99143                       0.08645                      -0.09796
        </DataArray>
        <DataArray type="Float32" Name="OrientationY" NumberOfComponents="3" format="ascii">
                       0.33998                      -0.23135                       0.91153
                       0.33997                      -0.23148                       0.91150
                       0.33994                      -0.23181                       0.91143
                       0.33992                      -0.23220                       0.91134
                       0.33988                      -0.23279                       0.91120
                       0.30972                      -0.23413                       0.92155
                       0.28776                      -0.23534                       0.92834
                       0.26845                      -0.23653                       0.93380
                       0.24794                      -0.23778                       0.93914
                       0.22674                      -0.23909                       0.94415
                       0.20661                      -0.24042                       0.94842
                       0.18660                      -0.24185                       0.95220
                       0.16842                      -0.24333                       0.95521
                       0.15465                      -0.24468                       0.95719
                       0.14109                      -0.24609                       0.95892
                       0.12972                      -0.24728                       0.96022
                       0.12124                      -0.24814                       0.96111
                       0.11669                      -0.24860                       0.96155
                       0.11669                      -0.24859                       0.96155
        </DataArray>
        <DataArray type="Float32" Name="OrientationZ" NumberOfComponents="3" format="ascii">
                      -0.07014                      -0.97281                      -0.22074
                      -0.06973                      -0.97277                      -0.22103
                      -0.06854                      -0.97268                      -0.22182
                      -0.06689                      -0.97256                      -0.22285
                      -0.06412                      -0.97236                      -0.22450
                      -0.05989                      -0.97209                      -0.22684
                      -0.05459                      -0.97179                      -0.22944
                      -0.04799                      -0.97146                      -0.23228
                      -0.03977                      -0.97109                      -0.23537
                      -0.02961                      -0.97064                      -0.23869
                      -0.01712                      -0.97008                      -0.24218
                      -0.00270                      -0.96935                      -0.24567
                       0.01309                      -0.96841                      -0.24900
                       0.02920                      -0.96729                      -0.25198
                       0.04394                      -0.96610                      -0.25440
                       0.05333                      -0.96526                      -0.25578
                       0.05766                      -0.96485                      -0.25638
                       0.05919                      -0.96471                      -0.25659
                       0.05878                      -0.96474                      -0.25655
        </DataArray>
      </PointData>
      <Lines>
        <DataArray type="Int32" Name="connectivity" format="ascii">
      0      1
      1      2
      2      3
      3      4
      4      5
      5      6
      6      7
      7      8
      8      9
      9     10
     10     11
     11     12
     12     13
     13     14
     14     15
     15     16
     16     17
     17     18
        </DataArray>
        <DataArray type="Int32" Name="offsets" format="ascii">
      2
      4
      6
      8
     10
     12
     14
     16
     18
     20
     22
     24
     26
     28
     30
     32
     34
     36
        </DataArray>
      </Lines>
    </Piece>
  </PolyData>
</VTKFile>
