<?xml version="1.0"?>
<VTKFile type="PolyData" version="0.1" byte_order="LittleEndian">
  <PolyData>
    <Piece NumberOfPoints="     19" NumberOfVerts="  0" NumberOfLines="     18"
           NumberOfStrips="  0" NumberOfPolys="      0">
      <Points>
        <DataArray type="Float32" NumberOfComponents="3" format="ascii">
                       2.50886                       1.25720                      89.37205
                       2.36980                       2.43194                      88.68756
                       2.08000                       4.82908                      87.40242
                       1.78816                       7.24921                      86.15678
                       1.42807                      10.28884                      84.62312
                       1.04896                      13.86641                      82.65313
                       0.70103                      17.37997                      80.56829
                       0.37538                      20.89396                      78.48057
                       0.08008                      24.40766                      76.38786
                      -0.17825                      27.92206                      74.29148
                      -0.39762                      31.43865                      72.19441
                      -0.56512                      34.95634                      70.09444
                      -0.67428                      38.47417                      67.99091
                      -0.72183                      41.99097                      65.88339
                      -0.70767                      45.50561                      63.77177
                      -0.65638                      48.43248                      62.00934
                      -0.59665                      50.76866                      60.59125
                      -0.53813                      53.07670                      59.12569
                      -0.50526                      54.25178                      58.42869
        </DataArray>
      </Points>
      <PointData>
        <DataArray type="Float32" Name="Force" NumberOfComponents="3" format="ascii">
                      -0.03209                      -0.16680                      -0.27808
                      67.60428                      -4.96620                     -22.09899
                      82.86573                     -19.56094                     -49.84763
                      72.41356                     -30.46417                     -66.08563
                     820.41686                     205.24031                     194.13201
                    1076.79626                     238.38563                     211.09732
                    1235.31833                     228.21357                     177.97401
                    1556.13108                     240.62006                     164.38414
                    1672.24187                     210.80308                     121.81635
                    1895.95417                     191.22466                      93.51884
                    2299.35349                     173.94053                      69.04730
                    2604.50636                     135.47300                      44.14018
                    3017.81577                      97.91646                      39.81329
                    3284.30767                      38.72381                      26.83221
                    3516.55243                     -24.47444                      13.64610
                    3643.32534                     -74.99337                      -5.81050
                    3554.13556                    -105.14325                     -30.56570
                    2594.81160                     -90.28604                     -37.42622
                    1237.14154                     -94.86837                    -104.71557
        </DataArray>
        <DataArray type="Float32" Name="Moment" NumberOfComponents="3" format="ascii">
                       0.00000                       0.00000                       0.00000
                       0.00000                       0.00000                       0.00000
                       0.00000                       0.00000                       0.00000
                       0.00000                       0.00000                       0.00000
                      25.95487                    -233.25917                     136.91907
                      35.33863                    -332.76776                     195.52375
                      45.64712                    -456.53657                     268.57358
                      59.56190                    -644.67765                     379.81923
                      71.33454                    -858.79400                     506.89268
                      70.70767                    -986.42451                     583.52084
                      60.61295                   -1048.01604                     621.62989
                      47.05497                   -1122.19261                     667.68741
                      24.95818                   -1015.78995                     606.41465
                       6.99735                   -1014.60784                     607.77837
                      -9.13309                    -982.94236                     590.64619
                     -18.30036                    -932.57184                     561.49071
                     -20.14243                    -825.48793                     497.47181
                     -10.82160                    -414.62316                     249.94969
                      -9.16318                    -357.07365                     215.23874
        </DataArray>
        <DataArray type="Float32" Name="TranslationalVelocity" NumberOfComponents="3" format="ascii">
                      -0.16709                       0.68179                       1.18878
                      -0.03593                       1.33526                       2.28364
                       0.23090                       2.56509                       4.51738
                       0.49979                       3.75777                       6.77140
                       0.83704                       5.22540                       9.60039
                       1.23437                       7.09995                      12.92706
                       1.62464                       9.07576                      16.19055
                       2.01470                      11.04952                      19.45076
                       2.40659                      13.02256                      22.70717
                       2.80397                      14.99320                      25.96091
                       3.21043                      16.95885                      29.21384
                       3.63211                      18.92003                      32.46475
                       4.07468                      20.87635                      35.71287
                       4.54291                      22.82725                      38.95729
                       5.03927                      24.77214                      42.19733
                       5.47309                      26.38859                      44.89405
                       5.83143                      27.68567                      47.04572
                       6.19328                      29.02608                      49.17089
                       6.37694                      29.66279                      50.25289
        </DataArray>
        <DataArray type="Float32" Name="RotationalVelocity" NumberOfComponents="3" format="ascii">
                       0.93297                      -0.00681                      -0.10772
                       0.93281                      -0.00681                      -0.10769
                       0.93240                      -0.00682                      -0.10763
                       0.93191                      -0.00683                      -0.10755
                       0.93116                      -0.00685                      -0.10742
                       0.93013                      -0.00683                      -0.10718
                       0.92905                      -0.00683                      -0.10697
                       0.92800                      -0.00699                      -0.10703
                       0.92700                      -0.00747                      -0.10764
                       0.92606                      -0.00842                      -0.10907
                       0.92517                      -0.01005                      -0.11167
                       0.92427                      -0.01236                      -0.11543
                       0.92333                      -0.01530                      -0.12025
                       0.92237                      -0.01868                      -0.12582
                       0.92143                      -0.02215                      -0.13156
                       0.92076                      -0.02470                      -0.13577
                       0.92038                      -0.02619                      -0.13824
                       0.92015                      -0.02715                      -0.13984
                       0.92010                      -0.02741                      -0.14026
        </DataArray>
        <DataArray type="Float32" Name="TranslationalAcceleration" NumberOfComponents="3" format="ascii">
                       1.25099                      -1.04824                       0.80717
                       1.27621                      -2.08481                       1.42330
                       1.31484                      -4.20605                       2.57049
                       1.33259                      -6.36684                       3.63902
                       1.31568                      -9.11384                       4.87283
                       1.23393                     -12.41511                       6.33359
                       1.06146                     -15.75421                       7.74476
                       0.78045                     -19.18287                       9.00513
                       0.40514                     -22.69660                      10.12006
                      -0.02700                     -26.28819                      11.09525
                      -0.46224                     -29.94332                      11.94886
                      -0.83147                     -33.66059                      12.67528
                      -1.05209                     -37.43503                      13.28204
                      -1.04506                     -41.26567                      13.77807
                      -0.75127                     -45.15361                      14.17615
                      -0.27840                     -48.43548                      14.44797
                       0.24720                     -51.08515                      14.64263
                       0.87936                     -53.74312                      14.87587
                       1.20396                     -55.07694                      14.95149
        </DataArray>
        <DataArray type="Float32" Name="OrientationX" NumberOfComponents="3" format="ascii">
                       0.98600                       0.15421                       0.06344
                       0.98605                       0.15382                       0.06367
                       0.98617                       0.15272                       0.06432
                       0.98635                       0.15121                       0.06520
                       0.98663                       0.14871                       0.06666
                       0.99075                       0.12922                       0.04136
                       0.99328                       0.11317                       0.02421
                       0.99519                       0.09748                       0.01018
                       0.99680                       0.07987                      -0.00408
                       0.99801                       0.06038                      -0.01795
                       0.99877                       0.03961                      -0.02970
                       0.99903                       0.01738                      -0.04037
                       0.99880                      -0.00495                      -0.04872
                       0.99827                      -0.02522                      -0.05305
                       0.99735                      -0.04423                      -0.05782
                       0.99633                      -0.05773                      -0.06321
                       0.99549                      -0.06562                      -0.06848
                       0.99502                      -0.06920                      -0.07168
                       0.99503                      -0.06888                      -0.07188
        </DataArray>
        <DataArray type="Float32" Name="OrientationY" NumberOfComponents="3" format="ascii">
                       0.13202                      -0.48953                      -0.86193
                       0.13203                      -0.48959                      -0.86190
                       0.13205                      -0.48973                      -0.86182
                       0.13207                      -0.48990                      -0.86172
                       0.13210                      -0.49017                      -0.86156
                       0.10059                      -0.49496                      -0.86307
                       0.07781                      -0.49812                      -0.86361
                       0.05787                      -0.50062                      -0.86373
                       0.03677                      -0.50288                      -0.86358
                       0.01502                      -0.50476                      -0.86313
                      -0.00557                      -0.50612                      -0.86244
                      -0.02599                      -0.50701                      -0.86155
                      -0.04449                      -0.50739                      -0.86057
                      -0.05851                      -0.50740                      -0.85972
                      -0.07228                      -0.50709                      -0.85886
                      -0.08379                      -0.50659                      -0.85811
                      -0.09235                      -0.50609                      -0.85752
                      -0.09693                      -0.50579                      -0.85719
                      -0.09693                      -0.50579                      -0.85719
        </DataArray>
        <DataArray type="Float32" Name="OrientationZ" NumberOfComponents="3" format="ascii">
                      -0.10186                       0.85824                      -0.50304
                      -0.10141                       0.85828                      -0.50307
                      -0.10012                       0.85840                      -0.50312
                      -0.09836                       0.85856                      -0.50318
                      -0.09545                       0.85885                      -0.50326
                      -0.09105                       0.85925                      -0.50338
                      -0.08568                       0.85969                      -0.50358
                      -0.07910                       0.86016                      -0.50385
                      -0.07103                       0.86066                      -0.50420
                      -0.06117                       0.86115                      -0.50466
                      -0.04919                       0.86155                      -0.50528
                      -0.03544                       0.86176                      -0.50607
                      -0.02046                       0.86170                      -0.50700
                      -0.00524                       0.86134                      -0.50799
                       0.00867                       0.86076                      -0.50894
                       0.01752                       0.86025                      -0.50957
                       0.02161                       0.85998                      -0.50987
                       0.02306                       0.85988                      -0.50998
                       0.02269                       0.85990                      -0.50995
        </DataArray>
      </PointData>
      <Lines>
        <DataArray type="Int32" Name="connectivity" format="ascii">
      0      1
      1      2
      2      3
      3      4
      4      5
      5      6
      6      7
      7      8
      8      9
      9     10
     10     11
     11     12
     12     13
     13     14
     14     15
     15     16
     16     17
     17     18
        </DataArray>
        <DataArray type="Int32" Name="offsets" format="ascii">
      2
      4
      6
      8
     10
     12
     14
     16
     18
     20
     22
     24
     26
     28
     30
     32
     34
     36
        </DataArray>
      </Lines>
    </Piece>
  </PolyData>
</VTKFile>
