<?xml version="1.0"?>
<VTKFile type="PolyData" version="0.1" byte_order="LittleEndian">
  <PolyData>
    <Piece NumberOfPoints="     17" NumberOfVerts="  0" NumberOfLines="      0"
           NumberOfStrips="  0" NumberOfPolys="      0">
      <Points>
        <DataArray type="Float32" NumberOfComponents="3" format="ascii">
                       2.64379                       2.86280                      88.49274
                       2.27005                       5.99279                      86.71768
                       1.89632                       9.12278                      84.94262
                       1.52259                      12.25277                      83.16756
                       1.14885                      15.38277                      81.39250
                       0.77512                      18.51276                      79.61744
                       0.40138                      21.64275                      77.84238
                       0.02765                      24.77274                      76.06732
                      -0.34609                      27.90274                      74.29226
                      -0.71982                      31.03273                      72.51720
                      -1.09356                      34.16272                      70.74214
                      -1.46729                      37.29271                      68.96708
                      -1.84103                      40.42271                      67.19201
                      -2.21476                      43.55270                      65.41695
                      -2.58850                      46.68269                      63.64189
                      -2.96223                      49.81268                      61.86683
                      -3.33596                      52.94268                      60.09177
        </DataArray>
      </Points>
      <PointData>
        <DataArray type="Float32" Name="Force" NumberOfComponents="3" format="ascii">
                     150.75404                     -18.71472                     -64.74085
                     513.18584                     -69.21173                    -230.09212
                    2100.55115                     438.39409                     330.76135
                    3769.58221                     842.61124                     692.11346
                    2376.50120                     491.67743                     366.61611
                    5084.68854                     941.59073                     589.75317
                    6027.02701                     976.08844                     452.17651
                    7195.48646                    1032.07326                     304.87920
                    7796.43559                    1012.22159                     143.34610
                    9589.22000                    1132.58937                     -21.87381
                   10902.94035                    1184.42647                    -207.06919
                   11804.75992                    1217.67304                    -338.32085
                    6672.85817                     660.17200                    -240.86204
                   13407.93609                    1265.61086                    -591.33609
                   13054.21304                    1162.50855                    -698.66250
                   18675.99192                    1535.78458                   -1224.11057
                    7675.00471                     551.78417                    -642.98345
        </DataArray>
        <DataArray type="Float32" Name="Moment" NumberOfComponents="3" format="ascii">
                     -19.04698                      -6.83297                     -16.48312
                      67.84297                    -126.76064                    -363.13275
                     606.31825                    -712.06053                   -2129.45873
                     713.82966                    -710.71746                   -3179.55142
                     -12.81556                     276.56874                    -465.75750
                    -669.45664                    1738.83615                    1966.98581
                    -349.25344                     785.49007                    1207.30727
                     -89.02312                    -331.55273                     128.05934
                     -10.61988                    -780.68693                    -347.08541
                      20.07031                   -1227.37752                   -1181.07083
                     118.10887                   -2469.23127                   -3471.92238
                     153.58736                   -3713.51997                   -6222.25768
                     -19.13575                     182.22415                     383.54048
                    -134.56391                    4389.71954                    7839.45452
                     -36.41606                    4141.29124                    7320.66149
                    -130.55489                     568.09947                    1091.92858
                    -104.77199                    -269.75435                     -87.52908
        </DataArray>
      </PointData>
    </Piece>
  </PolyData>
</VTKFile>
