<?xml version="1.0"?>
<VTKFile type="PolyData" version="0.1" byte_order="LittleEndian">
  <PolyData>
    <Piece NumberOfPoints="     17" NumberOfVerts="  0" NumberOfLines="      0"
           NumberOfStrips="  0" NumberOfPolys="      0">
      <Points>
        <DataArray type="Float32" NumberOfComponents="3" format="ascii">
                       3.25001                       2.12677                      92.65381
                       3.44022                       4.48892                      95.38720
                       3.63842                       6.85269                      98.11862
                       3.84759                       9.21832                     100.84761
                       4.07014                      11.58599                     103.57377
                       4.30863                      13.95576                     106.29674
                       4.56625                      16.32750                     109.01625
                       4.84704                      18.70090                     111.73201
                       5.15594                      21.07555                     114.44361
                       5.49846                      23.45101                     117.15043
                       5.88029                      25.82684                     119.85165
                       6.30652                      28.20260                     122.54627
                       6.78072                      30.57793                     125.23325
                       7.30382                      32.95246                     127.91186
                       7.87265                      35.32601                     130.58208
                       8.47841                      37.69865                     133.24505
                       9.10475                      40.07077                     135.90378
        </DataArray>
      </Points>
      <PointData>
        <DataArray type="Float32" Name="Force" NumberOfComponents="3" format="ascii">
                     185.53542                      50.20215                     -56.08744
                     586.84180                     167.79911                    -187.38771
                    2253.36730                    -533.93424                     289.13422
                    3882.06025                   -1013.67783                     563.43007
                    2361.83843                    -560.67225                     284.04716
                    5047.66354                   -1042.14836                     444.61625
                    6045.55520                   -1078.69512                     337.94871
                    6695.43704                   -1045.34020                     178.17094
                    7140.30167                   -1008.11026                      13.10301
                    8929.69618                   -1161.44323                    -194.12336
                   10163.34009                   -1248.33639                    -453.20926
                   11499.23060                   -1389.92775                    -744.56349
                    6540.80011                    -782.06767                    -525.72014
                   12903.68318                   -1515.61962                   -1249.77283
                   12244.37512                   -1392.32564                   -1424.43747
                   16937.39246                   -1780.38148                   -2320.10015
                    6921.86989                    -619.71142                   -1079.73427
        </DataArray>
        <DataArray type="Float32" Name="Moment" NumberOfComponents="3" format="ascii">
                     -20.29876                      18.95007                      -8.39472
                     104.63439                     334.20448                    -211.37743
                     761.44472                    1947.11933                   -1311.14517
                     924.95493                    2821.35920                   -1517.69719
                      59.89543                     427.16939                     112.43256
                    -602.14830                   -1529.24105                    1954.85555
                    -394.84803                   -1207.97086                    1083.45695
                    -195.66892                    -540.92140                    -445.72883
                    -115.02755                     -61.19554                   -1114.68878
                     -63.36129                     667.07843                   -1666.05788
                      75.04773                    2534.70347                   -3258.60468
                     242.89039                    5289.69632                   -5096.56774
                     -42.48380                    -359.34385                     239.97562
                    -315.06168                   -6663.80235                    5754.86516
                    -173.03850                   -6138.28575                    5225.28235
                    -247.20714                   -1301.06960                     661.80743
                    -163.74008                      67.90018                    -444.40986
        </DataArray>
      </PointData>
    </Piece>
  </PolyData>
</VTKFile>
