<?xml version="1.0"?>
<VTKFile type="PolyData" version="0.1" byte_order="LittleEndian">
  <PolyData>
    <Piece NumberOfPoints="     19" NumberOfVerts="  0" NumberOfLines="     18"
           NumberOfStrips="  0" NumberOfPolys="      0">
      <Points>
        <DataArray type="Float32" NumberOfComponents="3" format="ascii">
                       2.82890                      -0.83417                      88.89004
                       2.62998                      -1.57930                      87.76173
                       2.20494                      -2.98916                      85.45667
                       1.77076                      -4.35917                      83.12696
                       1.22906                      -6.04515                      80.19741
                       0.65691                      -8.18269                      76.74482
                       0.13964                     -10.42184                      73.35017
                      -0.35165                     -12.65484                      69.94757
                      -0.80761                     -14.88285                      66.53671
                      -1.22085                     -17.10403                      63.11589
                      -1.58959                     -19.31609                      59.68401
                      -1.89904                     -21.51940                      56.24058
                      -2.14189                     -23.71422                      52.78629
                      -2.31454                     -25.90105                      49.32262
                      -2.41739                     -28.08061                      45.85143
                      -2.45866                     -29.89257                      42.95489
                      -2.46947                     -31.34681                      40.64029
                      -2.47237                     -32.84736                      38.35405
                      -2.47713                     -33.56217                      37.18922
        </DataArray>
      </Points>
      <PointData>
        <DataArray type="Float32" Name="Force" NumberOfComponents="3" format="ascii">
                       0.27034                      -3.38221                       2.19980
                      58.78624                     -25.90406                       6.88503
                      85.20972                     -59.54083                      24.73562
                      81.87922                     -75.47843                      36.08674
                     683.39118                     226.68161                    -264.85837
                     874.82398                     242.14166                    -301.61045
                     997.94156                     226.34495                    -303.17071
                    1248.71052                     237.64722                    -337.20828
                    1297.86235                     200.39556                    -304.49078
                    1409.69456                     182.98585                    -287.92751
                    1630.92325                     171.92558                    -279.24247
                    1670.00960                     143.47074                    -232.40330
                    1719.10477                     128.13427                    -190.78970
                    1560.21363                      93.27676                    -125.61066
                    1330.73528                      59.89134                     -69.26781
                    1261.60075                      47.69660                     -44.84743
                    1362.96437                      55.94898                     -44.08264
                    1102.22772                      44.44282                     -33.25116
                    1218.56046                      53.62213                     -40.47974
        </DataArray>
        <DataArray type="Float32" Name="Moment" NumberOfComponents="3" format="ascii">
                       0.00000                       0.00000                       0.00000
                       0.00000                       0.00000                       0.00000
                       0.00000                       0.00000                       0.00000
                       0.00000                       0.00000                       0.00000
                      28.73966                     113.96770                     171.69484
                      58.85444                     242.20056                     365.15354
                      72.77000                     314.16408                     474.08821
                      95.18746                     437.32121                     660.68886
                     119.15359                     594.19634                     898.94105
                     118.82688                     661.18629                    1001.97906
                     109.53499                     708.59655                    1076.01484
                      93.86453                     745.54067                    1134.74266
                      57.45424                     606.00838                     924.68461
                      36.83806                     581.30413                     889.23511
                      19.14141                     550.00574                     843.28824
                       8.42990                     502.50223                     771.56738
                       3.59798                     416.22883                     639.51477
                       1.27467                     211.06560                     324.35930
                       1.59509                     226.51523                     348.07392
        </DataArray>
        <DataArray type="Float32" Name="TranslationalVelocity" NumberOfComponents="3" format="ascii">
                       0.17651                       1.12953                      -0.70928
                       0.08229                       2.19255                      -1.39469
                      -0.09566                       4.36508                      -2.69082
                      -0.26276                       6.55742                      -3.94941
                      -0.45553                       9.30692                      -5.49757
                      -0.67644                      12.52962                      -7.45901
                      -0.87745                      15.68145                      -9.51063
                      -1.03913                      18.82627                     -11.55422
                      -1.14921                      21.96504                     -13.59263
                      -1.19016                      25.10106                     -15.62635
                      -1.15107                      28.23841                     -17.65478
                      -1.00139                      31.37871                     -19.67935
                      -0.71909                      34.52410                     -21.69937
                      -0.28835                      37.67632                     -23.71261
                       0.29391                      40.83660                     -25.71589
                       0.88090                      43.47597                     -27.37697
                       1.40394                      45.58675                     -28.70695
                       1.94340                      47.67242                     -30.07791
                       2.21827                      48.73502                     -30.73175
        </DataArray>
        <DataArray type="Float32" Name="RotationalVelocity" NumberOfComponents="3" format="ascii">
                       0.92276                       0.00956                      -0.11333
                       0.92224                       0.00898                      -0.11285
                       0.92105                       0.00730                      -0.11152
                       0.91967                       0.00502                      -0.10976
                       0.91766                       0.00130                      -0.10694
                       0.91498                      -0.00415                      -0.10284
                       0.91226                      -0.01085                      -0.09791
                       0.90989                      -0.01950                      -0.09174
                       0.90818                      -0.03100                      -0.08380
                       0.90727                      -0.04622                      -0.07353
                       0.90726                      -0.06626                      -0.06021
                       0.90791                      -0.09069                      -0.04409
                       0.90898                      -0.11871                      -0.02567
                       0.91024                      -0.14849                      -0.00610
                       0.91144                      -0.17700                       0.01263
                       0.91219                      -0.19627                       0.02531
                       0.91256                      -0.20619                       0.03184
                       0.91276                      -0.21114                       0.03509
                       0.91280                      -0.21149                       0.03532
        </DataArray>
        <DataArray type="Float32" Name="TranslationalAcceleration" NumberOfComponents="3" format="ascii">
                       0.55305                       0.70059                       0.88647
                       0.71008                       1.31624                       1.87795
                       1.02404                       2.46308                       3.90767
                       1.31201                       3.52976                       5.97802
                       1.60827                       4.75666                       8.61807
                       1.84221                       6.19785                      11.80295
                       1.90578                       7.57058                      15.04225
                       1.73246                       8.76703                      18.40091
                       1.20255                       9.77849                      21.89991
                       0.14658                      10.59314                      25.56334
                      -1.55477                      11.21806                      29.39352
                      -4.18775                      11.62169                      33.41851
                      -7.97153                      11.79233                      37.63392
                     -13.06876                      11.72233                      42.01765
                     -19.52526                      11.41422                      46.53015
                     -25.82788                      11.00048                      50.35607
                     -31.36606                      10.59884                      53.44364
                     -37.09427                      10.22683                      56.54841
                     -39.98360                       9.99896                      58.10367
        </DataArray>
        <DataArray type="Float32" Name="OrientationX" NumberOfComponents="3" format="ascii">
                       0.94523                       0.16924                      -0.27909
                       0.94532                       0.16954                      -0.27863
                       0.94554                       0.17041                      -0.27732
                       0.94585                       0.17159                      -0.27553
                       0.94636                       0.17356                      -0.27256
                       0.95592                       0.15024                      -0.25226
                       0.96255                       0.13477                      -0.23524
                       0.96815                       0.12240                      -0.21842
                       0.97371                       0.10993                      -0.19950
                       0.97905                       0.09793                      -0.17851
                       0.98380                       0.08812                      -0.15609
                       0.98805                       0.07941                      -0.13208
                       0.99148                       0.07294                      -0.10792
                       0.99382                       0.07028                      -0.08594
                       0.99561                       0.06692                      -0.06544
                       0.99675                       0.06236                      -0.05104
                       0.99743                       0.05741                      -0.04278
                       0.99776                       0.05425                      -0.03917
                       0.99776                       0.05396                      -0.03963
        </DataArray>
        <DataArray type="Float32" Name="OrientationY" NumberOfComponents="3" format="ascii">
                       0.29228                      -0.81946                       0.49300
                       0.29226                      -0.81956                       0.49285
                       0.29219                      -0.81981                       0.49248
                       0.29211                      -0.82011                       0.49202
                       0.29200                      -0.82057                       0.49133
                       0.26149                      -0.82635                       0.49877
                       0.23927                      -0.83028                       0.50337
                       0.21974                      -0.83351                       0.50692
                       0.19902                      -0.83661                       0.51037
                       0.17761                      -0.83947                       0.51355
                       0.15731                      -0.84192                       0.51616
                       0.13713                      -0.84411                       0.51834
                       0.11882                      -0.84595                       0.51986
                       0.10495                      -0.84732                       0.52061
                       0.09129                      -0.84856                       0.52116
                       0.07985                      -0.84949                       0.52153
                       0.07131                      -0.85009                       0.52178
                       0.06673                      -0.85039                       0.52190
                       0.06672                      -0.85039                       0.52191
        </DataArray>
        <DataArray type="Float32" Name="OrientationZ" NumberOfComponents="3" format="ascii">
                      -0.14527                      -0.54757                      -0.82405
                      -0.14479                      -0.54733                      -0.82430
                      -0.14342                      -0.54669                      -0.82496
                      -0.14154                      -0.54586                      -0.82583
                      -0.13838                      -0.54456                      -0.82723
                      -0.13352                      -0.54275                      -0.82921
                      -0.12748                      -0.54080                      -0.83143
                      -0.12001                      -0.53877                      -0.83386
                      -0.11080                      -0.53666                      -0.83649
                      -0.09956                      -0.53450                      -0.83928
                      -0.08593                      -0.53236                      -0.84215
                      -0.07033                      -0.53026                      -0.84492
                      -0.05338                      -0.52825                      -0.84741
                      -0.03623                      -0.52641                      -0.84946
                      -0.02065                      -0.52485                      -0.85095
                      -0.01083                      -0.52391                      -0.85170
                      -0.00641                      -0.52349                      -0.85201
                      -0.00499                      -0.52335                      -0.85210
                      -0.00554                      -0.52338                      -0.85208
        </DataArray>
      </PointData>
      <Lines>
        <DataArray type="Int32" Name="connectivity" format="ascii">
      0      1
      1      2
      2      3
      3      4
      4      5
      5      6
      6      7
      7      8
      8      9
      9     10
     10     11
     11     12
     12     13
     13     14
     14     15
     15     16
     16     17
     17     18
        </DataArray>
        <DataArray type="Int32" Name="offsets" format="ascii">
      2
      4
      6
      8
     10
     12
     14
     16
     18
     20
     22
     24
     26
     28
     30
     32
     34
     36
        </DataArray>
      </Lines>
    </Piece>
  </PolyData>
</VTKFile>
