<?xml version="1.0"?>
<VTKFile type="PolyData" version="0.1" byte_order="LittleEndian">
  <PolyData>
    <Piece NumberOfPoints="     19" NumberOfVerts="  0" NumberOfLines="     18"
           NumberOfStrips="  0" NumberOfPolys="      0">
      <Points>
        <DataArray type="Float32" NumberOfComponents="3" format="ascii">
                       3.08023                       1.46342                      90.37027
                       3.04693                       2.81253                      90.58630
                       2.97088                       5.49551                      91.11347
                       2.89383                       8.17170                      91.68473
                       2.80280                      11.51357                      92.42393
                       2.74295                      15.54847                      93.16126
                       2.71072                      19.60468                      93.76408
                       2.70022                      23.66199                      94.36007
                       2.71974                      27.72055                      94.94695
                       2.77652                      31.77977                      95.52631
                       2.87325                      35.83866                      96.10191
                       3.02384                      39.89679                      96.67073
                       3.23577                      43.95320                      97.23163
                       3.51319                      48.00682                      97.78365
                       3.85675                      52.05659                      98.32629
                       4.18581                      55.42839                      98.77204
                       4.46954                      58.12520                      99.11745
                       4.75195                      60.82972                      99.40792
                       4.89793                      62.17574                      99.59408
        </DataArray>
      </Points>
      <PointData>
        <DataArray type="Float32" Name="Force" NumberOfComponents="3" format="ascii">
                      -0.03298                       0.04072                      -0.26346
                      62.29865                       5.01644                     -22.19644
                      72.56235                       9.93090                     -52.45689
                      61.43802                      12.16782                     -69.09293
                     677.89322                     -14.77484                     173.30236
                     954.95320                     -24.06005                     238.79886
                    1079.48105                     -20.48665                     190.69506
                    1357.09826                     -23.46895                     168.37347
                    1442.57805                     -25.85990                     109.25816
                    1642.56690                     -37.09688                      66.52297
                    2011.42080                     -60.25807                      13.99355
                    2292.34981                     -92.83108                     -45.22988
                    2727.70155                    -148.61217                     -92.41169
                    3017.92557                    -207.36183                    -150.51593
                    3333.93142                    -273.92356                    -210.42494
                    3581.24850                    -325.65757                    -255.95263
                    3657.47098                    -347.78581                    -276.78197
                    2865.40133                    -279.74572                    -203.60962
                    1363.31984                    -116.86598                    -209.42228
        </DataArray>
        <DataArray type="Float32" Name="Moment" NumberOfComponents="3" format="ascii">
                       0.00000                       0.00000                       0.00000
                       0.00000                       0.00000                       0.00000
                       0.00000                       0.00000                       0.00000
                       0.00000                       0.00000                       0.00000
                       3.31840                    -181.33296                     -28.43979
                       4.60099                    -331.33664                     -51.78293
                       4.20836                    -494.44179                     -76.94118
                       1.37801                    -721.23535                    -111.63715
                      -6.36850                   -1013.99350                    -155.91241
                     -19.19055                   -1169.52638                    -178.34465
                     -37.24518                   -1288.40651                    -194.45737
                     -60.91463                   -1402.33207                    -209.10160
                     -73.46848                   -1235.46447                    -181.74141
                     -95.56204                   -1258.32513                    -182.50909
                    -113.06765                   -1239.82744                    -177.45922
                    -120.57632                   -1192.93437                    -169.27221
                    -112.74333                   -1065.80195                    -150.60472
                     -57.63722                    -535.39759                     -75.52980
                     -48.44563                    -451.08942                     -63.65071
        </DataArray>
        <DataArray type="Float32" Name="TranslationalVelocity" NumberOfComponents="3" format="ascii">
                       0.49529                      -0.22145                       1.41248
                       0.65092                      -0.41492                       2.64469
                       0.96130                      -0.88863                       5.09891
                       1.27020                      -1.40576                       7.55863
                       1.65393                      -2.08206                      10.65088
                       2.11192                      -2.76895                      14.41773
                       2.56721                      -3.34031                      18.24614
                       3.01912                      -3.91378                      22.11868
                       3.46594                      -4.48752                      26.03475
                       3.90438                      -5.06318                      29.99190
                       4.33144                      -5.64341                      33.98307
                       4.74058                      -6.22639                      38.00927
                       5.12598                      -6.81046                      42.06683
                       5.48269                      -7.39349                      46.15165
                       5.80820                      -7.97323                      50.25878
                       6.05726                      -8.45278                      53.69420
                       6.24384                      -8.82593                      56.44974
                       6.42419                      -9.14228                      59.21612
                       6.51352                      -9.34252                      60.59315
        </DataArray>
        <DataArray type="Float32" Name="RotationalVelocity" NumberOfComponents="3" format="ascii">
                       0.91146                       0.01260                      -0.11350
                       0.91304                       0.01262                      -0.11334
                       0.91692                       0.01265                      -0.11292
                       0.92168                       0.01268                      -0.11239
                       0.92891                       0.01274                      -0.11161
                       0.93876                       0.01284                      -0.11071
                       0.94919                       0.01297                      -0.10989
                       0.95967                       0.01307                      -0.10889
                       0.96985                       0.01309                      -0.10736
                       0.97953                       0.01295                      -0.10496
                       0.98854                       0.01259                      -0.10127
                       0.99690                       0.01201                      -0.09626
                       1.00454                       0.01122                      -0.09004
                       1.01132                       0.01027                      -0.08298
                       1.01697                       0.00928                      -0.07581
                       1.02043                       0.00855                      -0.07060
                       1.02212                       0.00812                      -0.06760
                       1.02291                       0.00784                      -0.06571
                       1.02294                       0.00776                      -0.06524
        </DataArray>
        <DataArray type="Float32" Name="TranslationalAcceleration" NumberOfComponents="3" format="ascii">
                      -0.22313                      -1.23224                      -0.35740
                      -0.23295                      -2.36413                      -0.60398
                      -0.27226                      -4.61817                      -1.17351
                      -0.34254                      -6.88919                      -1.77506
                      -0.48462                      -9.76865                      -2.54221
                      -0.72996                     -13.32039                      -3.32645
                      -1.08230                     -16.97883                      -3.97242
                      -1.56448                     -20.72414                      -4.58431
                      -2.16527                     -24.55313                      -5.15718
                      -2.85484                     -28.45915                      -5.69074
                      -3.58605                     -32.42763                      -6.19148
                      -4.30787                     -36.45903                      -6.65629
                      -4.95363                     -40.54794                      -7.08968
                      -5.45819                     -44.69165                      -7.49887
                      -5.76967                     -48.88857                      -7.89306
                      -5.86812                     -52.42352                      -8.21723
                      -5.83854                     -55.27432                      -8.47027
                      -5.72538                     -58.14315                      -8.67212
                      -5.66031                     -59.57423                      -8.81743
        </DataArray>
        <DataArray type="Float32" Name="OrientationX" NumberOfComponents="3" format="ascii">
                       0.99375                       0.00712                       0.11141
                       0.99376                       0.00670                       0.11134
                       0.99379                       0.00549                       0.11115
                       0.99383                       0.00383                       0.11089
                       0.99388                       0.00107                       0.11046
                       0.99692                       0.00185                       0.07844
                       0.99849                       0.00025                       0.05496
                       0.99941                      -0.00305                       0.03415
                       0.99990                      -0.00781                       0.01196
                       0.99983                      -0.01445                      -0.01113
                       0.99916                      -0.02364                      -0.03339
                       0.99784                      -0.03488                      -0.05575
                       0.99593                      -0.04787                      -0.07639
                       0.99377                      -0.06195                      -0.09260
                       0.99129                      -0.07483                      -0.10836
                       0.98918                      -0.08276                      -0.12109
                       0.98775                      -0.08607                      -0.13018
                       0.98701                      -0.08721                      -0.13496
                       0.98703                      -0.08696                      -0.13492
        </DataArray>
        <DataArray type="Float32" Name="OrientationY" NumberOfComponents="3" format="ascii">
                       0.10891                       0.15745                      -0.98150
                       0.10891                       0.15723                      -0.98154
                       0.10893                       0.15672                      -0.98162
                       0.10894                       0.15608                      -0.98172
                       0.10896                       0.15511                      -0.98187
                       0.07722                       0.15374                      -0.98509
                       0.05428                       0.15232                      -0.98684
                       0.03422                       0.15095                      -0.98795
                       0.01299                       0.14970                      -0.98865
                      -0.00886                       0.14865                      -0.98885
                      -0.02954                       0.14784                      -0.98857
                      -0.05004                       0.14735                      -0.98782
                      -0.06861                       0.14716                      -0.98673
                      -0.08267                       0.14712                      -0.98566
                      -0.09647                       0.14742                      -0.98436
                      -0.10797                       0.14797                      -0.98308
                      -0.11649                       0.14855                      -0.98202
                      -0.12104                       0.14889                      -0.98142
                      -0.12104                       0.14889                      -0.98142
        </DataArray>
        <DataArray type="Float32" Name="OrientationZ" NumberOfComponents="3" format="ascii">
                      -0.02453                       0.98750                       0.15569
                      -0.02408                       0.98754                       0.15552
                      -0.02280                       0.98763                       0.15515
                      -0.02106                       0.98774                       0.15470
                      -0.01819                       0.98790                       0.15404
                      -0.01388                       0.98811                       0.15312
                      -0.00862                       0.98833                       0.15208
                      -0.00214                       0.98854                       0.15096
                       0.00593                       0.98870                       0.14979
                       0.01594                       0.98878                       0.14850
                       0.02830                       0.98873                       0.14702
                       0.04267                       0.98847                       0.14528
                       0.05848                       0.98795                       0.14327
                       0.07469                       0.98718                       0.14108
                       0.08964                       0.98624                       0.13892
                       0.09928                       0.98552                       0.13744
                       0.10387                       0.98515                       0.13670
                       0.10568                       0.98500                       0.13640
                       0.10543                       0.98502                       0.13643
        </DataArray>
      </PointData>
      <Lines>
        <DataArray type="Int32" Name="connectivity" format="ascii">
      0      1
      1      2
      2      3
      3      4
      4      5
      5      6
      6      7
      7      8
      8      9
      9     10
     10     11
     11     12
     12     13
     13     14
     14     15
     15     16
     16     17
     17     18
        </DataArray>
        <DataArray type="Int32" Name="offsets" format="ascii">
      2
      4
      6
      8
     10
     12
     14
     16
     18
     20
     22
     24
     26
     28
     30
     32
     34
     36
        </DataArray>
      </Lines>
    </Piece>
  </PolyData>
</VTKFile>
