<?xml version="1.0"?>
<VTKFile type="PolyData" version="0.1" byte_order="LittleEndian">
  <PolyData>
    <Piece NumberOfPoints="     17" NumberOfVerts="  0" NumberOfLines="      0"
           NumberOfStrips="  0" NumberOfPolys="      0">
      <Points>
        <DataArray type="Float32" NumberOfComponents="3" format="ascii">
                      -4.85567                       0.00000                      93.30568
                      -4.69787                       0.00000                      96.91988
                      -4.54007                       0.00000                     100.53409
                      -4.38227                       0.00000                     104.14829
                      -4.22447                       0.00000                     107.76249
                      -4.06667                       0.00000                     111.37670
                      -3.90887                       0.00000                     114.99090
                      -3.75108                       0.00000                     118.60510
                      -3.59328                       0.00000                     122.21931
                      -3.43548                       0.00000                     125.83351
                      -3.27768                       0.00000                     129.44772
                      -3.11988                       0.00000                     133.06192
                      -2.96208                       0.00000                     136.67612
                      -2.80428                       0.00000                     140.29033
                      -2.64648                       0.00000                     143.90453
                      -2.48868                       0.00000                     147.51874
                      -2.33088                       0.00000                     151.13294
        </DataArray>
      </Points>
      <PointData>
        <DataArray type="Float32" Name="RefOrientationX" NumberOfComponents="3" format="ascii">
                       0.97222                      -0.23019                      -0.04245
                       0.97222                      -0.23019                      -0.04245
                       0.97222                      -0.23019                      -0.04245
                       0.97520                      -0.21721                      -0.04258
                       0.98145                      -0.18686                      -0.04285
                       0.98460                      -0.16947                      -0.04299
                       0.98747                      -0.15180                      -0.04311
                       0.99016                      -0.13307                      -0.04323
                       0.99253                      -0.11405                      -0.04333
                       0.99445                      -0.09581                      -0.04342
                       0.99602                      -0.07780                      -0.04349
                       0.99720                      -0.06073                      -0.04354
                       0.99795                      -0.04698                      -0.04357
                       0.99844                      -0.03478                      -0.04359
                       0.99879                      -0.02255                      -0.04361
                       0.99899                      -0.01043                      -0.04362
                       0.99905                      -0.00246                      -0.04362
        </DataArray>
        <DataArray type="Float32" Name="RefOrientationY" NumberOfComponents="3" format="ascii">
                       0.22997                       0.97315                      -0.01004
                       0.22997                       0.97315                      -0.01004
                       0.22997                       0.97315                      -0.01004
                       0.21700                       0.97612                      -0.00947
                       0.18668                       0.98239                      -0.00815
                       0.16931                       0.98554                      -0.00739
                       0.15166                       0.98841                      -0.00662
                       0.13295                       0.99111                      -0.00580
                       0.11395                       0.99347                      -0.00497
                       0.09572                       0.99540                      -0.00418
                       0.07773                       0.99697                      -0.00339
                       0.06068                       0.99815                      -0.00265
                       0.04693                       0.99890                      -0.00205
                       0.03474                       0.99940                      -0.00152
                       0.02253                       0.99975                      -0.00098
                       0.01042                       0.99995                      -0.00045
                       0.00245                       1.00000                      -0.00011
        </DataArray>
        <DataArray type="Float32" Name="RefOrientationZ" NumberOfComponents="3" format="ascii">
                       0.04362                       0.00000                       0.99905
                       0.04362                       0.00000                       0.99905
                       0.04362                       0.00000                       0.99905
                       0.04362                       0.00000                       0.99905
                       0.04362                       0.00000                       0.99905
                       0.04362                       0.00000                       0.99905
                       0.04362                       0.00000                       0.99905
                       0.04362                       0.00000                       0.99905
                       0.04362                       0.00000                       0.99905
                       0.04362                       0.00000                       0.99905
                       0.04362                       0.00000                       0.99905
                       0.04362                       0.00000                       0.99905
                       0.04362                       0.00000                       0.99905
                       0.04362                       0.00000                       0.99905
                       0.04362                       0.00000                       0.99905
                       0.04362                       0.00000                       0.99905
                       0.04362                       0.00000                       0.99905
        </DataArray>
      </PointData>
    </Piece>
  </PolyData>
</VTKFile>
