<?xml version="1.0"?>
<VTKFile type="PolyData" version="0.1" byte_order="LittleEndian">
  <PolyData>
    <Piece NumberOfPoints="     19" NumberOfVerts="  0" NumberOfLines="     18"
           NumberOfStrips="  0" NumberOfPolys="      0">
      <Points>
        <DataArray type="Float32" NumberOfComponents="3" format="ascii">
                       2.51273                      -1.33816                      89.40760
                       2.37644                      -2.52809                      88.74930
                       2.07327                      -4.86059                      87.35313
                       1.75875                      -7.17004                      85.91760
                       1.36425                     -10.04215                      84.09700
                       0.97098                     -13.55809                      82.02271
                       0.63327                     -17.13581                      80.04949
                       0.31702                     -20.71183                      78.06960
                       0.03075                     -24.28688                      76.08330
                      -0.21921                     -27.85975                      74.08812
                      -0.43137                     -31.42872                      72.08157
                      -0.59245                     -34.99383                      70.06335
                      -0.69578                     -38.55469                      68.03378
                      -0.73788                     -42.11095                      65.99390
                      -0.71846                     -45.66240                      63.94516
                      -0.66286                     -48.61873                      62.23293
                      -0.59812                     -50.98609                      60.86783
                      -0.52374                     -53.38079                      59.54945
                      -0.49121                     -54.55712                      58.85454
        </DataArray>
      </Points>
      <PointData>
        <DataArray type="Float32" Name="Force" NumberOfComponents="3" format="ascii">
                       0.54289                      -2.65006                       4.70846
                      78.37546                     -19.78999                      19.83562
                     106.26905                     -41.46837                      53.76899
                      98.51890                     -49.78349                      70.78084
                     781.39288                     138.81288                    -403.88327
                    1022.87235                     156.63780                    -473.68250
                    1194.35008                     151.85470                    -483.17151
                    1541.21651                     170.31744                    -555.51276
                    1683.44822                     163.22929                    -536.63996
                    1954.15723                     178.09403                    -561.51071
                    2424.58095                     215.54183                    -625.39865
                    2799.36612                     255.83828                    -653.37300
                    3281.27905                     327.08316                    -711.10165
                    3617.97034                     387.75388                    -716.95930
                    3919.47994                     446.73345                    -710.20904
                    4096.93886                     477.29910                    -685.14294
                    4013.23395                     460.65804                    -624.96072
                    2911.45801                     323.82014                    -426.41545
                    1301.02720                      83.87161                     -84.13379
        </DataArray>
        <DataArray type="Float32" Name="Moment" NumberOfComponents="3" format="ascii">
                       0.00000                       0.00000                       0.00000
                       0.00000                       0.00000                       0.00000
                       0.00000                       0.00000                       0.00000
                       0.00000                       0.00000                       0.00000
                      21.60945                     202.15784                     111.28854
                      40.97709                     401.51600                     221.25983
                      50.81972                     529.01027                     291.88234
                      65.23010                     735.64117                     406.51852
                      78.31332                     984.69265                     545.18323
                      75.73828                    1108.51049                     615.16832
                      63.07779                    1154.16225                     642.32220
                      47.38185                    1217.25152                     679.64040
                      24.04598                    1105.65553                     619.52169
                       4.70778                    1104.66468                     621.19374
                     -12.55155                    1068.40716                     602.77701
                     -22.29439                    1015.47429                     574.10826
                     -24.15131                     905.91257                     512.65793
                     -12.92689                     456.58563                     258.46981
                     -10.71333                     384.52224                     217.65527
        </DataArray>
        <DataArray type="Float32" Name="TranslationalVelocity" NumberOfComponents="3" format="ascii">
                      -0.44690                       0.64820                      -1.23259
                      -0.57071                       1.27700                      -2.34355
                      -0.81288                       2.61198                      -4.52125
                      -1.05300                       3.98446                      -6.67678
                      -1.35283                       5.72385                      -9.35604
                      -1.72355                       7.69824                     -12.63288
                      -2.10540                       9.57103                     -15.96380
                      -2.49145                      11.44628                     -19.28974
                      -2.88211                      13.32278                     -22.61142
                      -3.27720                      15.20216                     -25.92793
                      -3.67577                      17.08675                     -29.23825
                      -4.07765                      18.97526                     -32.54249
                      -4.48186                      20.86670                     -35.84071
                      -4.88716                      22.75986                     -39.13302
                      -5.29217                      24.65355                     -42.41964
                      -5.62856                      26.23139                     -45.15490
                      -5.89690                      27.48694                     -47.34498
                      -6.16694                      28.69823                     -49.56037
                      -6.29918                      29.33748                     -50.64865
        </DataArray>
        <DataArray type="Float32" Name="RotationalVelocity" NumberOfComponents="3" format="ascii">
                       0.93297                      -0.00681                      -0.10772
                       0.93286                      -0.00676                      -0.10778
                       0.93258                      -0.00663                      -0.10796
                       0.93222                      -0.00645                      -0.10821
                       0.93166                      -0.00615                      -0.10864
                       0.93088                      -0.00569                      -0.10932
                       0.93004                      -0.00513                      -0.11015
                       0.92920                      -0.00453                      -0.11108
                       0.92838                      -0.00390                      -0.11205
                       0.92763                      -0.00330                      -0.11299
                       0.92698                      -0.00277                      -0.11382
                       0.92642                      -0.00235                      -0.11447
                       0.92597                      -0.00206                      -0.11491
                       0.92562                      -0.00192                      -0.11508
                       0.92538                      -0.00195                      -0.11498
                       0.92527                      -0.00211                      -0.11467
                       0.92525                      -0.00231                      -0.11431
                       0.92528                      -0.00256                      -0.11386
                       0.92531                      -0.00270                      -0.11361
        </DataArray>
        <DataArray type="Float32" Name="TranslationalAcceleration" NumberOfComponents="3" format="ascii">
                       1.29216                       1.24076                       0.75516
                       1.35884                       2.29483                       1.33480
                       1.49818                       4.36349                       2.56428
                       1.64340                       6.41788                       3.81807
                       1.83445                       8.98398                       5.38721
                       2.07211                      12.13887                       7.12624
                       2.32618                      15.36277                       8.72290
                       2.60755                      18.60266                      10.27555
                       2.91578                      21.85913                      11.78443
                       3.24613                      25.13077                      13.25472
                       3.58899                      28.41391                      14.69692
                       3.93381                      31.70937                      16.11129
                       4.26536                      35.01525                      17.50252
                       4.56779                      38.32879                      18.87475
                       4.82739                      41.64644                      20.23183
                       5.00619                      44.41172                      21.35424
                       5.12245                      46.62570                      22.24212
                       5.21409                      48.85708                      23.08557
                       5.25940                      49.95830                      23.54103
        </DataArray>
        <DataArray type="Float32" Name="OrientationX" NumberOfComponents="3" format="ascii">
                       0.94043                       0.07520                      -0.33158
                       0.94047                       0.07560                      -0.33136
                       0.94060                       0.07674                      -0.33073
                       0.94077                       0.07830                      -0.32987
                       0.94105                       0.08088                      -0.32844
                       0.95135                       0.06927                      -0.30021
                       0.95836                       0.06280                      -0.27858
                       0.96419                       0.05877                      -0.25863
                       0.96995                       0.05545                      -0.23688
                       0.97546                       0.05335                      -0.21362
                       0.98028                       0.05365                      -0.19019
                       0.98457                       0.05553                      -0.16593
                       0.98800                       0.05941                      -0.14260
                       0.99024                       0.06569                      -0.12292
                       0.99204                       0.07090                      -0.10406
                       0.99331                       0.07282                      -0.08967
                       0.99417                       0.07204                      -0.08023
                       0.99461                       0.07097                      -0.07555
                       0.99462                       0.07063                      -0.07575
        </DataArray>
        <DataArray type="Float32" Name="OrientationY" NumberOfComponents="3" format="ascii">
                       0.32518                      -0.48370                       0.81258
                       0.32517                      -0.48378                       0.81254
                       0.32515                      -0.48399                       0.81242
                       0.32512                      -0.48425                       0.81228
                       0.32508                      -0.48463                       0.81207
                       0.29483                      -0.48754                       0.82181
                       0.27282                      -0.48961                       0.82816
                       0.25346                      -0.49138                       0.83325
                       0.23290                      -0.49313                       0.83820
                       0.21164                      -0.49483                       0.84283
                       0.19145                      -0.49638                       0.84673
                       0.17136                      -0.49790                       0.85013
                       0.15311                      -0.49934                       0.85277
                       0.13927                      -0.50054                       0.85444
                       0.12563                      -0.50174                       0.85585
                       0.11421                      -0.50273                       0.85686
                       0.10569                      -0.50345                       0.85754
                       0.10111                      -0.50381                       0.85787
                       0.10111                      -0.50381                       0.85787
        </DataArray>
        <DataArray type="Float32" Name="OrientationZ" NumberOfComponents="3" format="ascii">
                      -0.09928                      -0.87200                      -0.47934
                      -0.09888                      -0.87192                      -0.47957
                      -0.09773                      -0.87170                      -0.48020
                      -0.09614                      -0.87142                      -0.48102
                      -0.09349                      -0.87097                      -0.48235
                      -0.08943                      -0.87035                      -0.48425
                      -0.08439                      -0.86968                      -0.48636
                      -0.07812                      -0.86896                      -0.48868
                      -0.07033                      -0.86819                      -0.49123
                      -0.06074                      -0.86735                      -0.49398
                      -0.04898                      -0.86645                      -0.49686
                      -0.03541                      -0.86545                      -0.49974
                      -0.02054                      -0.86437                      -0.50244
                      -0.00540                      -0.86322                      -0.50480
                       0.00847                      -0.86211                      -0.50666
                       0.01731                      -0.86137                      -0.50769
                       0.02139                      -0.86102                      -0.50812
                       0.02282                      -0.86089                      -0.50828
                       0.02243                      -0.86092                      -0.50825
        </DataArray>
      </PointData>
      <Lines>
        <DataArray type="Int32" Name="connectivity" format="ascii">
      0      1
      1      2
      2      3
      3      4
      4      5
      5      6
      6      7
      7      8
      8      9
      9     10
     10     11
     11     12
     12     13
     13     14
     14     15
     15     16
     16     17
     17     18
        </DataArray>
        <DataArray type="Int32" Name="offsets" format="ascii">
      2
      4
      6
      8
     10
     12
     14
     16
     18
     20
     22
     24
     26
     28
     30
     32
     34
     36
        </DataArray>
      </Lines>
    </Piece>
  </PolyData>
</VTKFile>
