<?xml version="1.0"?>
<VTKFile type="PolyData" version="0.1" byte_order="LittleEndian">
  <PolyData>
    <Piece NumberOfPoints="     17" NumberOfVerts="  0" NumberOfLines="      0"
           NumberOfStrips="  0" NumberOfPolys="      0">
      <Points>
        <DataArray type="Float32" NumberOfComponents="3" format="ascii">
                       3.01934                       3.26071                      90.57516
                       2.92569                       6.84522                      91.05459
                       2.84037                      10.43030                      91.53134
                       2.76651                      14.01606                      92.00482
                       2.70666                      17.60258                      92.47454
                       2.66354                      21.18987                      92.94013
                       2.64060                      24.77790                      93.40134
                       2.64224                      28.36658                      93.85805
                       2.67383                      31.95570                      94.31002
                       2.74144                      35.54496                      94.75686
                       2.85129                      39.13386                      95.19800
                       3.00901                      42.72175                      95.63272
                       3.21861                      46.30785                      96.06031
                       3.48122                      49.89137                      96.48032
                       3.79353                      53.47182                      96.89291
                       4.14608                      57.04933                      97.29918
                       4.52119                      60.62502                      97.70175
        </DataArray>
      </Points>
      <PointData>
        <DataArray type="Float32" Name="Force" NumberOfComponents="3" format="ascii">
                     146.93812                      12.98354                     -67.37993
                     475.07740                      43.10086                    -237.25177
                    1940.04765                     -16.58201                     423.85824
                    3427.94972                     -54.23792                     852.89236
                    2091.84549                     -30.27227                     445.36668
                    4437.84310                     -54.86129                     729.54331
                    5241.92260                     -64.57297                     609.60078
                    5678.96601                     -83.36400                     415.32924
                    6000.71709                    -119.13026                     236.02210
                    7503.83943                    -204.37699                      68.59037
                    8569.16949                    -320.65274                    -141.45698
                    9894.27098                    -497.66969                    -330.55011
                    5716.70459                    -346.13376                    -257.59895
                   11508.31242                    -816.99282                    -654.70906
                   11354.38459                    -937.61235                    -785.36258
                   16948.89679                   -1560.67700                   -1322.47644
                    7602.00440                    -725.15237                    -648.55911
        </DataArray>
        <DataArray type="Float32" Name="Moment" NumberOfComponents="3" format="ascii">
                     -19.04725                       5.50880                     -14.81771
                      63.37229                     105.33034                    -328.95357
                     547.95301                     635.61836                   -1954.87917
                     652.56087                    1138.61249                   -2658.52811
                      14.77150                     378.06243                    -168.43415
                    -469.32780                      49.17820                    2183.00541
                    -289.17318                    -428.69739                    1419.23083
                    -141.03782                   -1141.56154                       7.00048
                    -107.85820                   -1365.56416                    -738.04197
                    -141.52837                   -1488.11512                   -1536.07111
                    -195.83501                   -1351.20436                   -3630.27941
                    -288.13740                    -421.20262                   -6468.67327
                     -34.96931                    -557.51491                     289.85620
                     229.01225                   -1891.76822                    7453.74321
                     305.37372                   -1691.47677                    7041.12837
                     -95.77122                    -961.86643                     319.88495
                    -148.90927                    -264.92363                    -491.41374
        </DataArray>
      </PointData>
    </Piece>
  </PolyData>
</VTKFile>
