<?xml version="1.0"?>
<VTKFile type="PolyData" version="0.1" byte_order="LittleEndian">
  <PolyData>
    <Piece NumberOfPoints="     19" NumberOfVerts="  0" NumberOfLines="     18"
           NumberOfStrips="  0" NumberOfPolys="      0">
      <Points>
        <DataArray type="Float32" NumberOfComponents="3" format="ascii">
                       3.10296                       0.82778                      91.37855
                       3.18214                       1.60414                      92.50054
                       3.32607                       3.07866                      94.79990
                       3.46687                       4.51654                      97.12516
                       3.64724                       6.29238                     100.04683
                       3.92163                       8.54268                     103.46549
                       4.23174                      10.90083                     106.80598
                       4.56495                      13.26151                     110.14243
                       4.92942                      15.62580                     113.47302
                       5.33171                      17.99158                     116.79812
                       5.77360                      20.35543                     120.11945
                       6.26812                      22.71805                     123.43417
                       6.82165                      25.07907                     126.74061
                       7.43732                      27.43822                     130.03732
                       8.11506                      29.79529                     133.32330
                       8.71946                      31.75816                     136.05417
                       9.22192                      33.33426                     138.23039
                       9.72475                      34.95545                     140.37453
                       9.97858                      35.73180                     141.47024
        </DataArray>
      </Points>
      <PointData>
        <DataArray type="Float32" Name="Force" NumberOfComponents="3" format="ascii">
                      -0.03951                       0.46101                      -0.31789
                      80.73497                      17.68768                     -18.05340
                      95.45845                      45.25807                     -38.44756
                      81.50643                      60.20035                     -48.02439
                     823.06718                    -243.50613                     104.61097
                    1116.55105                    -328.63505                     134.59299
                    1272.05668                    -306.60641                      97.54765
                    1606.57218                    -330.84375                      70.68899
                    1744.62582                    -308.68317                      23.87539
                    1986.01004                    -312.67924                     -24.29922
                    2400.47522                    -338.88354                     -92.65955
                    2699.80037                    -350.97870                    -171.95537
                    3103.50464                    -393.83066                    -263.09038
                    3342.47925                    -406.82068                    -360.13936
                    3538.06111                    -411.88596                    -457.32701
                    3623.46514                    -396.61443                    -527.45816
                    3485.83406                    -352.65489                    -546.28440
                    2526.52885                    -240.58694                    -411.32962
                    1332.83192                     -49.51917                    -271.23539
        </DataArray>
        <DataArray type="Float32" Name="Moment" NumberOfComponents="3" format="ascii">
                       0.00000                       0.00000                       0.00000
                       0.00000                       0.00000                       0.00000
                       0.00000                       0.00000                       0.00000
                       0.00000                       0.00000                       0.00000
                     -17.54685                    -154.84165                    -222.37298
                     -29.17171                    -240.42441                    -345.04161
                     -43.64299                    -332.97087                    -477.45533
                     -65.73140                    -459.97018                    -658.88640
                     -95.73407                    -608.39535                    -870.40588
                    -120.41722                    -688.41868                    -983.38908
                    -142.04674                    -723.94810                   -1032.22599
                    -170.31886                    -771.99334                   -1098.38793
                    -172.86647                    -699.20893                    -992.51811
                    -192.35305                    -701.26564                    -993.07871
                    -204.48863                    -683.76035                    -966.18385
                    -205.31271                    -652.06690                    -920.11905
                    -186.43098                    -578.68326                    -816.04377
                     -94.45704                    -290.85711                    -410.06534
                     -83.35531                    -257.20634                    -362.64432
        </DataArray>
        <DataArray type="Float32" Name="TranslationalVelocity" NumberOfComponents="3" format="ascii">
                      -0.52906                      -1.09152                       0.74758
                      -0.45766                      -2.13742                       1.46625
                      -0.32378                      -4.28072                       2.83213
                      -0.19122                      -6.45412                       4.16746
                      -0.02121                      -9.19733                       5.82261
                       0.21126                     -12.43378                       7.93085
                       0.47654                     -15.62371                      10.15408
                       0.76473                     -18.83537                      12.39382
                       1.07784                     -22.06763                      14.65045
                       1.41592                     -25.32056                      16.92076
                       1.77497                     -28.59266                      19.19904
                       2.15486                     -31.88336                      21.48553
                       2.55129                     -35.19004                      23.77845
                       2.95869                     -38.50957                      26.07639
                       3.37048                     -41.83842                      28.37828
                       3.71219                     -44.61685                      30.29925
                       3.98256                     -46.83654                      31.84426
                       4.25214                     -49.02513                      33.43583
                       4.38112                     -50.14307                      34.19813
        </DataArray>
        <DataArray type="Float32" Name="RotationalVelocity" NumberOfComponents="3" format="ascii">
                       0.92311                      -0.01632                      -0.11487
                       0.92405                      -0.01603                      -0.11514
                       0.92639                      -0.01522                      -0.11587
                       0.92929                      -0.01410                      -0.11686
                       0.93373                      -0.01214                      -0.11854
                       0.93980                      -0.00897                      -0.12116
                       0.94616                      -0.00505                      -0.12434
                       0.95248                      -0.00059                      -0.12789
                       0.95855                       0.00411                      -0.13159
                       0.96418                       0.00876                      -0.13522
                       0.96925                       0.01301                      -0.13853
                       0.97377                       0.01656                      -0.14133
                       0.97772                       0.01917                      -0.14342
                       0.98109                       0.02063                      -0.14468
                       0.98382                       0.02079                      -0.14498
                       0.98548                       0.01985                      -0.14444
                       0.98632                       0.01842                      -0.14350
                       0.98678                       0.01651                      -0.14221
                       0.98686                       0.01539                      -0.14144
        </DataArray>
        <DataArray type="Float32" Name="TranslationalAcceleration" NumberOfComponents="3" format="ascii">
                      -0.72146                      -0.78698                      -1.10505
                      -0.88527                      -1.49850                      -2.04098
                      -1.22225                      -2.85714                      -3.96562
                      -1.57602                      -4.18993                      -5.92586
                      -2.04855                      -5.84618                      -8.41317
                      -2.66136                      -7.95031                     -11.35883
                      -3.33587                     -10.16889                     -14.27698
                      -4.07702                     -12.41353                     -17.23481
                      -4.86439                     -14.68728                     -20.22992
                      -5.65866                     -16.99042                     -23.26219
                      -6.41350                     -19.31852                     -26.33028
                      -7.06182                     -21.67658                     -29.44068
                      -7.53290                     -24.06565                     -32.60049
                      -7.76339                     -26.48678                     -35.81931
                      -7.71203                     -28.94042                     -39.10571
                      -7.45671                     -31.00804                     -41.89580
                      -7.12222                     -32.68157                     -44.15429
                      -6.70448                     -34.40518                     -46.39676
                      -6.48895                     -35.23462                     -47.54445
        </DataArray>
        <DataArray type="Float32" Name="OrientationX" NumberOfComponents="3" format="ascii">
                       0.98530                      -0.16479                       0.04505
                       0.98527                      -0.16505                       0.04468
                       0.98520                      -0.16579                       0.04360
                       0.98509                      -0.16681                       0.04214
                       0.98490                      -0.16851                       0.03971
                       0.98922                      -0.14535                       0.01774
                       0.99153                      -0.12985                       0.00002
                       0.99294                      -0.11737                      -0.01703
                       0.99384                      -0.10481                      -0.03600
                       0.99407                      -0.09274                      -0.05679
                       0.99346                      -0.08284                      -0.07864
                       0.99204                      -0.07408                      -0.10181
                       0.98987                      -0.06759                      -0.12484
                       0.98724                      -0.06490                      -0.14544
                       0.98441                      -0.06162                      -0.16477
                       0.98225                      -0.05726                      -0.17861
                       0.98098                      -0.05257                      -0.18684
                       0.98041                      -0.04963                      -0.19063
                       0.98048                      -0.04941                      -0.19032
        </DataArray>
        <DataArray type="Float32" Name="OrientationY" NumberOfComponents="3" format="ascii">
                       0.16073                       0.80489                      -0.57124
                       0.16072                       0.80480                      -0.57137
                       0.16070                       0.80456                      -0.57171
                       0.16067                       0.80427                      -0.57213
                       0.16062                       0.80383                      -0.57277
                       0.12905                       0.80823                      -0.57455
                       0.10619                       0.81076                      -0.57566
                       0.08617                       0.81261                      -0.57641
                       0.06499                       0.81434                      -0.57674
                       0.04318                       0.81591                      -0.57656
                       0.02255                       0.81718                      -0.57595
                       0.00212                       0.81828                      -0.57481
                      -0.01637                       0.81916                      -0.57333
                      -0.03037                       0.81972                      -0.57196
                      -0.04410                       0.82031                      -0.57022
                      -0.05552                       0.82083                      -0.56847
                      -0.06398                       0.82124                      -0.56699
                      -0.06850                       0.82144                      -0.56616
                      -0.06850                       0.82145                      -0.56616
        </DataArray>
        <DataArray type="Float32" Name="OrientationZ" NumberOfComponents="3" format="ascii">
                       0.05787                       0.57008                       0.81955
                       0.05835                       0.57014                       0.81947
                       0.05971                       0.57026                       0.81929
                       0.06155                       0.57037                       0.81908
                       0.06460                       0.57050                       0.81875
                       0.06917                       0.57065                       0.81828
                       0.07473                       0.57079                       0.81769
                       0.08150                       0.57087                       0.81698
                       0.08976                       0.57084                       0.81614
                       0.09981                       0.57069                       0.81508
                       0.11197                       0.57040                       0.81370
                       0.12589                       0.57002                       0.81193
                       0.14101                       0.56957                       0.80976
                       0.15633                       0.56907                       0.80729
                       0.17029                       0.56860                       0.80480
                       0.17916                       0.56829                       0.80308
                       0.18325                       0.56816                       0.80226
                       0.18469                       0.56812                       0.80195
                       0.18431                       0.56814                       0.80202
        </DataArray>
      </PointData>
      <Lines>
        <DataArray type="Int32" Name="connectivity" format="ascii">
      0      1
      1      2
      2      3
      3      4
      4      5
      5      6
      6      7
      7      8
      8      9
      9     10
     10     11
     11     12
     12     13
     13     14
     14     15
     15     16
     16     17
     17     18
        </DataArray>
        <DataArray type="Int32" Name="offsets" format="ascii">
      2
      4
      6
      8
     10
     12
     14
     16
     18
     20
     22
     24
     26
     28
     30
     32
     34
     36
        </DataArray>
      </Lines>
    </Piece>
  </PolyData>
</VTKFile>
