<?xml version="1.0"?>
<VTKFile type="PolyData" version="0.1" byte_order="LittleEndian">
  <PolyData>
    <Piece NumberOfPoints="     19" NumberOfVerts="  0" NumberOfLines="     18"
           NumberOfStrips="  0" NumberOfPolys="      0">
      <Points>
        <DataArray type="Float32" NumberOfComponents="3" format="ascii">
                       2.64788                       2.88208                      88.52632
                       2.27861                       6.03314                      86.78799
                       1.90935                       9.18421                      85.04966
                       1.54010                      12.33527                      83.31131
                       1.17088                      15.48632                      81.57295
                       0.80167                      18.63737                      79.83458
                       0.43249                      21.78842                      78.09619
                       0.06335                      24.93946                      76.35779
                      -0.30576                      28.09050                      74.61937
                      -0.67482                      31.24154                      72.88095
                      -1.04383                      34.39257                      71.14250
                      -1.41277                      37.54360                      69.40405
                      -1.78165                      40.69464                      67.66558
                      -2.15046                      43.84567                      65.92709
                      -2.51921                      46.99671                      64.18859
                      -2.88790                      50.14774                      62.45008
                      -3.25656                      53.29877                      60.71156
                      -3.44089                      54.87429                      59.84230
                       2.83252                       1.30654                      89.39549
        </DataArray>
      </Points>
      <PointData>
        <DataArray type="Float32" Name="TranslationalVelocity" NumberOfComponents="3" format="ascii">
                       0.33010                       1.52693                       2.69419
                       0.68977                       3.19557                       5.64253
                       1.05125                       4.86368                       8.58951
                       1.41521                       6.53116                      11.53480
                       1.78216                       8.19795                      14.47816
                       2.15265                       9.86402                      17.41947
                       2.52735                      11.52942                      20.35865
                       2.90714                      13.19424                      23.29567
                       3.29312                      14.85858                      26.23050
                       3.68652                      16.52258                      29.16311
                       4.08863                      18.18634                      32.09343
                       4.50061                      19.84997                      35.02140
                       4.92328                      21.51353                      37.94696
                       5.35688                      23.17706                      40.87016
                       5.80076                      24.84060                      43.79117
                       6.25296                      26.50414                      46.71041
                       6.70985                      28.16767                      49.62865
                       6.93890                      28.99943                      51.08763
                       0.15063                       0.69249                       1.21973
        </DataArray>
        <DataArray type="Float32" Name="RotationalVelocity" NumberOfComponents="3" format="ascii">
                       0.93594                      -0.00076                      -0.11349
                       0.93560                      -0.00099                      -0.11382
                       0.93514                      -0.00132                      -0.11434
                       0.93461                      -0.00174                      -0.11498
                       0.93403                      -0.00223                      -0.11574
                       0.93343                      -0.00279                      -0.11664
                       0.93283                      -0.00347                      -0.11773
                       0.93223                      -0.00427                      -0.11906
                       0.93165                      -0.00523                      -0.12068
                       0.93107                      -0.00637                      -0.12262
                       0.93049                      -0.00767                      -0.12486
                       0.92990                      -0.00912                      -0.12736
                       0.92931                      -0.01065                      -0.13001
                       0.92875                      -0.01216                      -0.13262
                       0.92826                      -0.01350                      -0.13495
                       0.92790                      -0.01447                      -0.13663
                       0.92777                      -0.01481                      -0.13721
                       0.92778                      -0.01478                      -0.13716
                       0.93607                      -0.00069                      -0.11338
        </DataArray>
        <DataArray type="Float32" Name="TranslationalAcceleration" NumberOfComponents="3" format="ascii">
                       0.46961                      -2.50280                       1.23381
                       0.87873                      -5.28072                       2.78814
                       1.43395                      -8.09963                       4.23227
                       2.18896                     -10.96736                       5.53952
                       3.18566                     -13.88857                       6.69197
                       4.46448                     -16.86480                       7.67794
                       6.07313                     -19.89370                       8.49170
                       8.07032                     -22.96973                       9.13136
                      10.52520                     -26.08566                       9.59601
                      13.51405                     -29.23370                       9.88432
                      17.11350                     -32.40642                       9.99421
                      21.39040                     -35.59761                       9.92342
                      26.38835                     -38.80244                       9.67197
                      32.11117                     -42.01733                       9.24610
                      38.50280                     -45.23988                       8.66254
                      45.42411                     -48.46861                       7.95400
                      52.62669                     -51.70182                       7.17683
                      56.25957                     -53.31928                       6.77990
                       0.29379                      -1.12286                       0.43313
        </DataArray>
        <DataArray type="Float32" Name="RotationalAcceleration" NumberOfComponents="3" format="ascii">
                       0.01934                      -0.05911                      -0.01958
                      -0.00814                      -0.07703                      -0.04623
                      -0.04470                      -0.10411                      -0.08755
                      -0.08714                      -0.13780                      -0.13960
                      -0.13359                      -0.17702                      -0.20083
                      -0.18209                      -0.22211                      -0.27226
                      -0.23071                      -0.27432                      -0.35659
                      -0.27869                      -0.33512                      -0.45660
                      -0.32588                      -0.40576                      -0.57463
                      -0.37247                      -0.48690                      -0.71181
                      -0.41876                      -0.57803                      -0.86717
                      -0.46484                      -0.67705                      -1.03687
                      -0.50988                      -0.77977                      -1.21351
                      -0.55201                      -0.87945                      -1.38525
                      -0.58832                      -0.96634                      -1.53504
                      -0.61422                      -1.02721                      -1.63988
                      -0.62277                      -1.04493                      -1.67019
                      -0.62168                      -1.04061                      -1.66258
                       0.03032                      -0.05286                      -0.01059
        </DataArray>
        <DataArray type="Float32" Name="OrientationX" NumberOfComponents="3" format="ascii">
                       0.98679                       0.14974                       0.06181
                       0.98679                       0.14974                       0.06181
                       0.98679                       0.14974                       0.06182
                       0.98838                       0.14349                       0.05017
                       0.99140                       0.12886                       0.02302
                       0.99269                       0.12046                       0.00752
                       0.99368                       0.11191                      -0.00817
                       0.99439                       0.10283                      -0.02476
                       0.99474                       0.09359                      -0.04155
                       0.99474                       0.08472                      -0.05761
                       0.99441                       0.07595                      -0.07340
                       0.99379                       0.06761                      -0.08834
                       0.99309                       0.06089                      -0.10034
                       0.99231                       0.05491                      -0.11096
                       0.99138                       0.04893                      -0.12158
                       0.99030                       0.04298                      -0.13210
                       0.98952                       0.03908                      -0.13900
                       0.98927                       0.03787                      -0.14113
                       0.98679                       0.14974                       0.06181
        </DataArray>
        <DataArray type="Float32" Name="OrientationY" NumberOfComponents="3" format="ascii">
                       0.12579                      -0.46786                      -0.87481
                       0.12580                      -0.46786                      -0.87481
                       0.12580                      -0.46786                      -0.87480
                       0.11265                      -0.46982                      -0.87555
                       0.08197                      -0.47404                      -0.87668
                       0.06444                      -0.47625                      -0.87695
                       0.04666                      -0.47833                      -0.87694
                       0.02785                      -0.48037                      -0.87663
                       0.00879                      -0.48225                      -0.87599
                      -0.00947                      -0.48389                      -0.87508
                      -0.02744                      -0.48535                      -0.87389
                      -0.04445                      -0.48658                      -0.87251
                      -0.05814                      -0.48746                      -0.87121
                      -0.07026                      -0.48817                      -0.86991
                      -0.08239                      -0.48881                      -0.86849
                      -0.09440                      -0.48937                      -0.86695
                      -0.10230                      -0.48970                      -0.86587
                      -0.10472                      -0.48979                      -0.86553
                       0.12579                      -0.46785                      -0.87481
        </DataArray>
        <DataArray type="Float32" Name="OrientationZ" NumberOfComponents="3" format="ascii">
                      -0.10208                       0.87103                      -0.48051
                      -0.10207                       0.87103                      -0.48051
                      -0.10207                       0.87103                      -0.48052
                      -0.10207                       0.87102                      -0.48052
                      -0.10206                       0.87102                      -0.48052
                      -0.10205                       0.87102                      -0.48053
                      -0.10205                       0.87102                      -0.48053
                      -0.10204                       0.87102                      -0.48054
                      -0.10202                       0.87102                      -0.48054
                      -0.10201                       0.87102                      -0.48054
                      -0.10199                       0.87102                      -0.48055
                      -0.10198                       0.87102                      -0.48055
                      -0.10196                       0.87102                      -0.48056
                      -0.10194                       0.87102                      -0.48056
                      -0.10192                       0.87102                      -0.48056
                      -0.10191                       0.87102                      -0.48057
                      -0.10190                       0.87102                      -0.48057
                      -0.10191                       0.87102                      -0.48057
                      -0.10208                       0.87103                      -0.48051
        </DataArray>
      </PointData>
      <Lines>
        <DataArray type="Int32" Name="connectivity" format="ascii">
      0      1
      1      2
      2      3
      3      4
      4      5
      5      6
      6      7
      7      8
      8      9
      9     10
     10     11
     11     12
     12     13
     13     14
     14     15
     15     16
     16     17
     18      0
        </DataArray>
        <DataArray type="Int32" Name="offsets" format="ascii">
      2
      4
      6
      8
     10
     12
     14
     16
     18
     20
     22
     24
     26
     28
     30
     32
     34
     36
        </DataArray>
      </Lines>
    </Piece>
  </PolyData>
</VTKFile>
