<?xml version="1.0"?>
<VTKFile type="PolyData" version="0.1" byte_order="LittleEndian">
  <PolyData>
    <Piece NumberOfPoints="     19" NumberOfVerts="  0" NumberOfLines="     18"
           NumberOfStrips="  0" NumberOfPolys="      0">
      <Points>
        <DataArray type="Float32" NumberOfComponents="3" format="ascii">
                       2.92714                      -1.52228                      90.21026
                       2.87356                      -2.88688                      90.26404
                       2.73372                      -5.61852                      90.27954
                       2.58180                      -8.35146                      90.24892
                       2.39056                     -11.76859                      90.17916
                       2.24577                     -15.86666                      90.22137
                       2.16136                     -19.96221                      90.37755
                       2.10077                     -24.05861                      90.52341
                       2.07284                     -28.15577                      90.65936
                       2.08399                     -32.25347                      90.78265
                       2.13535                     -36.35136                      90.89071
                       2.24030                     -40.44869                      90.98293
                       2.40514                     -44.54445                      91.05958
                       2.63276                     -48.63754                      91.12163
                       2.92268                     -52.72698                      91.17062
                       3.20372                     -56.13205                      91.20381
                       3.44863                     -58.85439                      91.23475
                       3.70373                     -61.57579                      91.31955
                       3.82548                     -62.93701                      91.32065
        </DataArray>
      </Points>
      <PointData>
        <DataArray type="Float32" Name="Force" NumberOfComponents="3" format="ascii">
                       0.82520                       0.25012                       6.68561
                      90.70445                      -2.32206                      27.39142
                     116.25284                      -1.54688                      65.57285
                     105.39955                      -0.14578                      85.21775
                     776.10907                     -42.63477                    -429.36415
                     997.24692                     -47.03857                    -485.23797
                    1161.09065                     -44.65714                    -492.26348
                    1496.98876                     -43.71121                    -568.67778
                    1634.67465                     -30.14360                    -551.70750
                    1889.00309                     -12.08733                    -583.67559
                    2330.45480                      17.93003                    -657.99566
                    2663.21405                      61.95693                    -697.79166
                    3107.45302                     123.10764                    -783.21610
                    3386.46238                     190.12886                    -808.66101
                    3625.26838                     257.63087                    -821.18856
                    3753.88563                     302.17569                    -808.25197
                    3661.69019                     310.60676                    -751.00368
                    2689.07606                     231.79140                    -536.33744
                    1261.61698                     110.85279                    -143.97294
        </DataArray>
        <DataArray type="Float32" Name="Moment" NumberOfComponents="3" format="ascii">
                       0.00000                       0.00000                       0.00000
                       0.00000                       0.00000                       0.00000
                       0.00000                       0.00000                       0.00000
                       0.00000                       0.00000                       0.00000
                       8.34582                     260.41515                     -10.77284
                      14.04272                     513.94345                     -20.96107
                      14.00271                     652.01666                     -26.12176
                      12.76042                     891.34234                     -34.92214
                       6.65356                    1192.20353                     -45.42427
                      -6.54578                    1316.66861                     -48.45160
                     -24.43499                    1385.03278                     -48.80120
                     -46.56012                    1453.61675                     -48.63618
                     -60.81376                    1278.49558                     -40.32518
                     -80.16945                    1268.21566                     -37.55152
                     -94.58300                    1222.37370                     -34.05741
                     -99.69693                    1155.77742                     -30.93468
                     -92.00813                    1019.87159                     -26.79916
                     -46.52434                     508.96902                     -13.29919
                     -39.23884                     431.88273                     -11.31447
        </DataArray>
        <DataArray type="Float32" Name="TranslationalVelocity" NumberOfComponents="3" format="ascii">
                      -0.79954                      -0.00223                      -1.42731
                      -0.95617                      -0.04584                      -2.68987
                      -1.26813                      -0.04425                      -5.21720
                      -1.57911                       0.00120                      -7.74406
                      -1.96678                       0.08692                     -10.90024
                      -2.43288                       0.06366                     -14.67854
                      -2.89969                      -0.07135                     -18.44690
                      -3.36517                      -0.19930                     -22.20894
                      -3.82791                      -0.32160                     -25.96500
                      -4.28536                      -0.43641                     -29.71569
                      -4.73513                      -0.54145                     -33.46217
                      -5.17251                      -0.63740                     -37.20426
                      -5.59319                      -0.72472                     -40.94211
                      -5.99350                      -0.80394                     -44.67567
                      -6.37148                      -0.87570                     -48.40486
                      -6.67044                      -0.93085                     -51.50965
                      -6.90046                      -0.97989                     -53.99193
                      -7.12641                      -1.07852                     -56.47352
                      -7.23825                      -1.08957                     -57.71493
        </DataArray>
        <DataArray type="Float32" Name="RotationalVelocity" NumberOfComponents="3" format="ascii">
                       0.92484                      -0.01602                      -0.11419
                       0.92460                      -0.01600                      -0.11415
                       0.92400                      -0.01598                      -0.11403
                       0.92327                      -0.01594                      -0.11388
                       0.92215                      -0.01589                      -0.11368
                       0.92061                      -0.01582                      -0.11347
                       0.91899                      -0.01575                      -0.11324
                       0.91742                      -0.01567                      -0.11280
                       0.91602                      -0.01558                      -0.11194
                       0.91487                      -0.01547                      -0.11041
                       0.91402                      -0.01533                      -0.10791
                       0.91346                      -0.01516                      -0.10443
                       0.91314                      -0.01497                      -0.10006
                       0.91303                      -0.01475                      -0.09504
                       0.91306                      -0.01453                      -0.08989
                       0.91316                      -0.01438                      -0.08611
                       0.91326                      -0.01429                      -0.08388
                       0.91336                      -0.01423                      -0.08243
                       0.91341                      -0.01422                      -0.08205
        </DataArray>
        <DataArray type="Float32" Name="TranslationalAcceleration" NumberOfComponents="3" format="ascii">
                      -0.23740                       1.16613                       0.04117
                      -0.20081                       2.34934                      -0.03171
                      -0.12400                       4.71864                      -0.08770
                      -0.05726                       7.08606                      -0.08055
                      -0.00063                      10.03901                      -0.00353
                      -0.00042                      13.56905                       0.04033
                      -0.08952                      17.08884                       0.06671
                      -0.26461                      20.59990                       0.18728
                      -0.51630                      24.10062                       0.39471
                      -0.81723                      27.58933                       0.67883
                      -1.12649                      31.06640                       1.02200
                      -1.39318                      34.53053                       1.41353
                      -1.55453                      37.98470                       1.83669
                      -1.54958                      41.43524                       2.27663
                      -1.33144                      44.89092                       2.72121
                      -0.97775                      47.78054                       3.08903
                      -0.58344                      50.10211                       3.37191
                      -0.11359                      52.43776                       3.60213
                       0.13480                      53.60135                       3.75130
        </DataArray>
        <DataArray type="Float32" Name="OrientationX" NumberOfComponents="3" format="ascii">
                       0.93691                      -0.05094                      -0.34583
                       0.93693                      -0.05042                      -0.34585
                       0.93699                      -0.04893                      -0.34591
                       0.93706                      -0.04689                      -0.34600
                       0.93718                      -0.04351                      -0.34613
                       0.94793                      -0.03763                      -0.31623
                       0.95514                      -0.03087                      -0.29455
                       0.96102                      -0.02289                      -0.27554
                       0.96676                      -0.01335                      -0.25535
                       0.97212                      -0.00202                      -0.23447
                       0.97663                       0.01134                      -0.21465
                       0.98047                       0.02634                      -0.19491
                       0.98331                       0.04238                      -0.17695
                       0.98484                       0.05836                      -0.16333
                       0.98603                       0.07277                      -0.14984
                       0.98698                       0.08180                      -0.13849
                       0.98779                       0.08586                      -0.13001
                       0.98827                       0.08711                      -0.12545
                       0.98832                       0.08655                      -0.12544
        </DataArray>
        <DataArray type="Float32" Name="OrientationY" NumberOfComponents="3" format="ascii">
                       0.34741                       0.02608                       0.93735
                       0.34740                       0.02590                       0.93736
                       0.34738                       0.02545                       0.93738
                       0.34737                       0.02490                       0.93740
                       0.34734                       0.02408                       0.93743
                       0.31723                       0.02425                       0.94804
                       0.29531                       0.02385                       0.95510
                       0.27605                       0.02320                       0.96086
                       0.25560                       0.02242                       0.96652
                       0.23446                       0.02148                       0.97189
                       0.21439                       0.02039                       0.97653
                       0.19445                       0.01911                       0.98073
                       0.17635                       0.01766                       0.98417
                       0.16265                       0.01626                       0.98655
                       0.14916                       0.01479                       0.98870
                       0.13785                       0.01356                       0.99036
                       0.12940                       0.01267                       0.99151
                       0.12486                       0.01219                       0.99210
                       0.12486                       0.01220                       0.99210
        </DataArray>
        <DataArray type="Float32" Name="OrientationZ" NumberOfComponents="3" format="ascii">
                      -0.03873                      -0.99836                       0.04213
                      -0.03830                      -0.99839                       0.04178
                      -0.03706                      -0.99848                       0.04084
                      -0.03534                      -0.99859                       0.03962
                      -0.03245                      -0.99876                       0.03768
                      -0.02801                      -0.99900                       0.03493
                      -0.02246                      -0.99924                       0.03189
                      -0.01560                      -0.99947                       0.02861
                      -0.00718                      -0.99966                       0.02509
                       0.00307                      -0.99977                       0.02136
                       0.01545                      -0.99973                       0.01749
                       0.02956                      -0.99947                       0.01361
                       0.04483                      -0.99895                       0.00989
                       0.06023                      -0.99816                       0.00652
                       0.07416                      -0.99724                       0.00373
                       0.08289                      -0.99656                       0.00211
                       0.08678                      -0.99623                       0.00140
                       0.08795                      -0.99612                       0.00117
                       0.08740                      -0.99617                       0.00125
        </DataArray>
      </PointData>
      <Lines>
        <DataArray type="Int32" Name="connectivity" format="ascii">
      0      1
      1      2
      2      3
      3      4
      4      5
      5      6
      6      7
      7      8
      8      9
      9     10
     10     11
     11     12
     12     13
     13     14
     14     15
     15     16
     16     17
     17     18
        </DataArray>
        <DataArray type="Int32" Name="offsets" format="ascii">
      2
      4
      6
      8
     10
     12
     14
     16
     18
     20
     22
     24
     26
     28
     30
     32
     34
     36
        </DataArray>
      </Lines>
    </Piece>
  </PolyData>
</VTKFile>
