<?xml version="1.0"?>
<VTKFile type="PolyData" version="0.1" byte_order="LittleEndian">
  <PolyData>
    <Piece NumberOfPoints="     19" NumberOfVerts="  0" NumberOfLines="     18"
           NumberOfStrips="  0" NumberOfPolys="      0">
      <Points>
        <DataArray type="Float32" NumberOfComponents="3" format="ascii">
                       2.53552                       1.17402                      89.24447
                       2.38181                       2.26897                      88.44114
                       2.06214                       4.51485                      86.91283
                       1.74008                       6.78758                      85.42124
                       1.34189                       9.64519                      83.57816
                       0.91753                      12.99145                      81.24432
                       0.52464                      16.26191                      78.80234
                       0.15344                      19.53226                      76.35683
                      -0.18808                      22.80168                      73.90577
                      -0.49346                      26.07140                      71.45039
                      -0.76072                      29.34332                      68.99359
                      -0.97714                      32.61628                      66.53323
                      -1.13629                      35.88944                      64.06881
                      -1.23491                      39.16169                      61.60006
                      -1.27277                      42.43197                      59.12703
                      -1.26541                      45.15535                      57.06341
                      -1.24101                      47.32811                      55.40485
                      -1.21750                      49.46780                      53.70206
                      -1.20237                      50.56245                      52.88400
        </DataArray>
      </Points>
      <PointData>
        <DataArray type="Float32" Name="Force" NumberOfComponents="3" format="ascii">
                      -0.02900                      -0.18770                      -0.24893
                      66.90865                      -5.86208                     -20.66323
                      83.79635                     -23.16875                     -47.14342
                      73.52314                     -35.95651                     -62.30965
                     828.97009                     235.21054                     169.28561
                    1070.72497                     267.80373                     177.50727
                    1240.92867                     260.65984                     149.27949
                    1575.98339                     279.61829                     136.92856
                    1705.01243                     249.83706                      99.46277
                    1940.26793                     232.24565                      74.21174
                    2354.19591                     218.74875                      51.32277
                    2668.06969                     181.64029                      29.21520
                    3101.66806                     148.69842                      26.38027
                    3393.59603                      90.39308                      16.90966
                    3668.31540                      27.63351                       8.59767
                    3843.83175                     -24.08010                      -5.52928
                    3791.19183                     -58.63589                     -26.15442
                    2794.94133                     -57.65235                     -31.60509
                    1316.07253                     -94.33677                    -104.60987
        </DataArray>
        <DataArray type="Float32" Name="Moment" NumberOfComponents="3" format="ascii">
                       0.00000                       0.00000                       0.00000
                       0.00000                       0.00000                       0.00000
                       0.00000                       0.00000                       0.00000
                       0.00000                       0.00000                       0.00000
                      31.57900                    -237.57026                     175.44897
                      41.34569                    -324.08022                     239.53962
                      52.56685                    -434.27513                     321.31925
                      68.51471                    -606.01305                     448.95158
                      82.79747                    -801.93061                     595.00925
                      83.76428                    -917.81100                     682.27019
                      74.64279                    -973.48538                     725.31106
                      62.63014                   -1045.58778                     781.07540
                      39.84273                    -958.45543                     718.03219
                      22.11568                    -966.06127                     725.83191
                       5.45782                    -946.32250                     712.88930
                      -4.69525                    -906.57112                     684.09953
                      -8.29649                    -808.90219                     610.87686
                      -4.94024                    -408.78148                     308.79579
                      -4.10200                    -352.39975                     266.18645
        </DataArray>
        <DataArray type="Float32" Name="TranslationalVelocity" NumberOfComponents="3" format="ascii">
                      -0.30498                       0.79625                       1.07625
                      -0.17578                       1.55917                       2.09140
                       0.08815                       3.01437                       4.17485
                       0.35598                       4.43836                       6.28742
                       0.69542                       6.20258                       8.95138
                       1.10112                       8.43598                      12.08344
                       1.50824                      10.77822                      15.15871
                       1.92502                      13.13284                      18.24800
                       2.35121                      15.50052                      21.35026
                       2.78532                      17.87854                      24.46606
                       3.22431                      20.26205                      27.59523
                       3.66486                      22.65151                      30.73736
                       4.10215                      25.04570                      33.89082
                       4.53118                      27.44370                      37.05357
                       4.94765                      29.84469                      40.22327
                       5.28359                      31.84749                      42.86815
                       5.54409                      33.45707                      44.98085
                       5.79520                      35.11069                      47.06235
                       5.92226                      35.90483                      48.12734
        </DataArray>
        <DataArray type="Float32" Name="RotationalVelocity" NumberOfComponents="3" format="ascii">
                       0.92825                      -0.01255                      -0.10857
                       0.92889                      -0.01259                      -0.10875
                       0.93048                      -0.01272                      -0.10922
                       0.93243                      -0.01291                      -0.10986
                       0.93542                      -0.01329                      -0.11094
                       0.93949                      -0.01398                      -0.11266
                       0.94376                      -0.01490                      -0.11472
                       0.94801                      -0.01590                      -0.11688
                       0.95208                      -0.01681                      -0.11889
                       0.95589                      -0.01744                      -0.12048
                       0.95935                      -0.01756                      -0.12131
                       0.96251                      -0.01709                      -0.12127
                       0.96537                      -0.01598                      -0.12030
                       0.96789                      -0.01426                      -0.11846
                       0.97002                      -0.01211                      -0.11595
                       0.97137                      -0.01022                      -0.11364
                       0.97207                      -0.00884                      -0.11191
                       0.97246                      -0.00765                      -0.11037
                       0.97252                      -0.00715                      -0.10970
        </DataArray>
        <DataArray type="Float32" Name="TranslationalAcceleration" NumberOfComponents="3" format="ascii">
                       1.12890                      -1.02438                       0.96966
                       1.16102                      -1.94975                       1.73037
                       1.21536                      -3.86263                       3.17756
                       1.25552                      -5.83299                       4.55986
                       1.28004                      -8.36887                       6.20606
                       1.27210                     -11.43839                       8.18365
                       1.20746                     -14.57370                      10.14558
                       1.07497                     -17.84264                      11.99967
                       0.89676                     -21.23902                      13.74946
                       0.71912                     -24.75303                      15.39711
                       0.59768                     -28.36391                      16.95343
                       0.61662                     -32.07076                      18.41221
                       0.86565                     -35.86526                      19.77793
                       1.42669                     -39.74279                      21.05780
                       2.35458                     -43.70000                      22.26374
                       3.40567                     -47.05192                      23.22541
                       4.41744                     -49.76128                      23.98116
                       5.53871                     -52.46743                      24.78071
                       6.10873                     -53.83386                      25.13904
        </DataArray>
        <DataArray type="Float32" Name="OrientationX" NumberOfComponents="3" format="ascii">
                       0.98407                       0.17191                       0.04528
                       0.98412                       0.17156                       0.04554
                       0.98426                       0.17056                       0.04628
                       0.98445                       0.16920                       0.04728
                       0.98475                       0.16693                       0.04896
                       0.98909                       0.14503                       0.02576
                       0.99180                       0.12742                       0.01030
                       0.99388                       0.11049                      -0.00210
                       0.99569                       0.09165                      -0.01453
                       0.99713                       0.07098                      -0.02639
                       0.99814                       0.04928                      -0.03602
                       0.99867                       0.02625                      -0.04443
                       0.99872                       0.00335                      -0.05052
                       0.99846                      -0.01709                      -0.05283
                       0.99779                      -0.03636                      -0.05567
                       0.99695                      -0.05028                      -0.05966
                       0.99622                      -0.05866                      -0.06409
                       0.99580                      -0.06258                      -0.06689
                       0.99580                      -0.06229                      -0.06710
        </DataArray>
        <DataArray type="Float32" Name="OrientationY" NumberOfComponents="3" format="ascii">
                       0.13760                      -0.57533                      -0.80626
                       0.13762                      -0.57541                      -0.80621
                       0.13764                      -0.57559                      -0.80607
                       0.13767                      -0.57581                      -0.80591
                       0.13772                      -0.57615                      -0.80566
                       0.10629                      -0.58159                      -0.80651
                       0.08356                      -0.58521                      -0.80656
                       0.06368                      -0.58809                      -0.80628
                       0.04261                      -0.59072                      -0.80575
                       0.02090                      -0.59294                      -0.80497
                       0.00034                      -0.59461                      -0.80401
                      -0.02007                      -0.59578                      -0.80290
                      -0.03856                      -0.59639                      -0.80177
                      -0.05258                      -0.59658                      -0.80083
                      -0.06637                      -0.59643                      -0.79992
                      -0.07789                      -0.59605                      -0.79916
                      -0.08645                      -0.59563                      -0.79859
                      -0.09104                      -0.59537                      -0.79828
                      -0.09104                      -0.59537                      -0.79828
        </DataArray>
        <DataArray type="Float32" Name="OrientationZ" NumberOfComponents="3" format="ascii">
                      -0.11255                       0.79965                      -0.58982
                      -0.11211                       0.79967                      -0.58988
                      -0.11085                       0.79976                      -0.59000
                      -0.10913                       0.79989                      -0.59015
                      -0.10628                       0.80012                      -0.59035
                      -0.10199                       0.80045                      -0.59066
                      -0.09674                       0.80081                      -0.59106
                      -0.09032                       0.80121                      -0.59153
                      -0.08243                       0.80166                      -0.59207
                      -0.07278                       0.80211                      -0.59273
                      -0.06104                       0.80250                      -0.59352
                      -0.04754                       0.80272                      -0.59446
                      -0.03281                       0.80269                      -0.59549
                      -0.01783                       0.80237                      -0.59655
                      -0.00412                       0.80184                      -0.59752
                       0.00462                       0.80137                      -0.59815
                       0.00867                       0.80111                      -0.59845
                       0.01013                       0.80101                      -0.59856
                       0.00977                       0.80104                      -0.59854
        </DataArray>
      </PointData>
      <Lines>
        <DataArray type="Int32" Name="connectivity" format="ascii">
      0      1
      1      2
      2      3
      3      4
      4      5
      5      6
      6      7
      7      8
      8      9
      9     10
     10     11
     11     12
     12     13
     13     14
     14     15
     15     16
     16     17
     17     18
        </DataArray>
        <DataArray type="Int32" Name="offsets" format="ascii">
      2
      4
      6
      8
     10
     12
     14
     16
     18
     20
     22
     24
     26
     28
     30
     32
     34
     36
        </DataArray>
      </Lines>
    </Piece>
  </PolyData>
</VTKFile>
