<?xml version="1.0"?>
<VTKFile type="PolyData" version="0.1" byte_order="LittleEndian">
  <PolyData>
    <Piece NumberOfPoints="     19" NumberOfVerts="  0" NumberOfLines="     18"
           NumberOfStrips="  0" NumberOfPolys="      0">
      <Points>
        <DataArray type="Float32" NumberOfComponents="3" format="ascii">
                       2.81321                      -0.95678                      88.97685
                       2.62559                      -1.81770                      87.93209
                       2.22198                      -3.46487                      85.78605
                       1.80790                      -5.07488                      83.61138
                       1.28918                      -7.06245                      80.87311
                       0.74284                      -9.55328                      77.66178
                       0.24828                     -12.13795                      74.51881
                      -0.22593                     -14.71656                      71.36768
                      -0.67240                     -17.29042                      68.20850
                      -1.08661                     -19.85810                      65.03980
                      -1.46863                     -22.41773                      61.86044
                      -1.80856                     -24.96999                      58.67028
                      -2.10268                     -27.51542                      55.47001
                      -2.34998                     -30.05472                      52.26080
                      -2.55142                     -32.58871                      49.04404
                      -2.69098                     -34.69735                      46.35926
                      -2.78891                     -36.38912                      44.21450
                      -2.88182                     -38.12413                      42.10286
                      -2.93229                     -38.95866                      41.02181
        </DataArray>
      </Points>
      <PointData>
        <DataArray type="Float32" Name="Force" NumberOfComponents="3" format="ascii">
                       0.33571                      -3.39689                       2.75530
                      61.64415                     -25.55958                      10.15456
                      89.50864                     -57.63154                      31.87995
                      85.48400                     -72.18889                      44.82313
                     700.06543                     211.94085                    -295.69783
                     892.70092                     224.88578                    -334.47154
                    1016.85165                     209.50169                    -335.35383
                    1268.46596                     218.74782                    -372.58909
                    1304.45884                     181.21388                    -334.17424
                    1397.10702                     160.91869                    -314.40005
                    1588.09640                     143.59473                    -303.65962
                    1588.02447                     110.72357                    -253.08211
                    1602.79170                      89.80120                    -212.42795
                    1409.66884                      55.34582                    -145.89077
                    1107.08734                      21.91381                     -82.03500
                    1423.67577                      36.83609                    -100.95972
                    1663.35679                      49.67300                    -117.78971
                    1352.32025                      40.44547                     -94.97730
                    1326.08190                      36.46021                     -91.61297
        </DataArray>
        <DataArray type="Float32" Name="Moment" NumberOfComponents="3" format="ascii">
                       0.00000                       0.00000                       0.00000
                       0.00000                       0.00000                       0.00000
                       0.00000                       0.00000                       0.00000
                       0.00000                       0.00000                       0.00000
                      28.10007                     135.53519                     163.67159
                      57.11983                     284.41283                     343.68043
                      70.57916                     366.04862                     442.68568
                      93.06552                     508.20833                     615.20832
                     118.35642                     689.89395                     836.11900
                     120.80125                     764.91626                     928.31280
                     115.69329                     814.70508                     990.31758
                     106.07397                     853.09164                    1038.81470
                      71.15094                     673.37142                     821.50067
                      56.12859                     643.45270                     786.44553
                      42.10271                     593.66472                     726.77308
                      35.37373                     579.64526                     710.30896
                      30.12749                     529.02085                     648.53559
                      15.35513                     273.23341                     334.98647
                      16.20834                     283.38114                     347.39320
        </DataArray>
        <DataArray type="Float32" Name="TranslationalVelocity" NumberOfComponents="3" format="ascii">
                       0.09614                       1.04546                      -0.84684
                      -0.00753                       2.03945                      -1.64731
                      -0.20439                       4.08320                      -3.17899
                      -0.38854                       6.15464                      -4.67768
                      -0.59794                       8.76281                      -6.53166
                      -0.82963                      11.81565                      -8.86110
                      -1.02832                      14.80063                     -11.28569
                      -1.16943                      17.79344                     -13.71457
                      -1.23144                      20.79540                     -16.15250
                      -1.18387                      23.81029                     -18.60243
                      -1.00679                      26.84110                     -21.06424
                      -0.64790                      29.89117                     -23.54315
                      -0.06873                      32.96258                     -26.03986
                       0.75859                      36.05663                     -28.55244
                       1.84029                      39.17351                     -31.07635
                       2.91303                      41.78583                     -33.18482
                       3.86222                      43.87838                     -34.87963
                       4.84290                      45.94053                     -36.61800
                       5.33950                      46.99590                     -37.45633
        </DataArray>
        <DataArray type="Float32" Name="RotationalVelocity" NumberOfComponents="3" format="ascii">
                       0.93109                       0.00694                      -0.11345
                       0.93115                       0.00622                      -0.11286
                       0.93144                       0.00406                      -0.11112
                       0.93193                       0.00107                      -0.10873
                       0.93281                      -0.00386                      -0.10480
                       0.93412                      -0.01120                      -0.09895
                       0.93578                      -0.02055                      -0.09150
                       0.93814                      -0.03305                      -0.08156
                       0.94154                      -0.05018                      -0.06797
                       0.94611                      -0.07336                      -0.04958
                       0.95191                      -0.10438                      -0.02491
                       0.95848                      -0.14255                       0.00555
                       0.96533                      -0.18659                       0.04082
                       0.97194                      -0.23362                       0.07862
                       0.97766                      -0.27880                       0.11504
                       0.98116                      -0.30947                       0.13983
                       0.98285                      -0.32536                       0.15270
                       0.98366                      -0.33340                       0.15922
                       0.98373                      -0.33407                       0.15976
        </DataArray>
        <DataArray type="Float32" Name="TranslationalAcceleration" NumberOfComponents="3" format="ascii">
                       0.85132                       0.90021                       1.46762
                       0.86410                       1.59251                       2.46414
                       0.88934                       2.89604                       4.51515
                       0.90359                       4.12608                       6.61897
                       0.89274                       5.56929                       9.31671
                       0.82309                       7.28978                      12.57838
                       0.67339                       8.97217                      15.90827
                       0.41679                      10.51661                      19.37716
                       0.02135                      11.92836                      22.99336
                      -0.54895                      13.21520                      26.76691
                      -1.30678                      14.39757                      30.69281
                      -2.30447                      15.48037                      34.79983
                      -3.56657                      16.48429                      39.10426
                      -5.10027                      17.43396                      43.62226
                      -6.88656                      18.35491                      48.36012
                      -8.52584                      19.11731                      52.46024
                      -9.90375                      19.74153                      55.82068
                     -11.26266                      20.43089                      59.20195
                     -11.95601                      20.73379                      60.90431
        </DataArray>
        <DataArray type="Float32" Name="OrientationX" NumberOfComponents="3" format="ascii">
                       0.94349                       0.15138                      -0.29480
                       0.94356                       0.15168                      -0.29444
                       0.94374                       0.15253                      -0.29342
                       0.94398                       0.15367                      -0.29204
                       0.94438                       0.15557                      -0.28973
                       0.95410                       0.13404                      -0.26781
                       0.96077                       0.11980                      -0.25015
                       0.96635                       0.10836                      -0.23330
                       0.97186                       0.09668                      -0.21481
                       0.97712                       0.08524                      -0.19489
                       0.98176                       0.07553                      -0.17449
                       0.98593                       0.06656                      -0.15331
                       0.98937                       0.05942                      -0.13276
                       0.99180                       0.05565                      -0.11502
                       0.99382                       0.05117                      -0.09848
                       0.99519                       0.04593                      -0.08653
                       0.99602                       0.04073                      -0.07927
                       0.99640                       0.03738                      -0.07610
                       0.99638                       0.03698                      -0.07659
        </DataArray>
        <DataArray type="Float32" Name="OrientationY" NumberOfComponents="3" format="ascii">
                       0.30181                      -0.75992                       0.57570
                       0.30178                      -0.76007                       0.57552
                       0.30170                      -0.76044                       0.57508
                       0.30160                      -0.76089                       0.57453
                       0.30146                      -0.76157                       0.57370
                       0.27098                      -0.76712                       0.58147
                       0.24877                      -0.77101                       0.58622
                       0.22923                      -0.77428                       0.58986
                       0.20850                      -0.77741                       0.59344
                       0.18710                      -0.78029                       0.59678
                       0.16679                      -0.78276                       0.59956
                       0.14660                      -0.78495                       0.60197
                       0.12827                      -0.78677                       0.60377
                       0.11436                      -0.78815                       0.60477
                       0.10066                      -0.78934                       0.60565
                       0.08919                      -0.79017                       0.60636
                       0.08063                      -0.79067                       0.60690
                       0.07604                      -0.79091                       0.60719
                       0.07603                      -0.79091                       0.60719
        </DataArray>
        <DataArray type="Float32" Name="OrientationZ" NumberOfComponents="3" format="ascii">
                      -0.13687                      -0.63214                      -0.76267
                      -0.13649                      -0.63189                      -0.76294
                      -0.13541                      -0.63124                      -0.76367
                      -0.13392                      -0.63042                      -0.76461
                      -0.13140                      -0.62913                      -0.76611
                      -0.12750                      -0.62735                      -0.76823
                      -0.12264                      -0.62545                      -0.77057
                      -0.11673                      -0.62349                      -0.77307
                      -0.10962                      -0.62152                      -0.77569
                      -0.10120                      -0.61958                      -0.77838
                      -0.09130                      -0.61772                      -0.78108
                      -0.08027                      -0.61598                      -0.78366
                      -0.06857                      -0.61438                      -0.78603
                      -0.05700                      -0.61297                      -0.78805
                      -0.04675                      -0.61182                      -0.78961
                      -0.04052                      -0.61117                      -0.79046
                      -0.03796                      -0.61088                      -0.79081
                      -0.03749                      -0.61079                      -0.79091
                      -0.03812                      -0.61081                      -0.79086
        </DataArray>
      </PointData>
      <Lines>
        <DataArray type="Int32" Name="connectivity" format="ascii">
      0      1
      1      2
      2      3
      3      4
      4      5
      5      6
      6      7
      7      8
      8      9
      9     10
     10     11
     11     12
     12     13
     13     14
     14     15
     15     16
     16     17
     17     18
        </DataArray>
        <DataArray type="Int32" Name="offsets" format="ascii">
      2
      4
      6
      8
     10
     12
     14
     16
     18
     20
     22
     24
     26
     28
     30
     32
     34
     36
        </DataArray>
      </Lines>
    </Piece>
  </PolyData>
</VTKFile>
