<?xml version="1.0"?>
<VTKFile type="PolyData" version="0.1" byte_order="LittleEndian">
  <PolyData>
    <Piece NumberOfPoints="     19" NumberOfVerts="  0" NumberOfLines="     18"
           NumberOfStrips="  0" NumberOfPolys="      0">
      <Points>
        <DataArray type="Float32" NumberOfComponents="3" format="ascii">
                       3.19193                       1.76510                      92.92301
                       3.41396                       3.72285                      95.95703
                       3.64500                       5.68069                      98.99032
                       3.88848                       7.63845                     102.02268
                       4.14726                       9.59606                     105.05387
                       4.42425                      11.55345                     108.08358
                       4.72291                      13.51046                     111.11147
                       5.04746                      15.46680                     114.13713
                       5.40282                      17.42214                     117.15996
                       5.79443                      19.37614                     120.17915
                       6.22771                      21.32855                     123.19366
                       6.70742                      23.27915                     126.20230
                       7.23667                      25.22783                     129.20387
                       7.81582                      27.17456                     132.19752
                       8.44106                      29.11947                     135.18313
                       9.10289                      31.06298                     138.16182
                       9.78428                      33.00580                     141.13662
                      10.12720                      33.97714                     142.62356
                       3.08268                       0.78628                      91.40584
        </DataArray>
      </Points>
      <PointData>
        <DataArray type="Float32" Name="TranslationalVelocity" NumberOfComponents="3" format="ascii">
                      -0.46340                      -2.53932                       1.61684
                      -0.28547                      -5.37808                       3.43557
                      -0.10209                      -8.22858                       5.26146
                       0.08922                     -11.09403                       7.09609
                       0.29092                     -13.97635                       8.94031
                       0.50541                     -16.87645                      10.79434
                       0.73483                     -19.79464                      12.65779
                       0.98099                     -22.73082                      14.52983
                       1.24539                     -25.68446                      16.40928
                       1.52913                     -28.65469                      18.29474
                       1.83275                     -31.64030                      20.18473
                       2.15612                     -34.63968                      22.07773
                       2.49823                     -37.65093                      23.97236
                       2.85692                     -40.67186                      25.86748
                       3.22868                     -43.70003                      27.76240
                       3.60831                     -46.73290                      29.65713
                       3.98859                     -49.76789                      31.55242
                       4.17784                     -51.28561                      32.50035
                      -0.55133                      -1.12239                       0.70902
        </DataArray>
        <DataArray type="Float32" Name="RotationalVelocity" NumberOfComponents="3" format="ascii">
                       0.92568                      -0.01602                      -0.11465
                       0.92877                      -0.01516                      -0.11543
                       0.93303                      -0.01373                      -0.11665
                       0.93802                      -0.01176                      -0.11828
                       0.94338                      -0.00923                      -0.12029
                       0.94884                      -0.00615                      -0.12267
                       0.95422                      -0.00261                      -0.12534
                       0.95939                       0.00134                      -0.12825
                       0.96424                       0.00562                      -0.13136
                       0.96871                       0.01013                      -0.13458
                       0.97275                       0.01472                      -0.13783
                       0.97634                       0.01921                      -0.14099
                       0.97943                       0.02337                      -0.14389
                       0.98201                       0.02690                      -0.14635
                       0.98402                       0.02944                      -0.14813
                       0.98536                       0.03055                      -0.14895
                       0.98591                       0.02972                      -0.14844
                       0.98596                       0.02874                      -0.14782
                       0.92447                      -0.01629                      -0.11439
        </DataArray>
        <DataArray type="Float32" Name="TranslationalAcceleration" NumberOfComponents="3" format="ascii">
                      -0.64683                      -1.74433                      -2.24752
                      -1.01675                      -3.53144                      -4.82400
                      -1.44659                      -5.31137                      -7.43127
                      -1.96135                      -7.08077                     -10.07728
                      -2.58235                      -8.83755                     -12.76582
                      -3.31929                     -10.58196                     -15.49711
                      -4.16437                     -12.31595                     -18.26957
                      -5.08931                     -14.04289                     -21.08132
                      -6.04507                     -15.76730                     -23.93130
                      -6.96415                     -17.49430                     -26.82091
                      -7.76540                     -19.22913                     -29.75531
                      -8.36155                     -20.97691                     -32.74414
                      -8.66917                     -22.74256                     -35.80073
                      -8.62113                     -24.53068                     -38.93948
                      -8.18143                     -26.34437                     -42.17079
                      -7.36244                     -28.18317                     -45.49370
                      -6.24449                     -30.04103                     -48.88664
                      -5.62572                     -30.97357                     -50.59632
                      -0.47378                      -0.84940                      -0.96573
        </DataArray>
        <DataArray type="Float32" Name="RotationalAcceleration" NumberOfComponents="3" format="ascii">
                       0.03060                       0.01417                       0.01782
                       0.02536                       0.00382                       0.02487
                       0.01791                      -0.01197                       0.03558
                       0.00882                      -0.03348                       0.05010
                      -0.00070                      -0.05894                       0.06720
                      -0.00966                      -0.08489                       0.08458
                      -0.01757                      -0.10678                       0.09926
                      -0.02402                      -0.11969                       0.10805
                      -0.02899                      -0.11891                       0.10790
                      -0.03287                      -0.10052                       0.09632
                      -0.03630                      -0.06201                       0.07172
                      -0.04007                      -0.00290                       0.03386
                      -0.04473                       0.07465                      -0.01583
                      -0.05045                       0.16527                      -0.07388
                      -0.05698                       0.25976                      -0.13437
                      -0.06348                       0.34449                      -0.18856
                      -0.06793                       0.40086                      -0.22461
                      -0.06932                       0.41930                      -0.23641
                       0.03263                       0.01816                       0.01509
        </DataArray>
        <DataArray type="Float32" Name="OrientationX" NumberOfComponents="3" format="ascii">
                       0.98451                      -0.17083                       0.03932
                       0.98440                      -0.17186                       0.03773
                       0.98421                      -0.17347                       0.03523
                       0.98606                      -0.16456                       0.02481
                       0.98994                      -0.14140                       0.00408
                       0.99151                      -0.12966                      -0.01012
                       0.99266                      -0.11828                      -0.02534
                       0.99339                      -0.10671                      -0.04219
                       0.99358                      -0.09570                      -0.06040
                       0.99311                      -0.08618                      -0.07944
                       0.99200                      -0.07765                      -0.09952
                       0.99027                      -0.07054                      -0.11999
                       0.98805                      -0.06651                      -0.13906
                       0.98556                      -0.06357                      -0.15691
                       0.98306                      -0.05968                      -0.17329
                       0.98094                      -0.05395                      -0.18665
                       0.98001                      -0.04856                      -0.19294
                       0.97996                      -0.04619                      -0.19379
                       0.98455                      -0.17049                       0.03985
        </DataArray>
        <DataArray type="Float32" Name="OrientationY" NumberOfComponents="3" format="ascii">
                       0.16457                       0.82340                      -0.54308
                       0.16454                       0.82315                      -0.54346
                       0.16450                       0.82281                      -0.54399
                       0.15134                       0.82467                      -0.54500
                       0.12066                       0.82898                      -0.54610
                       0.10308                       0.83095                      -0.54672
                       0.08526                       0.83273                      -0.54707
                       0.06640                       0.83445                      -0.54708
                       0.04728                       0.83599                      -0.54671
                       0.02898                       0.83729                      -0.54600
                       0.01097                       0.83843                      -0.54491
                      -0.00607                       0.83939                      -0.54350
                      -0.01976                       0.84006                      -0.54214
                      -0.03186                       0.84062                      -0.54068
                      -0.04394                       0.84120                      -0.53894
                      -0.05587                       0.84177                      -0.53693
                      -0.06369                       0.84215                      -0.53547
                      -0.06609                       0.84227                      -0.53500
                       0.16458                       0.82349                      -0.54293
        </DataArray>
        <DataArray type="Float32" Name="OrientationZ" NumberOfComponents="3" format="ascii">
                       0.06040                       0.54114                       0.83876
                       0.06235                       0.54119                       0.83858
                       0.06538                       0.54119                       0.83835
                       0.06923                       0.54115                       0.83807
                       0.07383                       0.54110                       0.83771
                       0.07930                       0.54103                       0.83725
                       0.08581                       0.54089                       0.83670
                       0.09359                       0.54066                       0.83602
                       0.10281                       0.54034                       0.83514
                       0.11357                       0.53993                       0.83401
                       0.12575                       0.53946                       0.83257
                       0.13906                       0.53894                       0.83079
                       0.15288                       0.53841                       0.82870
                       0.16627                       0.53788                       0.82646
                       0.17793                       0.53742                       0.82433
                       0.18609                       0.53713                       0.82272
                       0.18849                       0.53706                       0.82222
                       0.18793                       0.53708                       0.82233
                       0.05975                       0.54110                       0.83883
        </DataArray>
      </PointData>
      <Lines>
        <DataArray type="Int32" Name="connectivity" format="ascii">
      0      1
      1      2
      2      3
      3      4
      4      5
      5      6
      6      7
      7      8
      8      9
      9     10
     10     11
     11     12
     12     13
     13     14
     14     15
     15     16
     16     17
     18      0
        </DataArray>
        <DataArray type="Int32" Name="offsets" format="ascii">
      2
      4
      6
      8
     10
     12
     14
     16
     18
     20
     22
     24
     26
     28
     30
     32
     34
     36
        </DataArray>
      </Lines>
    </Piece>
  </PolyData>
</VTKFile>
