<?xml version="1.0"?>
<VTKFile type="PolyData" version="0.1" byte_order="LittleEndian">
  <PolyData>
    <Piece NumberOfPoints="     17" NumberOfVerts="  0" NumberOfLines="      0"
           NumberOfStrips="  0" NumberOfPolys="      0">
      <Points>
        <DataArray type="Float32" NumberOfComponents="3" format="ascii">
                      -5.28783                      -2.86280                      88.36603
                      -5.60253                      -5.99279                      86.57956
                      -5.91723                      -9.12278                      84.79309
                      -6.23193                     -12.25277                      83.00662
                      -6.54663                     -15.38277                      81.22015
                      -6.86133                     -18.51276                      79.43367
                      -7.17603                     -21.64275                      77.64720
                      -7.49072                     -24.77274                      75.86073
                      -7.80542                     -27.90274                      74.07426
                      -8.12012                     -31.03273                      72.28778
                      -8.43482                     -34.16272                      70.50131
                      -8.74952                     -37.29271                      68.71484
                      -9.06422                     -40.42271                      66.92837
                      -9.37891                     -43.55270                      65.14190
                      -9.69361                     -46.68269                      63.35542
                     -10.00831                     -49.81268                      61.56895
                     -10.32301                     -52.94268                      59.78248
        </DataArray>
      </Points>
      <PointData>
        <DataArray type="Float32" Name="RefOrientationX" NumberOfComponents="3" format="ascii">
                       0.94930                       0.07833                      -0.30447
                       0.94930                       0.07833                      -0.30447
                       0.94930                       0.07833                      -0.30447
                       0.95323                       0.07173                      -0.29360
                       0.96174                       0.05632                      -0.26809
                       0.96619                       0.04751                      -0.25343
                       0.97038                       0.03856                      -0.23850
                       0.97447                       0.02910                      -0.22264
                       0.97825                       0.01950                      -0.20649
                       0.98154                       0.01030                      -0.19096
                       0.98446                       0.00124                      -0.17559
                       0.98693                      -0.00734                      -0.16099
                       0.98870                      -0.01425                      -0.14921
                       0.99012                      -0.02036                      -0.13874
                       0.99139                      -0.02649                      -0.12823
                       0.99250                      -0.03256                      -0.11779
                       0.99316                      -0.03655                      -0.11092
        </DataArray>
        <DataArray type="Float32" Name="RefOrientationY" NumberOfComponents="3" format="ascii">
                       0.30211                      -0.49527                       0.81452
                       0.30211                      -0.49527                       0.81452
                       0.30211                      -0.49527                       0.81452
                       0.28944                      -0.49627                       0.81850
                       0.25977                      -0.49825                       0.82720
                       0.24273                      -0.49917                       0.83181
                       0.22540                      -0.49994                       0.83622
                       0.20700                      -0.50058                       0.84058
                       0.18828                      -0.50105                       0.84469
                       0.17030                      -0.50132                       0.84834
                       0.15254                      -0.50142                       0.85165
                       0.13567                      -0.50137                       0.85453
                       0.12206                      -0.50122                       0.85667
                       0.10998                      -0.50101                       0.85842
                       0.09786                      -0.50072                       0.86006
                       0.08583                      -0.50037                       0.86155
                       0.07792                      -0.50009                       0.86246
        </DataArray>
        <DataArray type="Float32" Name="RefOrientationZ" NumberOfComponents="3" format="ascii">
                      -0.08699                      -0.86520                      -0.49382
                      -0.08699                      -0.86520                      -0.49382
                      -0.08699                      -0.86520                      -0.49382
                      -0.08699                      -0.86520                      -0.49382
                      -0.08699                      -0.86520                      -0.49382
                      -0.08699                      -0.86520                      -0.49382
                      -0.08699                      -0.86520                      -0.49382
                      -0.08699                      -0.86520                      -0.49382
                      -0.08699                      -0.86520                      -0.49382
                      -0.08699                      -0.86520                      -0.49382
                      -0.08699                      -0.86520                      -0.49382
                      -0.08699                      -0.86520                      -0.49382
                      -0.08699                      -0.86520                      -0.49382
                      -0.08699                      -0.86520                      -0.49382
                      -0.08699                      -0.86520                      -0.49382
                      -0.08699                      -0.86520                      -0.49382
                      -0.08699                      -0.86520                      -0.49382
        </DataArray>
      </PointData>
    </Piece>
  </PolyData>
</VTKFile>
