<?xml version="1.0"?>
<VTKFile type="PolyData" version="0.1" byte_order="LittleEndian">
  <PolyData>
    <Piece NumberOfPoints="     19" NumberOfVerts="  0" NumberOfLines="     18"
           NumberOfStrips="  0" NumberOfPolys="      0">
      <Points>
        <DataArray type="Float32" NumberOfComponents="3" format="ascii">
                       3.21769                      -1.05997                      91.21983
                       3.28106                      -2.01100                      92.19933
                       3.37824                      -3.98085                      94.09457
                       3.46444                      -5.98405                      95.95813
                       3.57081                      -8.50991                      98.26626
                       3.77645                     -11.44424                     101.12378
                       4.03540                     -14.29184                     104.06157
                       4.31485                     -17.14375                     106.99333
                       4.62286                     -19.99891                     109.91913
                       4.96508                     -22.85863                     112.83675
                       5.34249                     -25.72459                     115.74394
                       5.76708                     -28.59567                     118.63964
                       6.24447                     -31.47073                     121.52322
                       6.77725                     -34.34841                     124.39454
                       7.36533                     -37.22730                     127.25395
                       7.89052                     -39.62648                     129.62935
                       8.32848                     -41.54000                     131.53160
                       8.77450                     -43.41474                     133.47184
                       8.99318                     -44.38151                     134.41270
        </DataArray>
      </Points>
      <PointData>
        <DataArray type="Float32" Name="Force" NumberOfComponents="3" format="ascii">
                       0.39182                       3.24375                       3.10679
                      71.75104                      19.43736                      14.05802
                      92.31646                      45.07229                      37.32245
                      84.34539                      58.60698                      50.76024
                     653.36508                    -212.51793                    -253.28659
                     851.45728                    -238.09923                    -297.53816
                     964.79714                    -217.01265                    -293.09013
                    1223.32370                    -225.74011                    -334.65364
                    1307.83291                    -189.62853                    -321.88667
                    1497.36181                    -173.50642                    -346.00314
                    1854.52985                    -160.45618                    -405.23178
                    2118.04900                    -131.04694                    -450.61552
                    2517.93263                    -117.12302                    -547.93497
                    2780.90279                     -77.62857                    -610.53910
                    3053.95802                     -38.51304                    -680.71474
                    3239.24550                      -5.45792                    -724.85703
                    3271.31941                      15.83812                    -728.19752
                    2513.35834                      13.34177                    -562.56961
                    1259.20181                      74.61985                    -214.09897
        </DataArray>
        <DataArray type="Float32" Name="Moment" NumberOfComponents="3" format="ascii">
                       0.00000                       0.00000                       0.00000
                       0.00000                       0.00000                       0.00000
                       0.00000                       0.00000                       0.00000
                       0.00000                       0.00000                       0.00000
                      -9.59007                     126.54641                    -130.91572
                     -23.95936                     293.55909                    -303.47893
                     -34.83242                     392.07196                    -404.96346
                     -54.23602                     555.01816                    -572.64600
                     -83.00945                     764.31168                    -787.53740
                    -104.54710                     858.09182                    -882.73556
                    -127.46067                     924.81531                    -949.51077
                    -152.93212                     979.89292                   -1003.80409
                    -147.29871                     837.56983                    -855.91717
                    -163.56795                     835.01139                    -851.19412
                    -173.21640                     809.07070                    -822.89300
                    -173.74859                     770.20629                    -782.24814
                    -158.05092                     684.86533                    -695.12468
                     -80.36259                     345.72573                    -350.83194
                     -69.46100                     299.64366                    -304.09322
        </DataArray>
        <DataArray type="Float32" Name="TranslationalVelocity" NumberOfComponents="3" format="ascii">
                       0.16628                      -1.01335                      -0.91264
                       0.06421                      -1.91957                      -1.78593
                      -0.14856                      -3.67020                      -3.59458
                      -0.36641                      -5.39080                      -5.43413
                      -0.64336                      -7.52234                      -7.75423
                      -0.96708                     -10.17077                     -10.45103
                      -1.28447                     -12.90042                     -13.06943
                      -1.60767                     -15.62825                     -15.69266
                      -1.93772                     -18.35523                     -18.31952
                      -2.27628                     -21.07992                     -20.95083
                      -2.62421                     -23.80023                     -23.58774
                      -2.98403                     -26.51677                     -26.22872
                      -3.35723                     -29.22980                     -28.87221
                      -3.74460                     -31.93974                     -31.51650
                      -4.14575                     -34.64707                     -34.15998
                      -4.48890                     -36.90181                     -36.36157
                      -4.76721                     -38.71021                     -38.11673
                      -5.04214                     -40.55480                     -39.83594
                      -5.18331                     -41.44962                     -40.72263
        </DataArray>
        <DataArray type="Float32" Name="RotationalVelocity" NumberOfComponents="3" format="ascii">
                       0.91763                       0.00829                      -0.11569
                       0.91770                       0.00821                      -0.11577
                       0.91786                       0.00800                      -0.11599
                       0.91805                       0.00771                      -0.11628
                       0.91832                       0.00724                      -0.11675
                       0.91867                       0.00656                      -0.11744
                       0.91903                       0.00573                      -0.11825
                       0.91936                       0.00475                      -0.11923
                       0.91962                       0.00353                      -0.12042
                       0.91980                       0.00205                      -0.12186
                       0.91989                       0.00022                      -0.12363
                       0.91991                      -0.00190                      -0.12568
                       0.91989                      -0.00423                      -0.12793
                       0.91983                      -0.00664                      -0.13025
                       0.91977                      -0.00887                      -0.13241
                       0.91973                      -0.01033                      -0.13381
                       0.91972                      -0.01102                      -0.13448
                       0.91972                      -0.01131                      -0.13475
                       0.91972                      -0.01127                      -0.13472
        </DataArray>
        <DataArray type="Float32" Name="TranslationalAcceleration" NumberOfComponents="3" format="ascii">
                      -0.81726                       0.60776                      -1.12801
                      -0.97391                       1.30520                      -2.06835
                      -1.27718                       2.77730                      -3.88786
                      -1.56618                       4.31819                      -5.64166
                      -1.90693                       6.32877                      -7.74117
                      -2.30090                       8.76190                     -10.21613
                      -2.68198                      11.26236                     -12.62492
                      -3.04581                      13.91701                     -14.89200
                      -3.39226                      16.72221                     -17.02141
                      -3.71516                      19.67108                     -19.01965
                      -4.00700                      22.74188                     -20.90719
                      -4.24899                      25.93553                     -22.68477
                      -4.42210                      29.23891                     -24.36826
                      -4.50808                      32.63845                     -25.97560
                      -4.49437                      36.11912                     -27.52661
                      -4.40789                      39.06777                     -28.79183
                      -4.29329                      41.44748                     -29.80100
                      -4.15512                      43.81696                     -30.85800
                      -4.07689                      45.01694                     -31.35092
        </DataArray>
        <DataArray type="Float32" Name="OrientationX" NumberOfComponents="3" format="ascii">
                       0.94839                      -0.19500                      -0.25006
                       0.94837                      -0.19469                      -0.25038
                       0.94831                      -0.19380                      -0.25130
                       0.94822                      -0.19260                      -0.25254
                       0.94808                      -0.19058                      -0.25462
                       0.95736                      -0.16538                      -0.23686
                       0.96332                      -0.14559                      -0.22544
                       0.96796                      -0.12699                      -0.21664
                       0.97232                      -0.10658                      -0.20794
                       0.97617                      -0.08457                      -0.19984
                       0.97909                      -0.06204                      -0.19376
                       0.98127                      -0.03852                      -0.18877
                       0.98248                      -0.01561                      -0.18573
                       0.98258                       0.00420                      -0.18578
                       0.98247                       0.02293                      -0.18501
                       0.98252                       0.03674                      -0.18249
                       0.98281                       0.04535                      -0.17897
                       0.98305                       0.04942                      -0.17654
                       0.98312                       0.04911                      -0.17623
        </DataArray>
        <DataArray type="Float32" Name="OrientationY" NumberOfComponents="3" format="ascii">
                       0.31363                       0.69318                       0.64895
                       0.31364                       0.69309                       0.64904
                       0.31366                       0.69285                       0.64929
                       0.31368                       0.69256                       0.64959
                       0.31371                       0.69212                       0.65004
                       0.28336                       0.69720                       0.65849
                       0.26132                       0.70014                       0.66446
                       0.24199                       0.70224                       0.66955
                       0.22147                       0.70410                       0.67468
                       0.20028                       0.70559                       0.67973
                       0.18020                       0.70657                       0.68432
                       0.16025                       0.70711                       0.68871
                       0.14217                       0.70717                       0.69260
                       0.12849                       0.70687                       0.69558
                       0.11503                       0.70637                       0.69843
                       0.10376                       0.70584                       0.70073
                       0.09535                       0.70539                       0.70238
                       0.09084                       0.70513                       0.70323
                       0.09084                       0.70513                       0.70323
        </DataArray>
        <DataArray type="Float32" Name="OrientationZ" NumberOfComponents="3" format="ascii">
                       0.04679                      -0.69388                       0.71857
                       0.04717                      -0.69406                       0.71837
                       0.04828                      -0.69455                       0.71782
                       0.04979                      -0.69517                       0.71711
                       0.05234                      -0.69616                       0.71597
                       0.05624                      -0.69754                       0.71434
                       0.06110                      -0.69900                       0.71251
                       0.06710                      -0.70052                       0.71047
                       0.07450                      -0.70206                       0.70821
                       0.08352                      -0.70356                       0.70572
                       0.09445                      -0.70492                       0.70297
                       0.10695                      -0.70606                       0.70003
                       0.12053                      -0.70687                       0.69700
                       0.13425                      -0.70733                       0.69402
                       0.14670                      -0.70747                       0.69135
                       0.15455                      -0.70742                       0.68969
                       0.15810                      -0.70737                       0.68894
                       0.15923                      -0.70735                       0.68869
                       0.15880                      -0.70737                       0.68877
        </DataArray>
      </PointData>
      <Lines>
        <DataArray type="Int32" Name="connectivity" format="ascii">
      0      1
      1      2
      2      3
      3      4
      4      5
      5      6
      6      7
      7      8
      8      9
      9     10
     10     11
     11     12
     12     13
     13     14
     14     15
     15     16
     16     17
     17     18
        </DataArray>
        <DataArray type="Int32" Name="offsets" format="ascii">
      2
      4
      6
      8
     10
     12
     14
     16
     18
     20
     22
     24
     26
     28
     30
     32
     34
     36
        </DataArray>
      </Lines>
    </Piece>
  </PolyData>
</VTKFile>
