<?xml version="1.0"?>
<VTKFile type="PolyData" version="0.1" byte_order="LittleEndian">
  <PolyData>
    <Piece NumberOfPoints="     19" NumberOfVerts="  0" NumberOfLines="     18"
           NumberOfStrips="  0" NumberOfPolys="      0">
      <Points>
        <DataArray type="Float32" NumberOfComponents="3" format="ascii">
                       3.24096                      -0.73029                      93.33638
                       3.51090                      -1.52648                      96.85498
                       3.78417                      -2.32415                     100.37300
                       4.06211                      -3.12376                     103.89020
                       4.34585                      -3.92560                     107.40643
                       4.63654                      -4.72979                     110.92157
                       4.93534                      -5.53637                     114.43546
                       5.24348                      -6.34538                     117.94800
                       5.56230                      -7.15677                     121.45903
                       5.89311                      -7.97043                     124.96843
                       6.23712                      -8.78619                     128.47606
                       6.59524                      -9.60382                     131.98185
                       6.96785                     -10.42304                     135.48576
                       7.35449                     -11.24351                     138.98785
                       7.75357                     -12.06492                     142.48833
                       8.16191                     -12.88690                     145.98761
                       8.57431                     -13.70915                     149.48636
                       8.78073                     -14.12030                     151.23570
                       3.10663                      -0.33250                      91.57696
        </DataArray>
      </Points>
      <PointData>
        <DataArray type="Float32" Name="TranslationalVelocity" NumberOfComponents="3" format="ascii">
                       0.03751                      -3.01653                      -0.64825
                      -0.02252                      -6.29425                      -1.38532
                      -0.06138                      -9.58137                      -2.12763
                      -0.07056                     -12.88086                      -2.87704
                      -0.04268                     -16.19444                      -3.63494
                       0.02946                     -19.52286                      -4.40240
                       0.15332                     -22.86649                      -5.18047
                       0.33682                     -26.22541                      -5.97025
                       0.58835                     -29.59928                      -6.77284
                       0.91631                     -32.98737                      -7.58936
                       1.32837                     -36.38850                      -8.42086
                       1.83026                     -39.80108                      -9.26811
                       2.42434                     -43.22317                     -10.13146
                       3.10771                     -46.65268                     -11.01045
                       3.87006                     -50.08746                     -11.90338
                       4.69115                     -53.52543                     -12.80677
                       5.53790                     -56.96483                     -13.71485
                       5.96266                     -58.68470                     -14.16918
                       0.07164                      -1.37957                      -0.28075
        </DataArray>
        <DataArray type="Float32" Name="RotationalVelocity" NumberOfComponents="3" format="ascii">
                       0.92185                       0.00591                      -0.11195
                       0.92412                       0.01044                      -0.11110
                       0.92746                       0.01754                      -0.10975
                       0.93153                       0.02673                      -0.10798
                       0.93595                       0.03787                      -0.10580
                       0.94054                       0.05099                      -0.10319
                       0.94526                       0.06617                      -0.10012
                       0.95002                       0.08359                      -0.09654
                       0.95469                       0.10334                      -0.09244
                       0.95918                       0.12533                      -0.08781
                       0.96336                       0.14922                      -0.08273
                       0.96710                       0.17433                      -0.07734
                       0.97030                       0.19949                      -0.07190
                       0.97289                       0.22301                      -0.06678
                       0.97477                       0.24256                      -0.06251
                       0.97584                       0.25504                      -0.05977
                       0.97609                       0.25656                      -0.05944
                       0.97601                       0.25403                      -0.06001
                       0.92102                       0.00438                      -0.11224
        </DataArray>
        <DataArray type="Float32" Name="TranslationalAcceleration" NumberOfComponents="3" format="ascii">
                       0.11206                       0.15004                      -2.97723
                      -0.35528                       0.54406                      -6.06100
                      -0.78216                       1.01365                      -9.14987
                      -1.15588                       1.57725                     -12.24726
                      -1.46816                       2.24622                     -15.35584
                      -1.71431                       3.02665                     -18.47782
                      -1.89163                       3.92050                     -21.61610
                      -1.99882                       4.92684                     -24.77443
                      -2.03609                       6.04302                     -27.95709
                      -2.00503                       7.26536                     -31.16873
                      -1.90866                       8.58958                     -34.41417
                      -1.75164                      10.01072                     -37.69779
                      -1.54063                      11.52268                     -41.02284
                      -1.28464                      13.11721                     -44.39020
                      -0.99561                      14.78238                     -47.79646
                      -0.68904                      16.50060                     -51.23180
                      -0.38465                      18.24655                     -54.67836
                      -0.23575                      19.12275                     -56.40168
                       0.35398                      -0.03090                      -1.43617
        </DataArray>
        <DataArray type="Float32" Name="RotationalAcceleration" NumberOfComponents="3" format="ascii">
                       0.09057                      -0.02838                      -0.01633
                       0.07340                      -0.01925                      -0.01296
                       0.05033                      -0.00597                      -0.00820
                       0.02359                       0.01027                      -0.00250
                      -0.00531                       0.02820                       0.00375
                      -0.03510                       0.04709                       0.01029
                      -0.06468                       0.06661                       0.01695
                      -0.09342                       0.08634                       0.02360
                      -0.12088                       0.10592                       0.03011
                      -0.14679                       0.12496                       0.03638
                      -0.17092                       0.14305                       0.04231
                      -0.19307                       0.15969                       0.04775
                      -0.21292                       0.17426                       0.05255
                      -0.23000                       0.18598                       0.05650
                      -0.24362                       0.19388                       0.05933
                      -0.25280                       0.19677                       0.06068
                      -0.25611                       0.19325                       0.06013
                      -0.25610                       0.18970                       0.05933
                       0.09735                      -0.03176                      -0.01761
        </DataArray>
        <DataArray type="Float32" Name="OrientationX" NumberOfComponents="3" format="ascii">
                       0.96402                      -0.23383                      -0.12647
                       0.96396                      -0.23365                      -0.12723
                       0.96387                      -0.23338                      -0.12842
                       0.96706                      -0.22041                      -0.12733
                       0.97396                      -0.19046                      -0.12299
                       0.97739                      -0.17304                      -0.12154
                       0.98052                      -0.15528                      -0.12031
                       0.98346                      -0.13641                      -0.11916
                       0.98604                      -0.11717                      -0.11827
                       0.98812                      -0.09860                      -0.11784
                       0.98980                      -0.08021                      -0.11771
                       0.99104                      -0.06267                      -0.11793
                       0.99173                      -0.04836                      -0.11885
                       0.99216                      -0.03563                      -0.11982
                       0.99249                      -0.02302                      -0.12015
                       0.99279                      -0.01076                      -0.11938
                       0.99303                      -0.00294                      -0.11783
                       0.99314                      -0.00064                      -0.11689
                       0.96404                      -0.23389                      -0.12621
        </DataArray>
        <DataArray type="Float32" Name="OrientationY" NumberOfComponents="3" format="ascii">
                       0.25525                       0.94708                       0.19464
                       0.25526                       0.94705                       0.19479
                       0.25528                       0.94700                       0.19500
                       0.24245                       0.94996                       0.19694
                       0.21239                       0.95627                       0.20108
                       0.19517                       0.95942                       0.20351
                       0.17767                       0.96230                       0.20593
                       0.15911                       0.96500                       0.20845
                       0.14026                       0.96738                       0.21096
                       0.12217                       0.96931                       0.21335
                       0.10432                       0.97087                       0.21569
                       0.08740                       0.97205                       0.21789
                       0.07377                       0.97278                       0.21969
                       0.06168                       0.97326                       0.22129
                       0.04956                       0.97359                       0.22287
                       0.03754                       0.97377                       0.22440
                       0.02963                       0.97382                       0.22538
                       0.02719                       0.97383                       0.22566
                       0.25525                       0.94709                       0.19458
        </DataArray>
        <DataArray type="Float32" Name="OrientationZ" NumberOfComponents="3" format="ascii">
                       0.07426                      -0.21992                       0.97269
                       0.07498                      -0.22025                       0.97256
                       0.07610                      -0.22074                       0.97236
                       0.07755                      -0.22133                       0.97211
                       0.07932                      -0.22197                       0.97182
                       0.08139                      -0.22262                       0.97150
                       0.08380                      -0.22329                       0.97114
                       0.08656                      -0.22396                       0.97075
                       0.08969                      -0.22461                       0.97031
                       0.09319                      -0.22522                       0.96984
                       0.09699                      -0.22577                       0.96934
                       0.10098                      -0.22625                       0.96882
                       0.10499                      -0.22664                       0.96830
                       0.10873                      -0.22695                       0.96782
                       0.11185                      -0.22715                       0.96742
                       0.11384                      -0.22727                       0.96716
                       0.11409                      -0.22730                       0.96712
                       0.11369                      -0.22730                       0.96717
                       0.07402                      -0.21980                       0.97273
        </DataArray>
      </PointData>
      <Lines>
        <DataArray type="Int32" Name="connectivity" format="ascii">
      0      1
      1      2
      2      3
      3      4
      4      5
      5      6
      6      7
      7      8
      8      9
      9     10
     10     11
     11     12
     12     13
     13     14
     14     15
     15     16
     16     17
     18      0
        </DataArray>
        <DataArray type="Int32" Name="offsets" format="ascii">
      2
      4
      6
      8
     10
     12
     14
     16
     18
     20
     22
     24
     26
     28
     30
     32
     34
     36
        </DataArray>
      </Lines>
    </Piece>
  </PolyData>
</VTKFile>
