<?xml version="1.0"?>
<VTKFile type="PolyData" version="0.1" byte_order="LittleEndian">
  <PolyData>
    <Piece NumberOfPoints="     19" NumberOfVerts="  0" NumberOfLines="     18"
           NumberOfStrips="  0" NumberOfPolys="      0">
      <Points>
        <DataArray type="Float32" NumberOfComponents="3" format="ascii">
                       2.61891                      -0.67203                      86.94868
                       2.02167                      -1.38351                      83.45233
                       1.43288                      -2.09486                      79.95452
                       0.85571                      -2.80583                      76.45470
                       0.29284                      -3.51631                      72.95246
                      -0.25279                      -4.22620                      69.44738
                      -0.77733                      -4.93524                      65.93891
                      -1.27578                      -5.64298                      62.42638
                      -1.74196                      -6.34897                      58.90910
                      -2.16879                      -7.05284                      55.38641
                      -2.54887                      -7.75432                      51.85792
                      -2.87536                      -8.45337                      48.32361
                      -3.14316                      -9.15015                      44.78390
                      -3.35042                      -9.84493                      41.23972
                      -3.50034                     -10.53813                      37.69226
                      -3.60335                     -11.23031                      34.14282
                      -3.67947                     -11.92204                      30.59254
                      -3.71398                     -12.26786                      28.81730
                       2.91918                      -0.31630                      88.69657
        </DataArray>
      </Points>
      <PointData>
        <DataArray type="Float32" Name="TranslationalVelocity" NumberOfComponents="3" format="ascii">
                       0.10448                       2.98476                      -0.54635
                      -0.01760                       6.28315                      -1.19669
                      -0.15082                       9.57659                      -1.84406
                      -0.29976                      12.86355                      -2.48725
                      -0.46840                      16.14310                      -3.12548
                      -0.66005                      19.41494                      -3.75833
                      -0.87703                      22.67913                      -4.38560
                      -1.12065                      25.93598                      -5.00731
                      -1.39113                      29.18594                      -5.62387
                      -1.68761                      32.42944                      -6.23609
                      -2.00812                      35.66671                      -6.84521
                      -2.34960                      38.89774                      -7.45275
                      -2.70792                      42.12228                      -8.06034
                      -3.07792                      45.34006                      -8.66935
                      -3.45351                      48.55117                      -9.28068
                      -3.82774                      51.75659                      -9.89454
                      -4.19302                      54.95878                     -10.51020
                      -4.37243                      56.55948                     -10.81833
                       0.16335                       1.33454                      -0.22061
        </DataArray>
        <DataArray type="Float32" Name="RotationalVelocity" NumberOfComponents="3" format="ascii">
                       0.92401                       0.00986                      -0.11702
                       0.92273                       0.01229                      -0.11729
                       0.92086                       0.01608                      -0.11774
                       0.91857                       0.02106                      -0.11836
                       0.91609                       0.02706                      -0.11916
                       0.91358                       0.03383                      -0.12010
                       0.91111                       0.04109                      -0.12115
                       0.90879                       0.04854                      -0.12227
                       0.90668                       0.05588                      -0.12340
                       0.90483                       0.06279                      -0.12448
                       0.90326                       0.06896                      -0.12547
                       0.90198                       0.07409                      -0.12630
                       0.90098                       0.07792                      -0.12690
                       0.90023                       0.08019                      -0.12723
                       0.89974                       0.08068                      -0.12725
                       0.89948                       0.07924                      -0.12691
                       0.89949                       0.07574                      -0.12620
                       0.89955                       0.07346                      -0.12575
                       0.92449                       0.00900                      -0.11693
        </DataArray>
        <DataArray type="Float32" Name="TranslationalAcceleration" NumberOfComponents="3" format="ascii">
                      -0.61582                       0.45436                       2.90234
                      -0.23809                       1.19851                       5.92331
                       0.22446                       2.03275                       8.90180
                       0.81107                       2.98268                      11.82385
                       1.55784                       4.06397                      14.68017
                       2.48242                       5.28110                      17.46889
                       3.57158                       6.62948                      20.19637
                       4.77489                       8.09757                      22.87676
                       6.00374                       9.66904                      25.53025
                       7.13461                      11.32559                      28.17946
                       8.01728                      13.04936                      30.84475
                       8.48814                      14.82455                      33.53918
                       8.38879                      16.63763                      36.26499
                       7.59018                      18.47655                      39.01311
                       6.02256                      20.33070                      41.76723
                       3.71111                      22.19122                      44.51281
                       0.81693                      24.04979                      47.24918
                      -0.74585                      24.97752                      48.61624
                      -0.78809                       0.10110                       1.38315
        </DataArray>
        <DataArray type="Float32" Name="RotationalAcceleration" NumberOfComponents="3" format="ascii">
                       0.02404                       0.00779                      -0.01139
                       0.04624                      -0.01145                      -0.01130
                       0.07732                      -0.04119                      -0.01061
                       0.11493                      -0.08259                      -0.00867
                       0.15545                      -0.13243                      -0.00551
                       0.19557                      -0.18342                      -0.00205
                       0.23277                      -0.22561                       0.00012
                       0.26491                      -0.24837                      -0.00079
                       0.29071                      -0.24139                      -0.00666
                       0.30988                      -0.19611                      -0.01918
                       0.32301                      -0.10704                      -0.03957
                       0.33130                       0.02683                      -0.06824
                       0.33604                       0.20071                      -0.10445
                       0.33835                       0.40266                      -0.14595
                       0.33932                       0.61229                      -0.18877
                       0.33951                       0.79941                      -0.22689
                       0.33822                       0.92283                      -0.25179
                       0.33701                       0.96273                      -0.25970
                       0.01537                       0.01523                      -0.01141
        </DataArray>
        <DataArray type="Float32" Name="OrientationX" NumberOfComponents="3" format="ascii">
                       0.95361                       0.21756                      -0.20810
                       0.95390                       0.21791                      -0.20636
                       0.95437                       0.21847                      -0.20361
                       0.95820                       0.20643                      -0.19810
                       0.96581                       0.17748                      -0.18899
                       0.97014                       0.16144                      -0.18101
                       0.97436                       0.14537                      -0.17172
                       0.97860                       0.12857                      -0.16064
                       0.98270                       0.11185                      -0.14762
                       0.98647                       0.09628                      -0.13268
                       0.98994                       0.08133                      -0.11577
                       0.99295                       0.06761                      -0.09734
                       0.99526                       0.05733                      -0.07852
                       0.99701                       0.04855                      -0.06011
                       0.99828                       0.03939                      -0.04343
                       0.99909                       0.02956                      -0.03068
                       0.99942                       0.02247                      -0.02544
                       0.99948                       0.02002                      -0.02519
                       0.95351                       0.21744                      -0.20866
        </DataArray>
        <DataArray type="Float32" Name="OrientationY" NumberOfComponents="3" format="ascii">
                       0.25115                      -0.95603                       0.15143
                       0.25122                      -0.95595                       0.15183
                       0.25131                      -0.95584                       0.15238
                       0.23869                      -0.95853                       0.15569
                       0.20899                      -0.96434                       0.16238
                       0.19198                      -0.96720                       0.16636
                       0.17469                      -0.96980                       0.17021
                       0.15630                      -0.97225                       0.17404
                       0.13759                      -0.97443                       0.17765
                       0.11960                      -0.97622                       0.18083
                       0.10180                      -0.97771                       0.18363
                       0.08489                      -0.97888                       0.18597
                       0.07124                      -0.97965                       0.18763
                       0.05912                      -0.98023                       0.18885
                       0.04696                      -0.98070                       0.18977
                       0.03488                      -0.98109                       0.19040
                       0.02692                      -0.98128                       0.19068
                       0.02447                      -0.98134                       0.19074
                       0.25113                      -0.95606                       0.15127
        </DataArray>
        <DataArray type="Float32" Name="OrientationZ" NumberOfComponents="3" format="ascii">
                      -0.16600                      -0.19667                      -0.96632
                      -0.16418                      -0.19667                      -0.96663
                      -0.16133                      -0.19659                      -0.96712
                      -0.15775                      -0.19646                      -0.96774
                      -0.15344                      -0.19632                      -0.96846
                      -0.14821                      -0.19614                      -0.96931
                      -0.14179                      -0.19585                      -0.97033
                      -0.13381                      -0.19543                      -0.97155
                      -0.12398                      -0.19488                      -0.97296
                      -0.11212                      -0.19425                      -0.97452
                      -0.09826                      -0.19357                      -0.97615
                      -0.08271                      -0.19292                      -0.97772
                      -0.06617                      -0.19233                      -0.97910
                      -0.04976                      -0.19184                      -0.98016
                      -0.03512                      -0.19149                      -0.98087
                      -0.02447                      -0.19130                      -0.98123
                      -0.02068                      -0.19126                      -0.98132
                      -0.02090                      -0.19126                      -0.98132
                      -0.16660                      -0.19664                      -0.96622
        </DataArray>
      </PointData>
      <Lines>
        <DataArray type="Int32" Name="connectivity" format="ascii">
      0      1
      1      2
      2      3
      3      4
      4      5
      5      6
      6      7
      7      8
      8      9
      9     10
     10     11
     11     12
     12     13
     13     14
     14     15
     15     16
     16     17
     18      0
        </DataArray>
        <DataArray type="Int32" Name="offsets" format="ascii">
      2
      4
      6
      8
     10
     12
     14
     16
     18
     20
     22
     24
     26
     28
     30
     32
     34
     36
        </DataArray>
      </Lines>
    </Piece>
  </PolyData>
</VTKFile>
