<?xml version="1.0"?>
<VTKFile type="PolyData" version="0.1" byte_order="LittleEndian">
  <PolyData>
    <Piece NumberOfPoints="     19" NumberOfVerts="  0" NumberOfLines="     18"
           NumberOfStrips="  0" NumberOfPolys="      0">
      <Points>
        <DataArray type="Float32" NumberOfComponents="3" format="ascii">
                       3.28687                      -1.93317                      92.82376
                       3.49883                      -4.02951                      95.76447
                       3.71851                      -6.12838                      98.70281
                       3.94895                      -8.23058                     101.63793
                       4.19278                     -10.33659                     104.56924
                       4.45281                     -12.44664                     107.49625
                       4.73230                     -14.56089                     110.41842
                       5.03524                     -16.67950                     113.33508
                       5.36624                     -18.80245                     116.24552
                       5.73038                     -20.92960                     119.14891
                       6.13274                     -23.06053                     122.04446
                       6.57777                     -25.19459                     124.93145
                       7.06838                     -27.33090                     127.80936
                       7.60493                     -29.46853                     130.67812
                       8.18394                     -31.60657                     133.53835
                       8.79659                     -33.74442                     136.39177
                       9.42708                     -35.88198                     139.24157
                       9.74431                     -36.95072                     140.66606
                       3.18238                      -0.88551                      91.35293
        </DataArray>
      </Points>
      <PointData>
        <DataArray type="Float32" Name="TranslationalVelocity" NumberOfComponents="3" format="ascii">
                       0.13860                      -2.50698                      -1.70647
                      -0.06691                      -5.23448                      -3.63601
                      -0.27307                      -7.96517                      -5.57114
                      -0.47985                     -10.69976                      -7.51348
                      -0.68698                     -13.43869                      -9.46405
                      -0.89420                     -16.18212                     -11.42335
                      -1.10153                     -18.92992                     -13.39163
                      -1.30938                     -21.68170                     -15.36888
                      -1.51849                     -24.43692                     -17.35484
                      -1.72999                     -27.19496                     -19.34895
                      -1.94525                     -29.95515                     -21.35035
                      -2.16577                     -32.71690                     -23.35781
                      -2.39297                     -35.47964                     -25.36988
                      -2.62798                     -38.24293                     -27.38493
                      -2.87132                     -41.00645                     -29.40141
                      -3.12257                     -43.77008                     -31.41804
                      -3.38002                     -46.53391                     -33.43418
                      -3.50999                     -47.91589                     -34.44210
                       0.24120                      -1.14391                      -0.74285
        </DataArray>
        <DataArray type="Float32" Name="RotationalVelocity" NumberOfComponents="3" format="ascii">
                       0.91864                       0.01141                      -0.11395
                       0.91992                       0.01137                      -0.11406
                       0.92167                       0.01135                      -0.11420
                       0.92374                       0.01141                      -0.11430
                       0.92598                       0.01155                      -0.11436
                       0.92827                       0.01175                      -0.11438
                       0.93051                       0.01190                      -0.11443
                       0.93263                       0.01192                      -0.11457
                       0.93460                       0.01172                      -0.11485
                       0.93636                       0.01122                      -0.11532
                       0.93793                       0.01037                      -0.11604
                       0.93928                       0.00915                      -0.11701
                       0.94043                       0.00759                      -0.11820
                       0.94136                       0.00579                      -0.11954
                       0.94205                       0.00393                      -0.12092
                       0.94248                       0.00226                      -0.12214
                       0.94259                       0.00113                      -0.12295
                       0.94254                       0.00076                      -0.12321
                       0.91814                       0.01142                      -0.11390
        </DataArray>
        <DataArray type="Float32" Name="TranslationalAcceleration" NumberOfComponents="3" format="ascii">
                      -0.01912                       2.04527                      -1.78951
                      -0.22864                       4.19313                      -4.05342
                      -0.51286                       6.30345                      -6.35133
                      -0.89785                       8.36839                      -8.68975
                      -1.40321                      10.38288                     -11.07204
                      -2.04253                      12.34340                     -13.49933
                      -2.82452                      14.24822                     -15.97046
                      -3.75328                      16.09671                     -18.48247
                      -4.82825                      17.88846                     -21.03140
                      -6.04421                      19.62298                     -23.61274
                      -7.39137                      21.29978                     -26.22177
                      -8.85531                      22.91864                     -28.85395
                     -10.41690                      24.48042                     -31.50532
                     -12.05232                      25.98807                     -34.17281
                     -13.73285                      27.44797                     -36.85460
                     -15.42477                      28.87138                     -39.55019
                     -17.08927                      30.27598                     -42.25987
                     -17.90948                      30.97625                     -43.61828
                       0.07062                       0.96318                      -0.66498
        </DataArray>
        <DataArray type="Float32" Name="RotationalAcceleration" NumberOfComponents="3" format="ascii">
                      -0.12544                       0.04741                       0.00656
                      -0.11283                       0.03448                      -0.00353
                      -0.09638                       0.01516                      -0.01845
                      -0.07775                      -0.00922                      -0.03711
                      -0.05771                      -0.03721                      -0.05845
                      -0.03703                      -0.06764                      -0.08157
                      -0.01649                      -0.09958                      -0.10574
                       0.00359                      -0.13196                      -0.13021
                       0.02307                      -0.16377                      -0.15423
                       0.04184                      -0.19398                      -0.17705
                       0.05980                      -0.22155                      -0.19795
                       0.07680                      -0.24544                      -0.21615
                       0.09255                      -0.26457                      -0.23087
                       0.10660                      -0.27786                      -0.24132
                       0.11831                      -0.28418                      -0.24665
                       0.12675                      -0.28238                      -0.24596
                       0.13064                      -0.27131                      -0.23835
                       0.13126                      -0.26332                      -0.23270
                      -0.13051                       0.05212                       0.01027
        </DataArray>
        <DataArray type="Float32" Name="OrientationX" NumberOfComponents="3" format="ascii">
                       0.95256                      -0.21181                      -0.21854
                       0.95246                      -0.21076                      -0.22001
                       0.95228                      -0.20912                      -0.22231
                       0.95595                      -0.19653                      -0.21804
                       0.96406                      -0.16946                      -0.20461
                       0.96807                      -0.15238                      -0.19903
                       0.97173                      -0.13449                      -0.19405
                       0.97514                      -0.11505                      -0.18938
                       0.97807                      -0.09457                      -0.18558
                       0.98028                      -0.07387                      -0.18331
                       0.98186                      -0.05259                      -0.18218
                       0.98273                      -0.03144                      -0.18236
                       0.98270                      -0.01270                      -0.18478
                       0.98221                       0.00456                      -0.18774
                       0.98169                       0.02086                      -0.18933
                       0.98148                       0.03513                      -0.18831
                       0.98173                       0.04284                      -0.18537
                       0.98202                       0.04448                      -0.18348
                       0.95260                      -0.21216                      -0.21805
        </DataArray>
        <DataArray type="Float32" Name="OrientationY" NumberOfComponents="3" format="ascii">
                       0.29881                       0.78719                       0.53949
                       0.29882                       0.78706                       0.53967
                       0.29884                       0.78688                       0.53992
                       0.28616                       0.78938                       0.54313
                       0.25644                       0.79483                       0.54999
                       0.23939                       0.79745                       0.55387
                       0.22207                       0.79979                       0.55770
                       0.20368                       0.80193                       0.56162
                       0.18501                       0.80373                       0.56549
                       0.16710                       0.80509                       0.56913
                       0.14943                       0.80605                       0.57267
                       0.13270                       0.80661                       0.57600
                       0.11924                       0.80677                       0.57871
                       0.10734                       0.80670                       0.58114
                       0.09541                       0.80644                       0.58356
                       0.08357                       0.80604                       0.58594
                       0.07577                       0.80570                       0.58746
                       0.07335                       0.80559                       0.58791
                       0.29881                       0.78724                       0.53941
        </DataArray>
        <DataArray type="Float32" Name="OrientationZ" NumberOfComponents="3" format="ascii">
                       0.05776                      -0.57920                       0.81314
                       0.05942                      -0.57976                       0.81262
                       0.06203                      -0.58059                       0.81183
                       0.06537                      -0.58160                       0.81084
                       0.06943                      -0.58269                       0.80972
                       0.07432                      -0.58383                       0.80846
                       0.08019                      -0.58502                       0.80704
                       0.08726                      -0.58623                       0.80543
                       0.09568                      -0.58742                       0.80360
                       0.10554                      -0.58854                       0.80155
                       0.11673                      -0.58951                       0.79929
                       0.12898                      -0.59025                       0.79685
                       0.14173                      -0.59073                       0.79432
                       0.15409                      -0.59095                       0.79185
                       0.16486                      -0.59094                       0.78969
                       0.17237                      -0.59082                       0.78817
                       0.17452                      -0.59078                       0.78773
                       0.17396                      -0.59080                       0.78784
                       0.05721                      -0.57900                       0.81332
        </DataArray>
      </PointData>
      <Lines>
        <DataArray type="Int32" Name="connectivity" format="ascii">
      0      1
      1      2
      2      3
      3      4
      4      5
      5      6
      6      7
      7      8
      8      9
      9     10
     10     11
     11     12
     12     13
     13     14
     14     15
     15     16
     16     17
     18      0
        </DataArray>
        <DataArray type="Int32" Name="offsets" format="ascii">
      2
      4
      6
      8
     10
     12
     14
     16
     18
     20
     22
     24
     26
     28
     30
     32
     34
     36
        </DataArray>
      </Lines>
    </Piece>
  </PolyData>
</VTKFile>
