<?xml version="1.0"?>
<VTKFile type="PolyData" version="0.1" byte_order="LittleEndian">
  <PolyData>
    <Piece NumberOfPoints="     19" NumberOfVerts="  0" NumberOfLines="     18"
           NumberOfStrips="  0" NumberOfPolys="      0">
      <Points>
        <DataArray type="Float32" NumberOfComponents="3" format="ascii">
                       2.32588                       2.82888                      88.49515
                       1.96716                       5.95566                      86.71134
                       1.61678                       9.08321                      84.92724
                       1.27797                      12.21185                      83.14282
                       0.95341                      15.34174                      81.35796
                       0.64591                      18.47297                      79.57244
                       0.35887                      21.60565                      77.78605
                       0.09644                      24.73986                      75.99858
                      -0.13643                      27.87563                      74.20976
                      -0.33427                      31.01278                      72.41919
                      -0.49153                      34.15097                      70.62644
                      -0.60333                      37.28957                      68.83101
                      -0.66631                      40.42778                      67.03251
                      -0.67987                      43.56476                      65.23077
                      -0.64751                      46.69985                      63.42591
                      -0.57847                      49.83293                      61.61846
                      -0.48955                      52.96471                      59.80954
                      -0.44276                      54.53043                      58.90489
                       2.50687                       1.26564                      89.38697
        </DataArray>
      </Points>
      <PointData>
        <DataArray type="Float32" Name="TranslationalVelocity" NumberOfComponents="3" format="ascii">
                       0.02229                       1.51985                       2.65519
                       0.36965                       3.22136                       5.56785
                       0.71637                       4.92047                       8.47832
                       1.06208                       6.61639                      11.38615
                       1.40634                       8.30867                      14.29109
                       1.74916                       9.99713                      17.19306
                       2.09135                      11.68170                      20.09220
                       2.43473                      13.36235                      22.98871
                       2.78211                      15.03909                      25.88280
                       3.13716                      16.71193                      28.77451
                       3.50414                      18.38075                      31.66364
                       3.88745                      20.04535                      34.54978
                       4.29112                      21.70538                      37.43237
                       4.71803                      23.36046                      40.31088
                       5.16912                      25.01049                      43.18513
                       5.64234                      26.65602                      46.05547
                       6.13154                      28.29873                      48.92326
                       6.37907                      29.11966                      50.35676
                      -0.15151                       0.66862                       1.19837
        </DataArray>
        <DataArray type="Float32" Name="RotationalVelocity" NumberOfComponents="3" format="ascii">
                       0.93267                      -0.00645                      -0.10750
                       0.93186                      -0.00644                      -0.10732
                       0.93076                      -0.00642                      -0.10706
                       0.92947                      -0.00634                      -0.10666
                       0.92809                      -0.00622                      -0.10616
                       0.92669                      -0.00615                      -0.10575
                       0.92534                      -0.00625                      -0.10565
                       0.92406                      -0.00666                      -0.10611
                       0.92286                      -0.00751                      -0.10737
                       0.92171                      -0.00892                      -0.10960
                       0.92059                      -0.01094                      -0.11291
                       0.91946                      -0.01356                      -0.11727
                       0.91832                      -0.01669                      -0.12252
                       0.91719                      -0.02011                      -0.12829
                       0.91615                      -0.02349                      -0.13399
                       0.91531                      -0.02632                      -0.13879
                       0.91488                      -0.02796                      -0.14157
                       0.91480                      -0.02838                      -0.14230
                       0.93298                      -0.00646                      -0.10758
        </DataArray>
        <DataArray type="Float32" Name="TranslationalAcceleration" NumberOfComponents="3" format="ascii">
                       1.28007                      -2.44916                       1.50613
                       1.34269                      -5.24827                       3.03359
                       1.36819                      -8.08678                       4.48607
                       1.33926                     -10.97525                       5.84438
                       1.23930                     -13.91987                       7.09758
                       1.05726                     -16.92278                       8.24158
                       0.79228                     -19.98292                       9.27664
                       0.45576                     -23.09679                      10.20573
                       0.07146                     -26.25925                      11.03336
                      -0.32548                     -29.46467                      11.76453
                      -0.69086                     -32.70811                      12.40407
                      -0.97532                     -35.98632                      12.95662
                      -1.12961                     -39.29826                      13.42720
                      -1.11118                     -42.64470                      13.82235
                      -0.89247                     -46.02651                      14.15140
                      -0.47053                     -49.44164                      14.42795
                       0.12208                     -52.88107                      14.67174
                       0.45440                     -54.60515                      14.78838
                       1.24156                      -1.05787                       0.72657
        </DataArray>
        <DataArray type="Float32" Name="RotationalAcceleration" NumberOfComponents="3" format="ascii">
                      -0.01263                       0.02355                       0.01448
                      -0.03204                       0.02576                       0.02231
                      -0.05862                       0.02960                       0.03448
                      -0.08981                       0.03549                       0.05118
                      -0.12315                       0.04327                       0.07162
                      -0.15681                       0.05196                       0.09372
                      -0.18963                       0.05999                       0.11451
                      -0.22080                       0.06573                       0.13093
                      -0.24993                       0.06754                       0.14004
                      -0.27700                       0.06397                       0.13931
                      -0.30220                       0.05401                       0.12699
                      -0.32582                       0.03725                       0.10245
                      -0.34790                       0.01416                       0.06647
                      -0.36813                      -0.01380                       0.02159
                      -0.38569                      -0.04389                      -0.02756
                      -0.39909                      -0.07192                      -0.07396
                      -0.40581                      -0.09210                      -0.10796
                      -0.40710                      -0.09940                      -0.12049
                      -0.00504                       0.02276                       0.01155
        </DataArray>
        <DataArray type="Float32" Name="OrientationX" NumberOfComponents="3" format="ascii">
                       0.98626                       0.15162                       0.06561
                       0.98644                       0.15006                       0.06649
                       0.98671                       0.14763                       0.06788
                       0.98871                       0.13813                       0.05809
                       0.99229                       0.11940                       0.03329
                       0.99412                       0.10633                       0.02046
                       0.99571                       0.09221                       0.00795
                       0.99706                       0.07645                      -0.00482
                       0.99810                       0.05927                      -0.01708
                       0.99877                       0.04113                      -0.02784
                       0.99905                       0.02182                      -0.03761
                       0.99894                       0.00195                      -0.04593
                       0.99856                      -0.01677                      -0.05104
                       0.99790                      -0.03441                      -0.05493
                       0.99694                      -0.05062                      -0.05964
                       0.99578                      -0.06378                      -0.06596
                       0.99498                      -0.06993                      -0.07157
                       0.99475                      -0.07072                      -0.07394
                       0.98620                       0.15213                       0.06531
        </DataArray>
        <DataArray type="Float32" Name="OrientationY" NumberOfComponents="3" format="ascii">
                       0.13145                      -0.47970                      -0.86753
                       0.13147                      -0.47990                      -0.86741
                       0.13150                      -0.48017                      -0.86726
                       0.11839                      -0.48239                      -0.86792
                       0.08773                      -0.48673                      -0.86914
                       0.07021                      -0.48908                      -0.86941
                       0.05243                      -0.49120                      -0.86947
                       0.03361                      -0.49314                      -0.86930
                       0.01451                      -0.49476                      -0.86891
                      -0.00378                      -0.49599                      -0.86832
                      -0.02181                      -0.49684                      -0.86757
                      -0.03888                      -0.49729                      -0.86671
                      -0.05261                      -0.49741                      -0.86592
                      -0.06477                      -0.49729                      -0.86516
                      -0.07694                      -0.49691                      -0.86438
                      -0.08900                      -0.49631                      -0.86357
                      -0.09692                      -0.49580                      -0.86301
                      -0.09937                      -0.49562                      -0.86283
                       0.13144                      -0.47963                      -0.86757
        </DataArray>
        <DataArray type="Float32" Name="OrientationZ" NumberOfComponents="3" format="ascii">
                      -0.10006                       0.86423                      -0.49304
                      -0.09826                       0.86439                      -0.49312
                      -0.09544                       0.86466                      -0.49321
                      -0.09187                       0.86499                      -0.49330
                      -0.08757                       0.86535                      -0.49345
                      -0.08244                       0.86574                      -0.49367
                      -0.07627                       0.86615                      -0.49393
                      -0.06884                       0.86658                      -0.49426
                      -0.05995                       0.86700                      -0.49468
                      -0.04952                       0.86735                      -0.49522
                      -0.03762                       0.86757                      -0.49589
                      -0.02454                       0.86758                      -0.49669
                      -0.01087                       0.86735                      -0.49758
                       0.00245                       0.86690                      -0.49847
                       0.01412                       0.86632                      -0.49928
                       0.02234                       0.86580                      -0.49989
                       0.02486                       0.86562                      -0.50009
                       0.02438                       0.86565                      -0.50005
                      -0.10066                       0.86419                      -0.49300
        </DataArray>
      </PointData>
      <Lines>
        <DataArray type="Int32" Name="connectivity" format="ascii">
      0      1
      1      2
      2      3
      3      4
      4      5
      5      6
      6      7
      7      8
      8      9
      9     10
     10     11
     11     12
     12     13
     13     14
     14     15
     15     16
     16     17
     18      0
        </DataArray>
        <DataArray type="Int32" Name="offsets" format="ascii">
      2
      4
      6
      8
     10
     12
     14
     16
     18
     20
     22
     24
     26
     28
     30
     32
     34
     36
        </DataArray>
      </Lines>
    </Piece>
  </PolyData>
</VTKFile>
