<?xml version="1.0"?>
<VTKFile type="PolyData" version="0.1" byte_order="LittleEndian">
  <PolyData>
    <Piece NumberOfPoints="     19" NumberOfVerts="  0" NumberOfLines="     18"
           NumberOfStrips="  0" NumberOfPolys="      0">
      <Points>
        <DataArray type="Float32" NumberOfComponents="3" format="ascii">
                       2.83487                       0.22413                      91.60660
                       2.93219                       0.44613                      92.95163
                       3.10755                       0.79640                      95.65874
                       3.27749                       1.10178                      98.37381
                       3.49302                       1.45568                     101.77222
                       3.81723                       2.01943                     105.82193
                       4.18437                       2.70861                     109.84715
                       4.57578                       3.39703                     113.87021
                       5.00062                       4.08597                     117.88979
                       5.46662                       4.77304                     121.90512
                       5.97640                       5.45474                     125.91599
                       6.54514                       6.13200                     129.91968
                       7.18095                       6.80508                     133.91396
                       7.88822                       7.47454                     137.89683
                       8.66729                       8.14102                     141.86682
                       9.36283                       8.69490                     145.16607
                       9.94226                       9.14522                     147.79933
                      10.52654                       9.64978                     150.42282
                      10.81909                       9.86087                     151.74102
        </DataArray>
      </Points>
      <PointData>
        <DataArray type="Float32" Name="Force" NumberOfComponents="3" format="ascii">
                      -0.03350                       1.72253                      -0.28647
                      81.24038                      24.72168                     -10.07296
                      98.86752                      59.52963                     -17.33624
                      86.28416                      77.63241                     -19.60448
                     865.39496                    -331.35140                     -13.09490
                    1192.97751                    -467.64836                     -21.86578
                    1357.92032                    -438.11674                     -48.63188
                    1709.48474                    -467.72692                     -87.69027
                    1866.62983                    -439.03602                    -124.71028
                    2142.98324                    -443.30725                    -177.51801
                    2600.20048                    -476.43131                    -262.01568
                    2971.18697                    -493.80373                    -356.27479
                    3422.31926                    -540.47180                    -476.76033
                    3742.72093                    -556.81255                    -596.66878
                    4022.50201                    -566.06312                    -716.04718
                    4182.84403                    -554.84363                    -797.02301
                    4098.48842                    -507.96707                    -808.73510
                    3001.53512                    -357.43314                    -600.94562
                    1150.91195                      -4.66433                    -252.63099
        </DataArray>
        <DataArray type="Float32" Name="Moment" NumberOfComponents="3" format="ascii">
                       0.00000                       0.00000                       0.00000
                       0.00000                       0.00000                       0.00000
                       0.00000                       0.00000                       0.00000
                       0.00000                       0.00000                       0.00000
                     -22.32146                     -47.18721                    -281.12702
                     -32.39289                     -64.63868                    -384.88515
                     -49.67751                     -92.72667                    -551.75724
                     -76.48556                    -132.19495                    -785.94545
                    -108.37861                    -171.48610                   -1018.47394
                    -135.29451                    -193.77616                   -1149.35663
                    -158.31496                    -202.97995                   -1202.00686
                    -187.61167                    -214.42609                   -1267.40643
                    -194.59057                    -198.63614                   -1171.64496
                    -215.05857                    -197.82675                   -1164.38434
                    -226.55419                    -190.95863                   -1121.74177
                    -225.85737                    -180.60866                   -1059.58874
                    -205.70921                    -160.59738                    -941.61691
                    -103.51194                     -80.07437                    -469.38275
                     -84.26853                     -65.28376                    -382.69711
        </DataArray>
        <DataArray type="Float32" Name="TranslationalVelocity" NumberOfComponents="3" format="ascii">
                      -0.48859                      -1.41929                       0.19457
                      -0.48214                      -2.67493                       0.40134
                      -0.47979                      -5.19797                       0.72779
                      -0.48296                      -7.72160                       1.01229
                      -0.49143                     -10.86949                       1.34197
                      -0.48916                     -14.60987                       1.86507
                      -0.47825                     -18.31052                       2.50063
                      -0.47513                     -21.98917                       3.13266
                      -0.48239                     -25.64574                       3.76278
                      -0.50350                     -29.28111                       4.38965
                      -0.54029                     -32.89854                       5.01120
                      -0.59737                     -36.49644                       5.62965
                      -0.67735                     -40.07541                       6.24688
                      -0.78143                     -43.63621                       6.86495
                      -0.90857                     -47.18012                       7.48556
                      -1.02896                     -50.12273                       8.00522
                      -1.13139                     -52.47037                       8.42927
                      -1.22953                     -54.80894                       8.90081
                      -1.28294                     -55.98381                       9.10071
        </DataArray>
        <DataArray type="Float32" Name="RotationalVelocity" NumberOfComponents="3" format="ascii">
                       0.92645                      -0.01316                      -0.10905
                       0.92565                      -0.01319                      -0.10899
                       0.92367                      -0.01334                      -0.10882
                       0.92122                      -0.01360                      -0.10860
                       0.91749                      -0.01413                      -0.10824
                       0.91238                      -0.01510                      -0.10771
                       0.90697                      -0.01657                      -0.10707
                       0.90149                      -0.01864                      -0.10632
                       0.89612                      -0.02139                      -0.10547
                       0.89101                      -0.02492                      -0.10451
                       0.88628                      -0.02933                      -0.10343
                       0.88199                      -0.03444                      -0.10226
                       0.87821                      -0.04003                      -0.10105
                       0.87502                      -0.04568                      -0.09987
                       0.87252                      -0.05079                      -0.09883
                       0.87109                      -0.05398                      -0.09819
                       0.87044                      -0.05536                      -0.09792
                       0.87016                      -0.05572                      -0.09784
                       0.87017                      -0.05547                      -0.09788
        </DataArray>
        <DataArray type="Float32" Name="TranslationalAcceleration" NumberOfComponents="3" format="ascii">
                       0.73702                      -0.34135                      -1.33979
                       0.58646                      -0.56515                      -2.49596
                       0.28644                      -0.92853                      -4.82016
                      -0.01197                      -1.24277                      -7.14090
                      -0.38294                      -1.59336                     -10.02666
                      -0.82632                      -2.10204                     -13.43854
                      -1.26986                      -2.67667                     -16.79768
                      -1.71819                      -3.20776                     -20.12172
                      -2.18104                      -3.69585                     -23.41012
                      -2.67256                      -4.13968                     -26.66270
                      -3.20421                      -4.54241                     -29.88264
                      -3.79888                      -4.90361                     -33.06381
                      -4.47530                      -5.22798                     -36.20297
                      -5.24789                      -5.52156                     -39.29671
                      -6.12203                      -5.79132                     -42.34332
                      -6.92073                      -6.00373                     -44.84963
                      -7.59892                      -6.17427                     -46.83659
                      -8.29727                      -6.38539                     -48.81403
                      -8.64616                      -6.45879                     -49.80467
        </DataArray>
        <DataArray type="Float32" Name="OrientationX" NumberOfComponents="3" format="ascii">
                       0.97491                      -0.22004                      -0.03374
                       0.97487                      -0.22012                      -0.03421
                       0.97477                      -0.22035                      -0.03557
                       0.97463                      -0.22066                      -0.03742
                       0.97439                      -0.22117                      -0.04049
                       0.98025                      -0.19116                      -0.05076
                       0.98362                      -0.16979                      -0.06049
                       0.98592                      -0.15140                      -0.07103
                       0.98771                      -0.13211                      -0.08348
                       0.98880                      -0.11251                      -0.09807
                       0.98888                      -0.09442                      -0.11494
                       0.98802                      -0.07680                      -0.13384
                       0.98619                      -0.06128                      -0.15388
                       0.98355                      -0.05024                      -0.17351
                       0.98068                      -0.03918                      -0.19166
                       0.97859                      -0.02944                      -0.20373
                       0.97748                      -0.02174                      -0.20990
                       0.97701                      -0.01750                      -0.21249
                       0.97707                      -0.01745                      -0.21219
        </DataArray>
        <DataArray type="Float32" Name="OrientationY" NumberOfComponents="3" format="ascii">
                       0.21089                       0.96144                      -0.17653
                       0.21089                       0.96143                      -0.17658
                       0.21088                       0.96141                      -0.17669
                       0.21087                       0.96139                      -0.17683
                       0.21085                       0.96135                      -0.17704
                       0.17964                       0.96788                      -0.17588
                       0.15703                       0.97198                      -0.17490
                       0.13722                       0.97516                      -0.17389
                       0.11625                       0.97812                      -0.17256
                       0.09464                       0.98074                      -0.17086
                       0.07420                       0.98283                      -0.16894
                       0.05395                       0.98454                      -0.16665
                       0.03564                       0.98578                      -0.16420
                       0.02180                       0.98654                      -0.16208
                       0.00823                       0.98713                      -0.15969
                      -0.00308                       0.98752                      -0.15748
                      -0.01147                       0.98774                      -0.15572
                      -0.01597                       0.98782                      -0.15475
                      -0.01597                       0.98783                      -0.15475
        </DataArray>
        <DataArray type="Float32" Name="OrientationZ" NumberOfComponents="3" format="ascii">
                       0.07128                       0.16498                       0.98372
                       0.07176                       0.16492                       0.98369
                       0.07313                       0.16473                       0.98362
                       0.07499                       0.16445                       0.98353
                       0.07809                       0.16397                       0.98337
                       0.08275                       0.16329                       0.98310
                       0.08849                       0.16254                       0.98273
                       0.09560                       0.16170                       0.98220
                       0.10445                       0.16073                       0.98146
                       0.11541                       0.15966                       0.98040
                       0.12892                       0.15853                       0.97890
                       0.14457                       0.15743                       0.97689
                       0.16176                       0.15645                       0.97435
                       0.17932                       0.15563                       0.97140
                       0.19545                       0.15503                       0.96838
                       0.20582                       0.15473                       0.96628
                       0.21071                       0.15462                       0.96524
                       0.21261                       0.15458                       0.96483
                       0.21231                       0.15459                       0.96490
        </DataArray>
      </PointData>
      <Lines>
        <DataArray type="Int32" Name="connectivity" format="ascii">
      0      1
      1      2
      2      3
      3      4
      4      5
      5      6
      6      7
      7      8
      8      9
      9     10
     10     11
     11     12
     12     13
     13     14
     14     15
     15     16
     16     17
     17     18
        </DataArray>
        <DataArray type="Int32" Name="offsets" format="ascii">
      2
      4
      6
      8
     10
     12
     14
     16
     18
     20
     22
     24
     26
     28
     30
     32
     34
     36
        </DataArray>
      </Lines>
    </Piece>
  </PolyData>
</VTKFile>
