<?xml version="1.0"?>
<VTKFile type="PolyData" version="0.1" byte_order="LittleEndian">
  <PolyData>
    <Piece NumberOfPoints="     19" NumberOfVerts="  0" NumberOfLines="     18"
           NumberOfStrips="  0" NumberOfPolys="      0">
      <Points>
        <DataArray type="Float32" NumberOfComponents="3" format="ascii">
                       2.81914                       3.25952                      89.64840
                       2.60159                       6.83305                      89.12884
                       2.39069                      10.40634                      88.60499
                       2.18891                      13.97938                      88.07584
                       1.99821                      17.55214                      87.54070
                       1.82058                      21.12459                      86.99911
                       1.65852                      24.69678                      86.45089
                       1.51524                      28.26873                      85.89600
                       1.39457                      31.84046                      85.33442
                       1.30087                      35.41193                      84.76610
                       1.23858                      38.98297                      84.19091
                       1.21169                      42.55331                      83.60868
                       1.22301                      46.12256                      83.01929
                       1.27321                      49.69032                      82.42287
                       1.35976                      53.25631                      81.81999
                       1.47557                      56.82062                      81.21189
                       1.60760                      60.38389                      80.60083
                       1.67561                      62.16538                      80.29491
                       2.92922                       1.47270                      89.90726
        </DataArray>
      </Points>
      <PointData>
        <DataArray type="Float32" Name="TranslationalVelocity" NumberOfComponents="3" format="ascii">
                       0.59083                       0.42132                       3.07911
                       1.00002                       0.92824                       6.39444
                       1.42103                       1.43705                       9.69566
                       1.85793                       1.94801                      12.97939
                       2.31374                       2.46121                      16.24345
                       2.79310                       2.97669                      19.48669
                       3.30427                       3.49433                      22.70886
                       3.86001                       4.01386                      25.91024
                       4.47762                       4.53472                      29.09110
                       5.17810                       5.05579                      32.25132
                       5.98446                       5.57517                      35.39022
                       6.91919                       6.09009                      38.50657
                       8.00088                       6.59700                      41.59904
                       9.23997                       7.09220                      44.66695
                      10.63365                       7.57303                      47.71113
                      12.15988                       8.03966                      50.73495
                      13.77069                       8.49695                      53.74591
                      14.58939                       8.72422                      55.24943
                       0.38854                       0.16828                       1.41843
        </DataArray>
        <DataArray type="Float32" Name="RotationalVelocity" NumberOfComponents="3" format="ascii">
                       0.92893                       0.00773                      -0.11433
                       0.92566                       0.00716                      -0.11684
                       0.92127                       0.00632                      -0.12078
                       0.91614                       0.00532                      -0.12549
                       0.91055                       0.00416                      -0.13108
                       0.90479                       0.00276                      -0.13833
                       0.89908                       0.00095                      -0.14842
                       0.89347                      -0.00146                      -0.16264
                       0.88789                      -0.00462                      -0.18217
                       0.88221                      -0.00868                      -0.20784
                       0.87624                      -0.01369                      -0.23990
                       0.86986                      -0.01955                      -0.27779
                       0.86311                      -0.02606                      -0.31991
                       0.85628                      -0.03276                      -0.36340
                       0.84991                      -0.03901                      -0.40392
                       0.84490                      -0.04387                      -0.43539
                       0.84268                      -0.04609                      -0.44984
                       0.84248                      -0.04637                      -0.45168
                       0.93024                       0.00792                      -0.11358
        </DataArray>
        <DataArray type="Float32" Name="TranslationalAcceleration" NumberOfComponents="3" format="ascii">
                       0.86925                      -2.76096                       0.56926
                       0.89785                      -5.91010                       0.86944
                       0.85280                      -9.02304                       1.28939
                       0.70809                     -12.09127                       1.85779
                       0.44488                     -15.10908                       2.59235
                       0.04707                     -18.07378                       3.50260
                      -0.50358                     -20.98617                       4.59106
                      -1.22922                     -23.85007                       5.85510
                      -2.15559                     -26.67137                       7.28894
                      -3.31081                     -29.45756                       8.88453
                      -4.72284                     -32.21762                      10.63186
                      -6.41550                     -34.96203                      12.51892
                      -8.40313                     -37.70286                      14.53103
                     -10.68409                     -40.45335                      16.65022
                     -13.23261                     -43.22552                      18.85501
                     -15.98952                     -46.02621                      21.12032
                     -18.85198                     -48.85281                      23.41635
                     -20.29367                     -50.27153                      24.56797
                       0.84034                      -1.17859                       0.44469
        </DataArray>
        <DataArray type="Float32" Name="RotationalAcceleration" NumberOfComponents="3" format="ascii">
                      -0.06569                       0.07626                      -0.00381
                      -0.03734                       0.08028                       0.01184
                       0.00086                       0.08610                       0.03569
                       0.04533                       0.09315                       0.06537
                       0.09362                       0.10106                       0.09936
                       0.14363                       0.10971                       0.13774
                       0.19357                       0.11915                       0.18164
                       0.24246                       0.12948                       0.23213
                       0.28981                       0.14079                       0.29009
                       0.33535                       0.15313                       0.35592
                       0.37894                       0.16641                       0.42909
                       0.42037                       0.18035                       0.50782
                       0.45893                       0.19443                       0.58874
                       0.49336                       0.20781                       0.66651
                       0.52176                       0.21924                       0.73345
                       0.54122                       0.22706                       0.77923
                       0.54754                       0.22910                       0.79063
                       0.54679                       0.22837                       0.78590
                      -0.07688                       0.07478                      -0.00924
        </DataArray>
        <DataArray type="Float32" Name="OrientationX" NumberOfComponents="3" format="ascii">
                       0.99188                       0.07589                       0.10203
                       0.99196                       0.07458                       0.10222
                       0.99208                       0.07253                       0.10252
                       0.99363                       0.06807                       0.08980
                       0.99638                       0.06051                       0.05970
                       0.99761                       0.05416                       0.04282
                       0.99856                       0.04692                       0.02583
                       0.99923                       0.03847                       0.00799
                       0.99954                       0.02876                      -0.00990
                       0.99948                       0.01789                      -0.02677
                       0.99905                       0.00580                      -0.04316
                       0.99827                      -0.00715                      -0.05840
                       0.99733                      -0.02012                      -0.07024
                       0.99622                      -0.03266                      -0.08053
                       0.99488                      -0.04397                      -0.09101
                       0.99341                      -0.05262                      -0.10179
                       0.99243                      -0.05611                      -0.10924
                       0.99215                      -0.05623                      -0.11169
                       0.99186                       0.07632                       0.10197
        </DataArray>
        <DataArray type="Float32" Name="OrientationY" NumberOfComponents="3" format="ascii">
                       0.11165                      -0.13574                      -0.98443
                       0.11172                      -0.13690                      -0.98427
                       0.11181                      -0.13847                      -0.98403
                       0.09870                      -0.14124                      -0.98504
                       0.06796                      -0.14521                      -0.98706
                       0.05044                      -0.14824                      -0.98766
                       0.03266                      -0.15115                      -0.98797
                       0.01383                      -0.15389                      -0.98799
                      -0.00529                      -0.15638                      -0.98768
                      -0.02360                      -0.15853                      -0.98707
                      -0.04167                      -0.16033                      -0.98618
                      -0.05879                      -0.16175                      -0.98508
                      -0.07258                      -0.16283                      -0.98398
                      -0.08481                      -0.16358                      -0.98288
                      -0.09704                      -0.16395                      -0.98168
                      -0.10915                      -0.16391                      -0.98042
                      -0.11708                      -0.16366                      -0.97955
                      -0.11951                      -0.16351                      -0.97928
                       0.11162                      -0.13528                      -0.98450
        </DataArray>
        <DataArray type="Float32" Name="OrientationZ" NumberOfComponents="3" format="ascii">
                      -0.06086                       0.98783                      -0.14311
                      -0.05941                       0.98777                      -0.14413
                      -0.05718                       0.98771                      -0.14548
                      -0.05437                       0.98763                      -0.14706
                      -0.05106                       0.98755                      -0.14879
                      -0.04715                       0.98747                      -0.15062
                      -0.04245                       0.98740                      -0.15246
                      -0.03678                       0.98734                      -0.15430
                      -0.02996                       0.98728                      -0.15615
                      -0.02190                       0.98719                      -0.15802
                      -0.01264                       0.98705                      -0.15993
                      -0.00240                       0.98681                      -0.16189
                       0.00836                       0.98645                      -0.16386
                       0.01893                       0.98599                      -0.16573
                       0.02825                       0.98549                      -0.16738
                       0.03491                       0.98507                      -0.16857
                       0.03709                       0.98492                      -0.16899
                       0.03680                       0.98494                      -0.16895
                      -0.06134                       0.98786                      -0.14270
        </DataArray>
      </PointData>
      <Lines>
        <DataArray type="Int32" Name="connectivity" format="ascii">
      0      1
      1      2
      2      3
      3      4
      4      5
      5      6
      6      7
      7      8
      8      9
      9     10
     10     11
     11     12
     12     13
     13     14
     14     15
     15     16
     16     17
     18      0
        </DataArray>
        <DataArray type="Int32" Name="offsets" format="ascii">
      2
      4
      6
      8
     10
     12
     14
     16
     18
     20
     22
     24
     26
     28
     30
     32
     34
     36
        </DataArray>
      </Lines>
    </Piece>
  </PolyData>
</VTKFile>
