<?xml version="1.0"?>
<VTKFile type="PolyData" version="0.1" byte_order="LittleEndian">
  <PolyData>
    <Piece NumberOfPoints="     19" NumberOfVerts="  0" NumberOfLines="     18"
           NumberOfStrips="  0" NumberOfPolys="      0">
      <Points>
        <DataArray type="Float32" NumberOfComponents="3" format="ascii">
                       2.77758                       0.62725                      88.81863
                       2.56714                       1.22611                      87.60827
                       2.13033                       2.50850                      85.23200
                       1.68929                       3.83093                      82.87601
                       1.14101                       5.50809                      79.94197
                       0.54141                       7.39299                      76.34843
                      -0.02252                       9.16138                      72.69192
                      -0.56575                      10.92763                      69.03126
                      -1.08058                      12.69050                      65.36489
                      -1.56108                      14.45203                      61.69328
                      -2.00565                      16.21557                      58.01819
                      -2.40219                      17.97979                      54.33800
                      -2.74471                      19.74420                      50.65254
                      -3.03016                      21.50811                      46.96203
                      -3.25824                      23.27084                      43.26701
                      -3.41155                      24.73859                      40.18517
                      -3.51647                      25.90485                      37.71512
                      -3.62047                      27.02136                      35.22095
                      -3.67075                      27.61709                      33.99203
        </DataArray>
      </Points>
      <PointData>
        <DataArray type="Float32" Name="Force" NumberOfComponents="3" format="ascii">
                      -0.04407                      -0.73839                      -0.35538
                      61.28118                     -12.72843                     -16.86725
                      79.09578                     -38.34963                     -32.43208
                      71.93294                     -55.84476                     -39.65689
                     711.98608                     270.61586                      14.31617
                     901.21354                     292.31310                      -2.34170
                    1074.31703                     295.01783                     -22.91575
                    1399.21859                     331.76831                     -45.89501
                    1544.35559                     309.25597                     -65.46937
                    1784.01287                     307.59467                     -81.54915
                    2187.06239                     318.08467                    -101.48447
                    2495.56876                     305.25455                    -108.23124
                    2884.21831                     305.75249                    -103.06411
                    3147.15138                     275.76799                     -90.81598
                    3380.86643                     239.38255                     -76.30210
                    3519.50599                     202.12404                     -69.83081
                    3447.80989                     161.67318                     -71.31053
                    2516.23237                     102.14141                     -55.87729
                    1103.42727                     -48.19841                     -69.91519
        </DataArray>
        <DataArray type="Float32" Name="Moment" NumberOfComponents="3" format="ascii">
                       0.00000                       0.00000                       0.00000
                       0.00000                       0.00000                       0.00000
                       0.00000                       0.00000                       0.00000
                       0.00000                       0.00000                       0.00000
                      43.14836                    -127.22352                     258.98471
                      65.29121                    -198.06373                     403.42526
                      78.75993                    -247.60482                     504.68779
                     101.85656                    -335.02868                     683.46634
                     126.90681                    -442.45893                     903.57041
                     130.08577                    -489.25549                    1000.40658
                     121.39611                    -504.83587                    1033.85594
                     111.62100                    -528.27867                    1083.77584
                      85.99810                    -479.20858                     984.99918
                      70.18207                    -477.25238                     982.89606
                      54.27520                    -462.43464                     954.08148
                      43.15135                    -438.47723                     905.68405
                      34.82442                    -388.51388                     802.90656
                      16.72648                    -193.38251                     399.72149
                      14.08223                    -161.34159                     333.47717
        </DataArray>
        <DataArray type="Float32" Name="TranslationalVelocity" NumberOfComponents="3" format="ascii">
                      -0.51664                       1.30785                       0.55633
                      -0.42775                       2.44811                       1.10504
                      -0.24064                       4.68662                       2.27840
                      -0.04820                       6.89771                       3.48247
                       0.19660                       9.63487                       4.99847
                       0.47983                      12.95187                       6.68561
                       0.75356                      16.28711                       8.25033
                       1.02787                      19.58751                       9.79621
                       1.30051                      22.85379                      11.32305
                       1.56899                      26.08617                      12.83392
                       1.83154                      29.28808                      14.33453
                       2.08444                      32.45868                      15.82372
                       2.32484                      35.60051                      17.30264
                       2.55074                      38.71662                      18.77226
                       2.76158                      41.81078                      20.23367
                       2.92716                      44.37643                      21.44646
                       3.05363                      46.42572                      22.40830
                       3.17378                      48.49311                      23.32859
                       3.23710                      49.51150                      23.81970
        </DataArray>
        <DataArray type="Float32" Name="RotationalVelocity" NumberOfComponents="3" format="ascii">
                       0.92357                      -0.01647                      -0.11473
                       0.92215                      -0.01674                      -0.11461
                       0.91866                      -0.01736                      -0.11431
                       0.91437                      -0.01809                      -0.11393
                       0.90784                      -0.01914                      -0.11331
                       0.89894                      -0.02041                      -0.11239
                       0.88950                      -0.02141                      -0.11124
                       0.87998                      -0.02201                      -0.10988
                       0.87070                      -0.02207                      -0.10830
                       0.86188                      -0.02149                      -0.10649
                       0.85373                      -0.02016                      -0.10442
                       0.84633                      -0.01815                      -0.10215
                       0.83978                      -0.01561                      -0.09976
                       0.83421                      -0.01276                      -0.09739
                       0.82979                      -0.00996                      -0.09524
                       0.82724                      -0.00805                      -0.09386
                       0.82607                      -0.00708                      -0.09318
                       0.82559                      -0.00664                      -0.09288
                       0.82561                      -0.00664                      -0.09288
        </DataArray>
        <DataArray type="Float32" Name="TranslationalAcceleration" NumberOfComponents="3" format="ascii">
                      -0.33921                      -0.55875                       1.16698
                      -0.22053                      -1.03141                       2.24199
                       0.00595                      -2.04730                       4.35512
                       0.21642                      -3.08516                       6.43985
                       0.45311                      -4.37978                       9.01431
                       0.70301                      -5.78750                      12.11319
                       0.90414                      -7.05678                      15.20368
                       1.04945                      -8.28339                      18.24221
                       1.15614                      -9.46398                      21.22828
                       1.25696                     -10.59785                      24.16060
                       1.39097                     -11.69109                      27.04311
                       1.61352                     -12.73767                      29.87082
                       1.98394                     -13.74034                      32.64536
                       2.55577                     -14.70517                      35.37113
                       3.36428                     -15.64130                      38.05612
                       4.21680                     -16.40765                      40.27057
                       5.00790                     -17.01095                      42.03282
                       5.86614                     -17.57763                      43.80174
                       6.30221                     -17.88852                      44.67624
        </DataArray>
        <DataArray type="Float32" Name="OrientationX" NumberOfComponents="3" format="ascii">
                       0.97248                       0.22566                      -0.05791
                       0.97255                       0.22547                      -0.05754
                       0.97273                       0.22496                      -0.05649
                       0.97298                       0.22425                      -0.05504
                       0.97338                       0.22307                      -0.05265
                       0.97906                       0.19337                      -0.06358
                       0.98282                       0.17092                      -0.06958
                       0.98590                       0.15047                      -0.07322
                       0.98881                       0.12833                      -0.07606
                       0.99145                       0.10485                      -0.07763
                       0.99371                       0.08150                      -0.07684
                       0.99556                       0.05754                      -0.07443
                       0.99694                       0.03477                      -0.07007
                       0.99786                       0.01591                      -0.06348
                       0.99832                      -0.00221                      -0.05783
                       0.99833                      -0.01623                      -0.05541
                       0.99812                      -0.02565                      -0.05569
                       0.99794                      -0.03039                      -0.05646
                       0.99793                      -0.03024                      -0.05677
        </DataArray>
        <DataArray type="Float32" Name="OrientationY" NumberOfComponents="3" format="ascii">
                       0.17484                      -0.87122                      -0.45870
                       0.17487                      -0.87128                      -0.45857
                       0.17492                      -0.87144                      -0.45824
                       0.17499                      -0.87164                      -0.45785
                       0.17509                      -0.87194                      -0.45723
                       0.14408                      -0.87899                      -0.45455
                       0.12165                      -0.88361                      -0.45215
                       0.10201                      -0.88727                      -0.44983
                       0.08118                      -0.89065                      -0.44739
                       0.05966                      -0.89359                      -0.44490
                       0.03926                      -0.89589                      -0.44254
                       0.01897                      -0.89765                      -0.44030
                       0.00054                      -0.89880                      -0.43835
                      -0.01345                      -0.89941                      -0.43690
                      -0.02723                      -0.89970                      -0.43565
                      -0.03876                      -0.89971                      -0.43476
                      -0.04734                      -0.89958                      -0.43419
                      -0.05194                      -0.89947                      -0.43390
                      -0.05194                      -0.89946                      -0.43390
        </DataArray>
        <DataArray type="Float32" Name="OrientationZ" NumberOfComponents="3" format="ascii">
                      -0.15396                       0.43595                      -0.88670
                      -0.15353                       0.43592                      -0.88679
                      -0.15231                       0.43587                      -0.88703
                      -0.15065                       0.43584                      -0.88733
                      -0.14791                       0.43584                      -0.88779
                      -0.14378                       0.43587                      -0.88845
                      -0.13877                       0.43591                      -0.88923
                      -0.13265                       0.43602                      -0.89011
                      -0.12515                       0.43620                      -0.89110
                      -0.11602                       0.43646                      -0.89221
                      -0.10491                       0.43674                      -0.89345
                      -0.09215                       0.43693                      -0.89476
                      -0.07822                       0.43697                      -0.89607
                      -0.06404                       0.43681                      -0.89727
                      -0.05107                       0.43649                      -0.89826
                      -0.04279                       0.43619                      -0.89884
                      -0.03897                       0.43601                      -0.89910
                      -0.03760                       0.43593                      -0.89919
                      -0.03794                       0.43595                      -0.89917
        </DataArray>
      </PointData>
      <Lines>
        <DataArray type="Int32" Name="connectivity" format="ascii">
      0      1
      1      2
      2      3
      3      4
      4      5
      5      6
      6      7
      7      8
      8      9
      9     10
     10     11
     11     12
     12     13
     13     14
     14     15
     15     16
     16     17
     17     18
        </DataArray>
        <DataArray type="Int32" Name="offsets" format="ascii">
      2
      4
      6
      8
     10
     12
     14
     16
     18
     20
     22
     24
     26
     28
     30
     32
     34
     36
        </DataArray>
      </Lines>
    </Piece>
  </PolyData>
</VTKFile>
