<?xml version="1.0"?>
<VTKFile type="PolyData" version="0.1" byte_order="LittleEndian">
  <PolyData>
    <Piece NumberOfPoints="     19" NumberOfVerts="  0" NumberOfLines="     18"
           NumberOfStrips="  0" NumberOfPolys="      0">
      <Points>
        <DataArray type="Float32" NumberOfComponents="3" format="ascii">
                       2.66059                       2.93751                      88.62816
                       2.30507                       6.14916                      87.00142
                       1.94973                       9.36076                      85.37454
                       1.59463                      12.57231                      83.74751
                       1.23983                      15.78380                      82.12030
                       0.88538                      18.99523                      80.49289
                       0.53134                      22.20660                      78.86527
                       0.17779                      25.41792                      77.23745
                      -0.17516                      28.62920                      75.60943
                      -0.52741                      31.84045                      73.98119
                      -0.87883                      35.05168                      72.35274
                      -1.22934                      38.26290                      70.72406
                      -1.57885                      41.47412                      69.09517
                      -1.92735                      44.68533                      67.46605
                      -2.27491                      47.89654                      65.83673
                      -2.62171                      51.10776                      64.20724
                      -2.96809                      54.31897                      62.57767
                      -3.14123                      55.92457                      61.76287
                       2.83838                       1.33168                      89.44150
        </DataArray>
      </Points>
      <PointData>
        <DataArray type="Float32" Name="TranslationalVelocity" NumberOfComponents="3" format="ascii">
                       0.34713                       1.42726                       2.73668
                       0.71964                       2.98839                       5.73738
                       1.09930                       4.54799                       8.73325
                       1.48876                       6.10578                      11.72312
                       1.89010                       7.66160                      14.70620
                       2.30538                       9.21542                      17.68197
                       2.73714                      10.76737                      20.65014
                       3.18858                      12.31774                      23.61061
                       3.66351                      13.86686                      26.56329
                       4.16621                      15.41512                      29.50806
                       4.70102                      16.96285                      32.44470
                       5.27179                      18.51032                      35.37300
                       5.88115                      20.05773                      38.29281
                       6.52962                      21.60516                      41.20430
                       7.21444                      23.15266                      44.10817
                       7.92836                      24.70018                      47.00591
                       8.65816                      26.24766                      49.90022
                       9.02496                      27.02138                      51.34694
                       0.16228                       0.64635                       1.23529
        </DataArray>
        <DataArray type="Float32" Name="RotationalVelocity" NumberOfComponents="3" format="ascii">
                       0.93524                      -0.00254                      -0.11383
                       0.93405                      -0.00335                      -0.11517
                       0.93248                      -0.00458                      -0.11725
                       0.93065                      -0.00611                      -0.11987
                       0.92865                      -0.00790                      -0.12297
                       0.92655                      -0.00997                      -0.12661
                       0.92445                      -0.01241                      -0.13095
                       0.92237                      -0.01528                      -0.13617
                       0.92031                      -0.01867                      -0.14241
                       0.91825                      -0.02261                      -0.14974
                       0.91617                      -0.02709                      -0.15813
                       0.91407                      -0.03201                      -0.16738
                       0.91197                      -0.03715                      -0.17707
                       0.90997                      -0.04218                      -0.18656
                       0.90822                      -0.04660                      -0.19491
                       0.90695                      -0.04974                      -0.20084
                       0.90652                      -0.05073                      -0.20270
                       0.90656                      -0.05057                      -0.20239
                       0.93571                      -0.00226                      -0.11338
        </DataArray>
        <DataArray type="Float32" Name="TranslationalAcceleration" NumberOfComponents="3" format="ascii">
                       0.42261                      -2.83145                       1.08573
                       0.67492                      -5.79508                       2.29814
                       1.07724                      -8.76921                       3.43964
                       1.68623                     -11.75429                       4.49359
                       2.54749                     -14.75042                       5.44793
                       3.70411                     -17.75714                       6.29360
                       5.20344                     -20.77243                       7.02542
                       7.10000                     -23.79295                       7.64075
                       9.45500                     -26.81494                       8.13724
                      12.33331                     -29.83492                       8.51187
                      15.79753                     -32.85020                       8.76096
                      19.89920                     -35.85943                       8.88067
                      24.66721                     -38.86261                       8.86919
                      30.09349                     -41.86092                       8.72995
                      36.11576                     -44.85639                       8.47488
                      42.59754                     -47.85153                       8.12858
                      49.30560                     -50.84829                       7.73432
                      52.68026                     -52.34727                       7.53201
                       0.32589                      -1.35216                       0.46428
        </DataArray>
        <DataArray type="Float32" Name="RotationalAcceleration" NumberOfComponents="3" format="ascii">
                      -0.06582                      -0.02082                       0.00332
                      -0.08218                      -0.03708                      -0.02520
                      -0.10363                      -0.06189                      -0.06949
                      -0.12841                      -0.09313                      -0.12576
                      -0.15590                      -0.12991                      -0.19237
                      -0.18511                      -0.17236                      -0.26979
                      -0.21476                      -0.22120                      -0.35974
                      -0.24456                      -0.27735                      -0.46410
                      -0.27462                      -0.34156                      -0.58429
                      -0.30519                      -0.41402                      -0.72067
                      -0.33658                      -0.49400                      -0.87174
                      -0.36884                      -0.57949                      -1.03347
                      -0.40122                      -0.66677                      -1.19871
                      -0.43209                      -0.75007                      -1.35644
                      -0.45897                      -0.82122                      -1.49104
                      -0.47805                      -0.86925                      -1.58171
                      -0.48360                      -0.88007                      -1.60185
                      -0.48215                      -0.87420                      -1.59059
                      -0.05920                      -0.01518                       0.01302
        </DataArray>
        <DataArray type="Float32" Name="OrientationX" NumberOfComponents="3" format="ascii">
                       0.98741                       0.14327                       0.06702
                       0.98741                       0.14324                       0.06704
                       0.98742                       0.14319                       0.06706
                       0.98899                       0.13729                       0.05523
                       0.99196                       0.12354                       0.02762
                       0.99323                       0.11559                       0.01189
                       0.99420                       0.10749                      -0.00404
                       0.99488                       0.09887                      -0.02087
                       0.99521                       0.09007                      -0.03790
                       0.99519                       0.08158                      -0.05417
                       0.99485                       0.07316                      -0.07015
                       0.99423                       0.06513                      -0.08526
                       0.99352                       0.05859                      -0.09736
                       0.99274                       0.05276                      -0.10807
                       0.99181                       0.04694                      -0.11878
                       0.99073                       0.04122                      -0.12943
                       0.98994                       0.03751                      -0.13644
                       0.98968                       0.03639                      -0.13861
                       0.98741                       0.14328                       0.06702
        </DataArray>
        <DataArray type="Float32" Name="OrientationY" NumberOfComponents="3" format="ascii">
                       0.12393                      -0.43740                      -0.89068
                       0.12393                      -0.43744                      -0.89067
                       0.12393                      -0.43748                      -0.89065
                       0.11078                      -0.43940                      -0.89143
                       0.08009                      -0.44350                      -0.89269
                       0.06255                      -0.44567                      -0.89301
                       0.04477                      -0.44772                      -0.89305
                       0.02596                      -0.44973                      -0.89279
                       0.00689                      -0.45159                      -0.89220
                      -0.01136                      -0.45322                      -0.89133
                      -0.02934                      -0.45466                      -0.89018
                      -0.04635                      -0.45588                      -0.88883
                      -0.06004                      -0.45677                      -0.88756
                      -0.07217                      -0.45748                      -0.88629
                      -0.08430                      -0.45812                      -0.88489
                      -0.09632                      -0.45867                      -0.88337
                      -0.10421                      -0.45899                      -0.88231
                      -0.10664                      -0.45908                      -0.88197
                       0.12392                      -0.43739                      -0.89069
        </DataArray>
        <DataArray type="Float32" Name="OrientationZ" NumberOfComponents="3" format="ascii">
                      -0.09829                       0.88778                      -0.44965
                      -0.09825                       0.88777                      -0.44968
                      -0.09819                       0.88775                      -0.44973
                      -0.09812                       0.88774                      -0.44977
                      -0.09803                       0.88772                      -0.44983
                      -0.09793                       0.88770                      -0.44988
                      -0.09780                       0.88769                      -0.44994
                      -0.09765                       0.88768                      -0.44999
                      -0.09747                       0.88767                      -0.45005
                      -0.09726                       0.88766                      -0.45011
                      -0.09702                       0.88766                      -0.45017
                      -0.09675                       0.88765                      -0.45023
                      -0.09647                       0.88765                      -0.45030
                      -0.09620                       0.88765                      -0.45036
                      -0.09595                       0.88765                      -0.45041
                      -0.09578                       0.88765                      -0.45045
                      -0.09572                       0.88765                      -0.45046
                      -0.09573                       0.88765                      -0.45046
                      -0.09831                       0.88778                      -0.44964
        </DataArray>
      </PointData>
      <Lines>
        <DataArray type="Int32" Name="connectivity" format="ascii">
      0      1
      1      2
      2      3
      3      4
      4      5
      5      6
      6      7
      7      8
      8      9
      9     10
     10     11
     11     12
     12     13
     13     14
     14     15
     15     16
     16     17
     18      0
        </DataArray>
        <DataArray type="Int32" Name="offsets" format="ascii">
      2
      4
      6
      8
     10
     12
     14
     16
     18
     20
     22
     24
     26
     28
     30
     32
     34
     36
        </DataArray>
      </Lines>
    </Piece>
  </PolyData>
</VTKFile>
