<?xml version="1.0"?>
<VTKFile type="PolyData" version="0.1" byte_order="LittleEndian">
  <PolyData>
    <Piece NumberOfPoints="     17" NumberOfVerts="  0" NumberOfLines="      0"
           NumberOfStrips="  0" NumberOfPolys="      0">
      <Points>
        <DataArray type="Float32" NumberOfComponents="3" format="ascii">
                       2.57583                      -1.56262                      87.24814
                       2.03344                      -3.25204                      84.09552
                       1.50112                      -4.93838                      80.93954
                       0.98283                      -6.62061                      77.77904
                       0.48201                      -8.29813                      74.61322
                       0.00234                      -9.97063                      71.44149
                      -0.45182                     -11.63781                      68.26322
                      -0.87519                     -13.29936                      65.07777
                      -1.26153                     -14.95500                      61.88457
                      -1.60394                     -16.60454                      58.68323
                      -1.89547                     -18.24787                      55.47368
                      -2.12996                     -19.88502                      52.25632
                      -2.30321                     -21.51619                      49.03202
                      -2.41445                     -23.14175                      45.80210
                      -2.46814                     -24.76240                      42.56813
                      -2.47599                     -26.37934                      39.33174
                      -2.45934                     -27.99438                      36.09434
        </DataArray>
      </Points>
      <PointData>
        <DataArray type="Float32" Name="Force" NumberOfComponents="3" format="ascii">
                     142.79896                     -80.56352                      18.54605
                     531.22593                    -261.47605                      50.61623
                    1923.90789                     577.48263                    -625.95111
                    3183.99193                     975.02875                   -1030.77463
                    1919.40138                     513.81141                    -571.46404
                    4103.96207                     955.38624                   -1118.26266
                    4853.85678                     958.22234                   -1184.91135
                    5211.80478                     859.87937                   -1120.86043
                    5400.56896                     761.74034                   -1018.57285
                    6584.49904                     791.22212                   -1065.19654
                    7195.07355                     743.89122                    -968.47739
                    7775.26736                     727.30263                    -850.53450
                    4235.93354                     360.95222                    -379.77509
                    7961.14682                     607.61728                    -554.42475
                    7256.89580                     494.76950                    -351.62402
                   10546.35537                     661.16721                    -341.46390
                    5048.17886                     321.67320                    -142.55972
        </DataArray>
        <DataArray type="Float32" Name="Moment" NumberOfComponents="3" format="ascii">
                     -19.81407                     -19.48759                       9.91413
                     133.79013                    -360.72962                     104.66057
                     897.06756                   -1966.91023                     503.78463
                     903.18414                   -2506.70219                     671.23018
                      33.37842                    -241.76660                     -34.05549
                    -751.88389                    1848.05597                    -838.70807
                    -432.01989                    1558.17889                     -67.70657
                      -2.06583                     914.00785                    1221.03949
                     156.79741                     488.76825                    1738.28958
                     245.66470                      67.56199                    2243.78512
                     469.86192                   -1308.34108                    3123.84647
                     653.18607                   -3372.37140                    3636.19871
                     -26.50522                     728.92410                     602.87360
                    -582.11716                    5875.54783                    -981.36529
                    -420.27827                    5052.99652                    -694.20120
                     -56.06922                    1199.39172                    1611.84436
                      18.09665                    -224.28532                     779.63019
        </DataArray>
      </PointData>
    </Piece>
  </PolyData>
</VTKFile>
