<?xml version="1.0"?>
<VTKFile type="PolyData" version="0.1" byte_order="LittleEndian">
  <PolyData>
    <Piece NumberOfPoints="     19" NumberOfVerts="  0" NumberOfLines="     18"
           NumberOfStrips="  0" NumberOfPolys="      0">
      <Points>
        <DataArray type="Float32" NumberOfComponents="3" format="ascii">
                       2.96495                       0.52241                      93.38591
                       3.22857                       1.11848                      96.94436
                       3.50107                       1.71321                     100.50236
                       3.78585                       2.30605                     104.05971
                       4.08576                       2.89669                     107.61619
                       4.40391                       3.48496                     111.17146
                       4.74412                       4.07058                     114.72513
                       5.11120                       4.65320                     118.27660
                       5.51096                       5.23251                     121.82507
                       5.94988                       5.80827                     125.36947
                       6.43459                       6.38042                     128.90847
                       6.97102                       6.94908                     132.44055
                       7.56332                       7.51461                     135.96421
                       8.21250                       8.07748                     139.47829
                       8.91483                       8.63829                     142.98253
                       9.65998                       9.19779                     146.47823
                      10.42889                       9.75670                     149.96894
                      10.81628                      10.03610                     151.71366
                       2.83487                       0.22413                      91.60660
        </DataArray>
      </Points>
      <PointData>
        <DataArray type="Float32" Name="TranslationalVelocity" NumberOfComponents="3" format="ascii">
                      -0.47958                      -3.08003                       0.47231
                      -0.46207                      -6.39685                       1.02661
                      -0.44609                      -9.70267                       1.57797
                      -0.43263                     -12.99473                       2.12552
                      -0.42286                     -16.27134                       2.66887
                      -0.41822                     -19.53165                       3.20792
                      -0.42045                     -22.77544                       3.74270
                      -0.43147                     -26.00289                       4.27334
                      -0.45349                     -29.21442                       4.80015
                      -0.48875                     -32.41052                       5.32374
                      -0.53944                     -35.59167                       5.84502
                      -0.60733                     -38.75827                       6.36520
                      -0.69351                     -41.91071                       6.88567
                      -0.79794                     -45.04964                       7.40773
                      -0.91900                     -48.17632                       7.93229
                      -1.05298                     -51.29325                       8.45953
                      -1.19343                     -54.40471                       8.98841
                      -1.26428                     -55.95974                       9.25303
                      -0.48859                      -1.41929                       0.19457
        </DataArray>
        <DataArray type="Float32" Name="RotationalVelocity" NumberOfComponents="3" format="ascii">
                       0.92539                      -0.01320                      -0.10897
                       0.92267                      -0.01342                      -0.10873
                       0.91895                      -0.01389                      -0.10839
                       0.91458                      -0.01460                      -0.10795
                       0.90987                      -0.01567                      -0.10743
                       0.90503                      -0.01718                      -0.10683
                       0.90020                      -0.01917                      -0.10614
                       0.89550                      -0.02173                      -0.10537
                       0.89101                      -0.02492                      -0.10451
                       0.88680                      -0.02874                      -0.10356
                       0.88292                      -0.03315                      -0.10254
                       0.87943                      -0.03800                      -0.10148
                       0.87638                      -0.04306                      -0.10041
                       0.87383                      -0.04797                      -0.09940
                       0.87186                      -0.05221                      -0.09855
                       0.87060                      -0.05511                      -0.09797
                       0.87016                      -0.05580                      -0.09782
                       0.87017                      -0.05547                      -0.09788
                       0.92645                      -0.01316                      -0.10905
        </DataArray>
        <DataArray type="Float32" Name="TranslationalAcceleration" NumberOfComponents="3" format="ascii">
                       0.53785                      -0.64056                      -2.86853
                       0.14054                      -1.22944                      -5.91849
                      -0.25479                      -1.79556                      -8.95063
                      -0.64819                      -2.33300                     -11.96047
                      -1.04038                      -2.83826                     -14.94530
                      -1.43386                      -3.30943                     -17.90369
                      -1.83336                      -3.74557                     -20.83498
                      -2.24608                      -4.14641                     -23.73885
                      -2.68173                      -4.51234                     -26.61490
                      -3.15203                      -4.84453                     -29.46232
                      -3.66971                      -5.14501                     -32.27965
                      -4.24724                      -5.41676                     -35.06480
                      -4.89502                      -5.66365                     -37.81537
                      -5.61925                      -5.89019                     -40.52960
                      -6.41940                      -6.10131                     -43.20793
                      -7.28536                      -6.30221                     -45.85529
                      -8.19408                      -6.49793                     -48.48346
                      -8.65532                      -6.59510                     -49.79473
                       0.73702                      -0.34135                      -1.33979
        </DataArray>
        <DataArray type="Float32" Name="RotationalAcceleration" NumberOfComponents="3" format="ascii">
                       0.02390                      -0.00651                       0.01019
                       0.01967                      -0.00648                       0.01049
                       0.01387                      -0.00669                       0.01094
                       0.00712                      -0.00701                       0.01149
                      -0.00019                      -0.00780                       0.01215
                      -0.00778                      -0.00959                       0.01300
                      -0.01548                      -0.01298                       0.01413
                      -0.02314                      -0.01870                       0.01564
                      -0.03064                      -0.02737                       0.01764
                      -0.03784                      -0.03945                       0.02018
                      -0.04457                      -0.05507                       0.02329
                      -0.05067                      -0.07396                       0.02690
                      -0.05597                      -0.09528                       0.03086
                      -0.06034                      -0.11754                       0.03491
                      -0.06359                      -0.13848                       0.03866
                      -0.06559                      -0.15492                       0.04156
                      -0.06621                      -0.16268                       0.04291
                      -0.06616                      -0.16380                       0.04309
                       0.02554                      -0.00662                       0.01009
        </DataArray>
        <DataArray type="Float32" Name="OrientationX" NumberOfComponents="3" format="ascii">
                       0.97486                      -0.22014                      -0.03437
                       0.97472                      -0.22046                      -0.03626
                       0.97449                      -0.22096                      -0.03924
                       0.97691                      -0.20877                      -0.04536
                       0.98219                      -0.17955                      -0.05536
                       0.98451                      -0.16328                      -0.06391
                       0.98640                      -0.14693                      -0.07365
                       0.98789                      -0.12977                      -0.08500
                       0.98879                      -0.11259                      -0.09806
                       0.98893                      -0.09647                      -0.11276
                       0.98833                      -0.08087                      -0.12911
                       0.98695                      -0.06642                      -0.14667
                       0.98484                      -0.05535                      -0.16438
                       0.98233                      -0.04578                      -0.18148
                       0.97980                      -0.03588                      -0.19674
                       0.97777                      -0.02547                      -0.20814
                       0.97699                      -0.01811                      -0.21249
                       0.97704                      -0.01562                      -0.21248
                       0.97491                      -0.22004                      -0.03374
        </DataArray>
        <DataArray type="Float32" Name="OrientationY" NumberOfComponents="3" format="ascii">
                       0.21089                       0.96143                      -0.17659
                       0.21087                       0.96140                      -0.17674
                       0.21086                       0.96137                      -0.17695
                       0.19785                       0.96419                      -0.17664
                       0.16747                       0.97016                      -0.17534
                       0.15006                       0.97314                      -0.17456
                       0.13240                       0.97588                      -0.17360
                       0.11370                       0.97845                      -0.17237
                       0.09473                       0.98073                      -0.17086
                       0.07657                       0.98261                      -0.16917
                       0.05869                       0.98417                      -0.16720
                       0.04178                       0.98540                      -0.16504
                       0.02821                       0.98621                      -0.16308
                       0.01622                       0.98680                      -0.16112
                       0.00425                       0.98728                      -0.15892
                      -0.00759                       0.98764                      -0.15654
                      -0.01538                       0.98781                      -0.15488
                      -0.01778                       0.98786                      -0.15435
                       0.21089                       0.96144                      -0.17653
        </DataArray>
        <DataArray type="Float32" Name="OrientationZ" NumberOfComponents="3" format="ascii">
                       0.07192                       0.16490                       0.98368
                       0.07383                       0.16463                       0.98359
                       0.07682                       0.16417                       0.98344
                       0.08062                       0.16358                       0.98323
                       0.08519                       0.16295                       0.98295
                       0.09069                       0.16227                       0.98257
                       0.09738                       0.16149                       0.98206
                       0.10553                       0.16062                       0.98136
                       0.11541                       0.15966                       0.98040
                       0.12712                       0.15866                       0.97912
                       0.14059                       0.15767                       0.97743
                       0.15549                       0.15676                       0.97532
                       0.17114                       0.15597                       0.97282
                       0.18646                       0.15533                       0.97011
                       0.19994                       0.15488                       0.96749
                       0.20956                       0.15464                       0.96549
                       0.21271                       0.15458                       0.96481
                       0.21231                       0.15459                       0.96490
                       0.07128                       0.16498                       0.98372
        </DataArray>
      </PointData>
      <Lines>
        <DataArray type="Int32" Name="connectivity" format="ascii">
      0      1
      1      2
      2      3
      3      4
      4      5
      5      6
      6      7
      7      8
      8      9
      9     10
     10     11
     11     12
     12     13
     13     14
     14     15
     15     16
     16     17
     18      0
        </DataArray>
        <DataArray type="Int32" Name="offsets" format="ascii">
      2
      4
      6
      8
     10
     12
     14
     16
     18
     20
     22
     24
     26
     28
     30
     32
     34
     36
        </DataArray>
      </Lines>
    </Piece>
  </PolyData>
</VTKFile>
