<?xml version="1.0"?>
<VTKFile type="PolyData" version="0.1" byte_order="LittleEndian">
  <PolyData>
    <Piece NumberOfPoints="     19" NumberOfVerts="  0" NumberOfLines="     18"
           NumberOfStrips="  0" NumberOfPolys="      0">
      <Points>
        <DataArray type="Float32" NumberOfComponents="3" format="ascii">
                       3.20024                      -0.96870                      91.29504
                       3.27184                      -1.83780                      92.34738
                       3.38631                      -3.64890                      94.39397
                       3.49029                      -5.49572                      96.41180
                       3.61939                      -7.82748                      98.91488
                       3.85163                     -10.52091                     101.99878
                       4.13673                     -13.12028                     105.15623
                       4.44295                     -15.72356                     108.30850
                       4.77842                     -18.32963                     111.45555
                       5.14893                     -20.93993                     114.59521
                       5.55553                     -23.55641                     117.72529
                       6.01043                     -26.17787                     120.84459
                       6.51936                     -28.80322                     123.95231
                       7.08502                     -31.43111                     127.04812
                       7.70727                     -34.06014                     130.13216
                       8.26177                     -36.25106                     132.69478
                       8.72354                     -37.99751                     134.74628
                       9.19308                     -39.70206                     136.83247
                       9.42387                     -40.58608                     137.84881
        </DataArray>
      </Points>
      <PointData>
        <DataArray type="Float32" Name="Force" NumberOfComponents="3" format="ascii">
                       0.32602                       3.19666                       2.60319
                      70.31876                      20.36130                      11.87631
                      89.96008                      47.30486                      32.52066
                      81.89200                      61.60662                      44.67761
                     645.16573                    -222.48286                    -232.06787
                     841.49801                    -250.17912                    -274.51272
                     951.56725                    -227.05448                    -271.03321
                    1201.44310                    -234.25040                    -309.17259
                    1274.11447                    -193.74804                    -295.95726
                    1445.21367                    -173.83585                    -315.90296
                    1776.01754                    -156.42869                    -367.83053
                    2003.72019                    -121.86157                    -404.44593
                    2358.93490                    -103.11547                    -487.09706
                    2571.61886                     -57.88227                    -534.80685
                    2798.93438                     -16.13320                    -591.81370
                    2949.33403                      16.21362                    -628.44309
                    3031.00891                      31.73150                    -648.41467
                    2409.86129                      16.14599                    -527.06573
                    1288.70871                      73.66914                    -226.64255
        </DataArray>
        <DataArray type="Float32" Name="Moment" NumberOfComponents="3" format="ascii">
                       0.00000                       0.00000                       0.00000
                       0.00000                       0.00000                       0.00000
                       0.00000                       0.00000                       0.00000
                       0.00000                       0.00000                       0.00000
                     -10.36344                     111.81362                    -136.00655
                     -25.83117                     260.30834                    -316.41736
                     -37.55486                     349.92432                    -424.99537
                     -58.44816                     498.50208                    -604.82867
                     -89.42679                     691.03209                    -837.37120
                    -112.58601                     780.83362                    -944.74491
                    -137.51812                     848.64500                   -1024.89320
                    -165.35987                     906.40690                   -1092.33658
                    -159.25249                     778.50369                    -936.03937
                    -177.20929                     780.80607                    -936.61776
                    -188.01338                     760.16376                    -909.91642
                    -188.01839                     722.56347                    -863.74353
                    -170.41462                     640.56368                    -765.25441
                     -85.98239                     320.90869                    -383.29990
                     -74.76034                     279.74917                    -334.16242
        </DataArray>
        <DataArray type="Float32" Name="TranslationalVelocity" NumberOfComponents="3" format="ascii">
                       0.22722                      -1.07623                      -0.80672
                       0.14108                      -2.04364                      -1.59982
                      -0.04077                      -3.92312                      -3.25299
                      -0.22892                      -5.77802                      -4.94148
                      -0.47051                      -8.08394                      -7.07845
                      -0.75325                     -10.94180                      -9.55569
                      -1.03128                     -13.88437                     -11.95586
                      -1.31719                     -16.83624                     -14.36856
                      -1.61158                     -19.79817                     -16.79244
                      -1.91564                     -22.76835                     -19.22817
                      -2.22971                     -25.74324                     -21.67602
                      -2.55602                     -28.72355                     -24.13472
                      -2.89569                     -31.70852                     -26.60211
                      -3.24933                     -34.69741                     -29.07572
                      -3.61648                     -37.68938                     -31.55302
                      -3.93116                     -40.18452                     -33.61866
                      -4.18661                     -42.18639                     -35.26561
                      -4.43839                     -44.22279                     -36.87298
                      -4.56839                     -45.21521                     -37.70671
        </DataArray>
        <DataArray type="Float32" Name="RotationalVelocity" NumberOfComponents="3" format="ascii">
                       0.91102                       0.01225                      -0.11359
                       0.91155                       0.01209                      -0.11375
                       0.91284                       0.01167                      -0.11419
                       0.91442                       0.01114                      -0.11473
                       0.91681                       0.01031                      -0.11558
                       0.92006                       0.00918                      -0.11673
                       0.92352                       0.00796                      -0.11796
                       0.92697                       0.00664                      -0.11928
                       0.93030                       0.00517                      -0.12072
                       0.93340                       0.00349                      -0.12231
                       0.93620                       0.00153                      -0.12412
                       0.93870                      -0.00069                      -0.12611
                       0.94089                      -0.00310                      -0.12824
                       0.94274                      -0.00557                      -0.13039
                       0.94421                      -0.00788                      -0.13238
                       0.94507                      -0.00939                      -0.13369
                       0.94546                      -0.01015                      -0.13434
                       0.94563                      -0.01050                      -0.13464
                       0.94562                      -0.01051                      -0.13464
        </DataArray>
        <DataArray type="Float32" Name="TranslationalAcceleration" NumberOfComponents="3" format="ascii">
                      -0.47406                       0.82964                      -1.10219
                      -0.63958                       1.58232                      -1.96341
                      -0.96430                       3.15211                      -3.63335
                      -1.28753                       4.76444                      -5.27556
                      -1.69378                       6.82237                      -7.30669
                      -2.20057                       9.24289                      -9.81324
                      -2.73165                      11.63192                     -12.38376
                      -3.28262                      14.07209                     -14.94598
                      -3.85934                      16.56165                     -17.49961
                      -4.46807                      19.09940                     -20.04196
                      -5.11101                      21.67934                     -22.57084
                      -5.79787                      24.30038                     -25.08400
                      -6.53362                      26.95607                     -27.58027
                      -7.32034                      29.63907                     -30.05931
                      -8.15540                      32.34150                     -32.52183
                      -8.88128                      34.60284                     -34.56387
                      -9.47706                      36.41067                     -36.19806
                     -10.08142                      38.18576                     -37.86853
                     -10.37874                      39.09939                     -38.67611
        </DataArray>
        <DataArray type="Float32" Name="OrientationX" NumberOfComponents="3" format="ascii">
                       0.95061                      -0.20480                      -0.23323
                       0.95059                      -0.20451                      -0.23358
                       0.95052                      -0.20369                      -0.23458
                       0.95042                      -0.20258                      -0.23594
                       0.95025                      -0.20071                      -0.23819
                       0.95926                      -0.17403                      -0.22256
                       0.96499                      -0.15328                      -0.21283
                       0.96942                      -0.13393                      -0.20562
                       0.97355                      -0.11276                      -0.19869
                       0.97715                      -0.09002                      -0.19253
                       0.97980                      -0.06690                      -0.18845
                       0.98169                      -0.04286                      -0.18558
                       0.98262                      -0.01959                      -0.18461
                       0.98246                       0.00035                      -0.18650
                       0.98208                       0.01926                      -0.18746
                       0.98194                       0.03335                      -0.18621
                       0.98212                       0.04228                      -0.18347
                       0.98230                       0.04656                      -0.18141
                       0.98238                       0.04628                      -0.18108
        </DataArray>
        <DataArray type="Float32" Name="OrientationY" NumberOfComponents="3" format="ascii">
                       0.30587                       0.74589                       0.59169
                       0.30587                       0.74582                       0.59177
                       0.30589                       0.74565                       0.59197
                       0.30590                       0.74545                       0.59222
                       0.30593                       0.74515                       0.59258
                       0.27551                       0.75072                       0.60043
                       0.25342                       0.75404                       0.60597
                       0.23404                       0.75649                       0.61070
                       0.21349                       0.75867                       0.61550
                       0.19226                       0.76047                       0.62026
                       0.17214                       0.76172                       0.62461
                       0.15216                       0.76251                       0.62883
                       0.13406                       0.76279                       0.63260
                       0.12036                       0.76266                       0.63551
                       0.10689                       0.76230                       0.63833
                       0.09561                       0.76187                       0.64063
                       0.08721                       0.76147                       0.64230
                       0.08270                       0.76124                       0.64318
                       0.08269                       0.76124                       0.64318
        </DataArray>
        <DataArray type="Float32" Name="OrientationZ" NumberOfComponents="3" format="ascii">
                       0.05278                      -0.63381                       0.77169
                       0.05318                      -0.63398                       0.77152
                       0.05433                      -0.63443                       0.77106
                       0.05591                      -0.63503                       0.77046
                       0.05855                      -0.63597                       0.76949
                       0.06259                      -0.63729                       0.76808
                       0.06759                      -0.63869                       0.76649
                       0.07376                      -0.64015                       0.76470
                       0.08134                      -0.64164                       0.76268
                       0.09058                      -0.64310                       0.76041
                       0.10177                      -0.64444                       0.75785
                       0.11455                      -0.64555                       0.75508
                       0.12843                      -0.64635                       0.75215
                       0.14246                      -0.64680                       0.74923
                       0.15520                      -0.64693                       0.74659
                       0.16323                      -0.64687                       0.74492
                       0.16687                      -0.64681                       0.74417
                       0.16805                      -0.64680                       0.74392
                       0.16761                      -0.64682                       0.74400
        </DataArray>
      </PointData>
      <Lines>
        <DataArray type="Int32" Name="connectivity" format="ascii">
      0      1
      1      2
      2      3
      3      4
      4      5
      5      6
      6      7
      7      8
      8      9
      9     10
     10     11
     11     12
     12     13
     13     14
     14     15
     15     16
     16     17
     17     18
        </DataArray>
        <DataArray type="Int32" Name="offsets" format="ascii">
      2
      4
      6
      8
     10
     12
     14
     16
     18
     20
     22
     24
     26
     28
     30
     32
     34
     36
        </DataArray>
      </Lines>
    </Piece>
  </PolyData>
</VTKFile>
