<?xml version="1.0"?>
<VTKFile type="PolyData" version="0.1" byte_order="LittleEndian">
  <PolyData>
    <Piece NumberOfPoints="     19" NumberOfVerts="  0" NumberOfLines="     18"
           NumberOfStrips="  0" NumberOfPolys="      0">
      <Points>
        <DataArray type="Float32" NumberOfComponents="3" format="ascii">
                       3.07160                       3.22262                      90.80291
                       3.00874                       6.76641                      91.52745
                       2.95398                      10.31055                      92.25097
                       2.91040                      13.85507                      92.97329
                       2.88055                      17.40003                      93.69419
                       2.86716                      20.94543                      94.41339
                       2.87363                      24.49123                      95.13068
                       2.90429                      28.03733                      95.84585
                       2.96435                      31.58353                      96.55857
                       3.05967                      35.12954                      97.26832
                       3.19625                      38.67493                      97.97435
                       3.37947                      42.21912                      98.67577
                       3.61313                      45.76143                      99.37167
                       3.89819                      49.30121                     100.06137
                       4.23136                      52.83807                     100.74477
                       4.60335                      56.37217                     101.42268
                       4.99697                      59.90461                     102.09735
                       5.19647                      61.67061                     102.43425
                       3.10462                       1.45080                      90.44041
        </DataArray>
      </Points>
      <PointData>
        <DataArray type="Float32" Name="TranslationalVelocity" NumberOfComponents="3" format="ascii">
                       0.68305                      -0.61128                       3.01277
                       1.09245                      -1.26821                       6.26141
                       1.49716                      -1.92935                       9.53065
                       1.89579                      -2.59589                      12.82553
                       2.28768                      -3.26845                      16.14909
                       2.67252                      -3.94731                      19.50284
                       3.04982                      -4.63258                      22.88704
                       3.41872                      -5.32428                      26.30103
                       3.77801                      -6.02222                      29.74354
                       4.12619                      -6.72595                      33.21288
                       4.46161                      -7.43466                      36.70704
                       4.78270                      -8.14720                      40.22374
                       5.08824                      -8.86211                      43.76039
                       5.37781                      -9.57785                      47.31406
                       5.65230                     -10.29307                      50.88135
                       5.91449                     -11.00695                      54.45839
                       6.16968                     -11.71976                      58.04060
                       6.29637                     -12.07601                      59.83238
                       0.47740                      -0.28368                       1.39283
        </DataArray>
        <DataArray type="Float32" Name="RotationalVelocity" NumberOfComponents="3" format="ascii">
                       0.91409                       0.01042                      -0.11394
                       0.91897                       0.01030                      -0.11288
                       0.92559                       0.01011                      -0.11134
                       0.93330                       0.00989                      -0.10952
                       0.94163                       0.00966                      -0.10761
                       0.95018                       0.00941                      -0.10562
                       0.95868                       0.00913                      -0.10345
                       0.96693                       0.00879                      -0.10100
                       0.97481                       0.00837                      -0.09820
                       0.98224                       0.00785                      -0.09497
                       0.98919                       0.00723                      -0.09131
                       0.99561                       0.00653                      -0.08728
                       1.00140                       0.00577                      -0.08303
                       1.00642                       0.00501                      -0.07882
                       1.01046                       0.00432                      -0.07508
                       1.01320                       0.00382                      -0.07236
                       1.01415                       0.00364                      -0.07142
                       1.01411                       0.00365                      -0.07149
                       0.91217                       0.01046                      -0.11432
        </DataArray>
        <DataArray type="Float32" Name="TranslationalAcceleration" NumberOfComponents="3" format="ascii">
                      -0.47579                      -2.80368                      -0.56800
                      -0.48639                      -5.86695                      -0.97923
                      -0.53336                      -8.94876                      -1.48942
                      -0.63353                     -12.05375                      -2.12362
                      -0.80315                     -15.18502                      -2.89604
                      -1.05387                     -18.34437                      -3.81198
                      -1.38838                     -21.53214                      -4.87054
                      -1.79865                     -24.74742                      -6.06670
                      -2.26588                     -27.98860                      -7.39272
                      -2.76131                     -31.25390                      -8.83963
                      -3.24805                     -34.54197                     -10.39837
                      -3.68435                     -37.85257                     -12.06032
                      -4.02785                     -41.18682                     -13.81728
                      -4.24101                     -44.54689                     -15.66068
                      -4.29782                     -47.93474                     -17.58016
                      -4.19155                     -51.34971                     -19.56152
                      -3.94353                     -54.78521                     -21.58373
                      -3.78878                     -56.50679                     -22.60188
                      -0.47754                      -1.27598                      -0.38329
        </DataArray>
        <DataArray type="Float32" Name="RotationalAcceleration" NumberOfComponents="3" format="ascii">
                       0.06700                      -0.05503                      -0.02384
                       0.04515                      -0.05697                      -0.01639
                       0.01529                      -0.05996                      -0.00459
                      -0.01964                      -0.06400                       0.01186
                      -0.05696                      -0.06893                       0.03241
                      -0.09471                      -0.07431                       0.05514
                      -0.13165                      -0.07952                       0.07717
                      -0.16691                      -0.08397                       0.09556
                      -0.20008                      -0.08704                       0.10746
                      -0.23108                      -0.08822                       0.11034
                      -0.26005                      -0.08715                       0.10239
                      -0.28719                      -0.08367                       0.08282
                      -0.31246                      -0.07787                       0.05213
                      -0.33544                      -0.07019                       0.01245
                      -0.35522                      -0.06144                      -0.03215
                      -0.37016                      -0.05288                      -0.07539
                      -0.37762                      -0.04623                      -0.10856
                      -0.37908                      -0.04364                      -0.12137
                       0.07555                      -0.05430                      -0.02657
        </DataArray>
        <DataArray type="Float32" Name="OrientationX" NumberOfComponents="3" format="ascii">
                       0.99383                      -0.00415                       0.11080
                       0.99386                      -0.00582                       0.11046
                       0.99390                      -0.00845                       0.10992
                       0.99531                      -0.00912                       0.09627
                       0.99785                      -0.00695                       0.06519
                       0.99886                      -0.00826                       0.04692
                       0.99955                      -0.01058                       0.02820
                       0.99987                      -0.01403                       0.00820
                       0.99974                      -0.01897                      -0.01234
                       0.99914                      -0.02572                      -0.03241
                       0.99804                      -0.03412                      -0.05250
                       0.99644                      -0.04402                      -0.07188
                       0.99458                      -0.05528                      -0.08809
                       0.99248                      -0.06660                      -0.10268
                       0.99020                      -0.07631                      -0.11694
                       0.98801                      -0.08260                      -0.13041
                       0.98677                      -0.08390                      -0.13872
                       0.98651                      -0.08307                      -0.14104
                       0.99382                      -0.00360                       0.11091
        </DataArray>
        <DataArray type="Float32" Name="OrientationY" NumberOfComponents="3" format="ascii">
                       0.10936                       0.20119                      -0.97343
                       0.10937                       0.20075                      -0.97352
                       0.10938                       0.20014                      -0.97364
                       0.09615                       0.19955                      -0.97516
                       0.06527                       0.19903                      -0.97782
                       0.04762                       0.19838                      -0.97897
                       0.02974                       0.19778                      -0.97980
                       0.01081                       0.19726                      -0.98029
                      -0.00837                       0.19686                      -0.98040
                      -0.02673                       0.19660                      -0.98012
                      -0.04480                       0.19652                      -0.97948
                      -0.06190                       0.19663                      -0.97852
                      -0.07564                       0.19682                      -0.97752
                      -0.08779                       0.19715                      -0.97643
                      -0.09993                       0.19771                      -0.97515
                      -0.11193                       0.19847                      -0.97370
                      -0.11980                       0.19907                      -0.97263
                      -0.12223                       0.19928                      -0.97229
                       0.10936                       0.20137                      -0.97339
        </DataArray>
        <DataArray type="Float32" Name="OrientationZ" NumberOfComponents="3" format="ascii">
                      -0.01825                       0.97954                       0.20041
                      -0.01650                       0.97963                       0.20015
                      -0.01377                       0.97973                       0.19984
                      -0.01032                       0.97985                       0.19949
                      -0.00618                       0.97997                       0.19906
                      -0.00122                       0.98009                       0.19855
                       0.00479                       0.98019                       0.19800
                       0.01213                       0.98025                       0.19738
                       0.02102                       0.98025                       0.19665
                       0.03158                       0.98015                       0.19574
                       0.04374                       0.97991                       0.19461
                       0.05721                       0.97949                       0.19321
                       0.07137                       0.97888                       0.19158
                       0.08528                       0.97811                       0.18982
                       0.09754                       0.97729                       0.18814
                       0.10631                       0.97662                       0.18684
                       0.10922                       0.97639                       0.18638
                       0.10888                       0.97642                       0.18643
                      -0.01883                       0.97951                       0.20052
        </DataArray>
      </PointData>
      <Lines>
        <DataArray type="Int32" Name="connectivity" format="ascii">
      0      1
      1      2
      2      3
      3      4
      4      5
      5      6
      6      7
      7      8
      8      9
      9     10
     10     11
     11     12
     12     13
     13     14
     14     15
     15     16
     16     17
     18      0
        </DataArray>
        <DataArray type="Int32" Name="offsets" format="ascii">
      2
      4
      6
      8
     10
     12
     14
     16
     18
     20
     22
     24
     26
     28
     30
     32
     34
     36
        </DataArray>
      </Lines>
    </Piece>
  </PolyData>
</VTKFile>
