<?xml version="1.0"?>
<VTKFile type="PolyData" version="0.1" byte_order="LittleEndian">
  <PolyData>
    <Piece NumberOfPoints="     17" NumberOfVerts="  0" NumberOfLines="      0"
           NumberOfStrips="  0" NumberOfPolys="      0">
      <Points>
        <DataArray type="Float32" NumberOfComponents="3" format="ascii">
                       2.59005                      -2.50718                      87.99305
                       2.15183                      -5.24520                      85.66956
                       1.71644                      -7.98150                      83.34353
                       1.28508                     -10.71560                      81.01415
                       0.85888                     -13.44723                      78.68092
                       0.43891                     -16.17626                      76.34354
                       0.02616                     -18.90269                      74.00184
                      -0.37847                     -21.62658                      71.65577
                      -0.77415                     -24.34803                      69.30535
                      -1.16020                     -27.06723                      66.95073
                      -1.53614                     -29.78437                      64.59209
                      -1.90180                     -32.49968                      62.22974
                      -2.25746                     -35.21342                      59.86404
                      -2.60399                     -37.92583                      57.49549
                      -2.94302                     -40.63721                      55.12466
                      -3.27717                     -43.34787                      52.75231
                      -3.61026                     -46.05815                      50.37938
        </DataArray>
      </Points>
      <PointData>
        <DataArray type="Float32" Name="Force" NumberOfComponents="3" format="ascii">
                     168.43229                     -69.81312                      50.52683
                     595.61745                    -217.03512                     144.41042
                    2003.43619                     410.17731                    -855.35535
                    3285.59150                     688.17370                   -1414.20806
                    1987.01075                     358.71014                    -782.96894
                    4290.40515                     664.16626                   -1548.88007
                    5136.98477                     662.18511                   -1678.79596
                    5554.45331                     582.86726                   -1635.00073
                    5767.71733                     499.47852                   -1547.54443
                    6985.08716                     484.69071                   -1700.54210
                    7534.38740                     406.80670                   -1661.22083
                    8104.26662                     344.67829                   -1638.43602
                    4359.43191                     143.80818                    -817.79340
                    7946.49275                     171.08375                   -1359.21886
                    6825.49127                      43.81825                   -1025.48675
                    9495.50595                     -75.62324                   -1249.57280
                    4657.48264                     -73.96851                    -570.72027
        </DataArray>
        <DataArray type="Float32" Name="Moment" NumberOfComponents="3" format="ascii">
                     -19.47629                     -17.43418                      17.99892
                     163.28171                    -302.47434                     229.03350
                    1028.34044                   -1675.93390                    1245.30586
                    1046.79260                   -2142.27715                    1588.27447
                      45.21050                    -269.29572                      45.96540
                    -872.30480                    1361.24963                   -1571.38835
                    -535.25663                    1322.26052                    -785.48197
                     -36.22144                    1117.75691                     663.91302
                     162.96428                     855.21183                    1277.14227
                     289.30804                     547.85468                    1820.75148
                     627.00175                    -514.71580                    3148.43686
                     916.95621                   -2413.39539                    4379.57523
                     -30.66792                     666.67677                      62.22526
                    -801.61517                    4813.16623                   -3560.47835
                    -496.30058                    4113.76227                   -2661.15085
                      64.72698                    1734.97528                    1047.01874
                     127.23283                      -2.40041                    1147.68264
        </DataArray>
      </PointData>
    </Piece>
  </PolyData>
</VTKFile>
