<?xml version="1.0"?>
<VTKFile type="PolyData" version="0.1" byte_order="LittleEndian">
  <PolyData>
    <Piece NumberOfPoints="     17" NumberOfVerts="  0" NumberOfLines="      0"
           NumberOfStrips="  0" NumberOfPolys="      0">
      <Points>
        <DataArray type="Float32" NumberOfComponents="3" format="ascii">
                       2.98047                      -3.29820                      90.67011
                       2.89774                      -6.87074                      91.23356
                       2.82292                     -10.44435                      91.79127
                       2.75924                     -14.01935                      92.34140
                       2.70960                     -17.59591                      92.88275
                       2.67708                     -21.17410                      93.41453
                       2.66529                     -24.75392                      93.93601
                       2.67852                     -28.33531                      94.44651
                       2.72174                     -31.91809                      94.94538
                       2.80035                     -35.50194                      95.43209
                       2.91973                     -39.08631                      95.90633
                       3.08454                     -42.67052                      96.36806
                       3.29783                     -46.25371                      96.81770
                       3.55987                     -49.83509                      97.25611
                       3.86683                     -53.41411                      97.68490
                       4.20918                     -56.99084                      98.10654
                       4.56994                     -60.56623                      98.52456
        </DataArray>
      </Points>
      <PointData>
        <DataArray type="Float32" Name="Force" NumberOfComponents="3" format="ascii">
                     217.17829                       8.40585                      85.42610
                     688.66647                      23.61675                     239.90735
                    2159.01723                    -201.91724                   -1037.94720
                    3541.08626                    -322.90756                   -1732.32907
                    2145.75162                    -171.77439                    -953.19189
                    4649.29083                    -319.65875                   -1877.59429
                    5633.45394                    -312.39905                   -2051.97144
                    6255.45252                    -257.12869                   -2055.27544
                    6727.68564                    -181.26610                   -2036.90241
                    8508.30093                    -101.16576                   -2386.21175
                    9779.30553                      42.11055                   -2569.06680
                   11245.79179                     230.78622                   -2840.98117
                    6461.34044                     212.71997                   -1582.50198
                   12862.39035                     583.98459                   -3037.39409
                   12371.60170                     730.58160                   -2789.01928
                   17520.04811                    1232.69709                   -3710.66235
                    7312.15051                     556.96457                   -1418.67835
        </DataArray>
        <DataArray type="Float32" Name="Moment" NumberOfComponents="3" format="ascii">
                     -17.46819                      -0.42870                      27.04831
                     198.40378                     -13.99637                     380.38541
                    1220.44864                     -17.16613                    2195.72717
                    1287.14087                     -40.75452                    2821.31585
                      74.97986                    -112.55489                     241.95698
                   -1013.63904                    -354.26793                   -2204.04385
                    -681.90270                     253.44666                   -1599.78732
                    -176.26205                    1261.44229                    -341.15974
                      58.91750                    1512.48620                     395.27093
                     261.65028                    1632.65614                    1245.63680
                     857.42246                    1883.80674                    3591.40249
                    1666.98593                    1648.66743                    6922.62196
                    -142.51309                     141.78799                    -499.98276
                   -2096.93697                    -826.03383                   -8737.44061
                   -1840.43107                    -774.79418                   -8081.80479
                    -451.45125                     283.08912                   -1357.09767
                     -76.80953                     320.70429                     234.70167
        </DataArray>
      </PointData>
    </Piece>
  </PolyData>
</VTKFile>
