<?xml version="1.0"?>
<VTKFile type="PolyData" version="0.1" byte_order="LittleEndian">
  <PolyData>
    <Piece NumberOfPoints="     19" NumberOfVerts="  0" NumberOfLines="     18"
           NumberOfStrips="  0" NumberOfPolys="      0">
      <Points>
        <DataArray type="Float32" NumberOfComponents="3" format="ascii">
                       2.62813                      -2.78171                      88.36030
                       2.23714                      -5.82300                      86.44065
                       1.84634                      -8.86422                      84.52086
                       1.45581                     -11.90536                      82.60088
                       1.06564                     -14.94641                      80.68067
                       0.67589                     -17.98735                      78.76023
                       0.28663                     -21.02820                      76.83953
                      -0.10209                     -24.06896                      74.91857
                      -0.49022                     -27.10963                      72.99736
                      -0.87769                     -30.15022                      71.07589
                      -1.26449                     -33.19074                      69.15418
                      -1.65059                     -36.23121                      67.23225
                      -2.03601                     -39.27164                      65.31010
                      -2.42080                     -42.31203                      63.38778
                      -2.80508                     -45.35239                      61.46531
                      -3.18902                     -48.39274                      59.54275
                      -3.57287                     -51.43308                      57.62016
                      -3.76481                     -52.95325                      56.65886
                       2.82367                      -1.26105                      89.32009
        </DataArray>
      </Points>
      <PointData>
        <DataArray type="Float32" Name="TranslationalVelocity" NumberOfComponents="3" format="ascii">
                      -0.30108                       1.68243                      -2.61423
                      -0.63700                       3.52534                      -5.46554
                      -0.96529                       5.37119                      -8.32281
                      -1.28273                       7.22081                     -11.18793
                      -1.58640                       9.07466                     -14.06217
                      -1.87362                      10.93285                     -16.94626
                      -2.14201                      12.79536                     -19.84059
                      -2.38943                      14.66202                     -22.74532
                      -2.61410                      16.53253                     -25.66035
                      -2.81463                      18.40652                     -28.58539
                      -2.99022                      20.28357                     -31.51990
                      -3.14086                      22.16320                     -34.46318
                      -3.26764                      24.04495                     -37.41428
                      -3.37302                      25.92838                     -40.37206
                      -3.46129                      27.81308                     -43.33505
                      -3.53893                      29.69868                     -46.30144
                      -3.61516                      31.58485                     -49.26896
                      -3.65426                      32.52804                     -50.75269
                      -0.13164                       0.76158                      -1.18979
        </DataArray>
        <DataArray type="Float32" Name="RotationalVelocity" NumberOfComponents="3" format="ascii">
                       0.93642                      -0.00238                      -0.11293
                       0.93790                      -0.00339                      -0.11163
                       0.94005                      -0.00498                      -0.10955
                       0.94265                      -0.00705                      -0.10680
                       0.94551                      -0.00956                      -0.10340
                       0.94850                      -0.01246                      -0.09941
                       0.95153                      -0.01570                      -0.09490
                       0.95453                      -0.01923                      -0.08992
                       0.95744                      -0.02300                      -0.08454
                       0.96019                      -0.02691                      -0.07890
                       0.96273                      -0.03088                      -0.07313
                       0.96500                      -0.03476                      -0.06745
                       0.96697                      -0.03835                      -0.06216
                       0.96858                      -0.04143                      -0.05761
                       0.96976                      -0.04369                      -0.05427
                       0.97042                      -0.04475                      -0.05272
                       0.97045                      -0.04417                      -0.05365
                       0.97030                      -0.04340                      -0.05483
                       0.93587                      -0.00203                      -0.11337
        </DataArray>
        <DataArray type="Float32" Name="TranslationalAcceleration" NumberOfComponents="3" format="ascii">
                       0.53488                       2.25602                       1.64980
                       0.90283                       4.91001                       3.43332
                       1.41127                       7.64325                       5.08345
                       2.12171                      10.47783                       6.55904
                       3.09053                      13.42627                       7.83284
                       4.36778                      16.49290                       8.89002
                       5.99355                      19.67707                       9.72454
                       7.99639                      22.97477                      10.33739
                      10.39286                      26.37895                      10.73602
                      13.18616                      29.88060                      10.93312
                      16.36465                      33.46962                      10.94553
                      19.90053                      37.13538                      10.79360
                      23.74831                      40.86720                      10.50068
                      27.84324                      44.65454                      10.09299
                      32.09990                      48.48657                       9.60026
                      36.41059                      52.35161                       9.05666
                      40.64344                      56.23646                       8.50200
                      42.72235                      58.18208                       8.22727
                       0.37795                       0.94550                       0.73068
        </DataArray>
        <DataArray type="Float32" Name="RotationalAcceleration" NumberOfComponents="3" format="ascii">
                      -0.04013                      -0.01929                       0.02043
                      -0.00513                      -0.03848                       0.04371
                       0.04485                      -0.06859                       0.08124
                       0.10534                      -0.10833                       0.13188
                       0.17155                      -0.15663                       0.19490
                       0.24009                      -0.21194                       0.26858
                       0.30884                      -0.27235                       0.35029
                       0.37565                      -0.33598                       0.43748
                       0.43879                      -0.40079                       0.52731
                       0.49701                      -0.46458                       0.61651
                       0.54934                      -0.52495                       0.70151
                       0.59498                      -0.57935                       0.77839
                       0.63336                      -0.62496                       0.84284
                       0.66382                      -0.65878                       0.89021
                       0.68537                      -0.67754                       0.91555
                       0.69676                      -0.67771                       0.91349
                       0.69629                      -0.65539                       0.87823
                       0.69285                      -0.63811                       0.85155
                      -0.05333                      -0.01260                       0.01253
        </DataArray>
        <DataArray type="Float32" Name="OrientationX" NumberOfComponents="3" format="ascii">
                       0.93918                       0.08865                      -0.33179
                       0.93919                       0.08869                      -0.33176
                       0.93919                       0.08876                      -0.33172
                       0.94346                       0.08173                      -0.32125
                       0.95273                       0.06520                      -0.29673
                       0.95762                       0.05580                      -0.28258
                       0.96226                       0.04628                      -0.26815
                       0.96684                       0.03621                      -0.25280
                       0.97112                       0.02600                      -0.23716
                       0.97489                       0.01623                      -0.22209
                       0.97828                       0.00661                      -0.20717
                       0.98120                      -0.00250                      -0.19297
                       0.98334                      -0.00980                      -0.18149
                       0.98509                      -0.01628                      -0.17129
                       0.98668                      -0.02279                      -0.16106
                       0.98811                      -0.02930                      -0.15093
                       0.98896                      -0.03363                      -0.14429
                       0.98921                      -0.03498                      -0.14225
                       0.93918                       0.08863                      -0.33180
        </DataArray>
        <DataArray type="Float32" Name="OrientationY" NumberOfComponents="3" format="ascii">
                       0.32597                      -0.53421                       0.77998
                       0.32597                      -0.53423                       0.77997
                       0.32596                      -0.53425                       0.77995
                       0.31343                      -0.53541                       0.78428
                       0.28404                      -0.53772                       0.79384
                       0.26715                      -0.53882                       0.79894
                       0.24997                      -0.53976                       0.80385
                       0.23171                      -0.54057                       0.80876
                       0.21314                      -0.54119                       0.81344
                       0.19528                      -0.54160                       0.81764
                       0.17763                      -0.54183                       0.82150
                       0.16086                      -0.54189                       0.82491
                       0.14732                      -0.54182                       0.82748
                       0.13530                      -0.54168                       0.82963
                       0.12325                      -0.54145                       0.83165
                       0.11127                      -0.54114                       0.83354
                       0.10339                      -0.54090                       0.83471
                       0.10096                      -0.54081                       0.83506
                       0.32597                      -0.53421                       0.77998
        </DataArray>
        <DataArray type="Float32" Name="OrientationZ" NumberOfComponents="3" format="ascii">
                      -0.10810                      -0.84069                      -0.53062
                      -0.10806                      -0.84067                      -0.53065
                      -0.10799                      -0.84065                      -0.53070
                      -0.10791                      -0.84063                      -0.53076
                      -0.10780                      -0.84060                      -0.53082
                      -0.10767                      -0.84057                      -0.53089
                      -0.10753                      -0.84055                      -0.53096
                      -0.10737                      -0.84052                      -0.53103
                      -0.10720                      -0.84050                      -0.53110
                      -0.10701                      -0.84048                      -0.53117
                      -0.10682                      -0.84046                      -0.53124
                      -0.10663                      -0.84045                      -0.53130
                      -0.10645                      -0.84044                      -0.53135
                      -0.10629                      -0.84043                      -0.53140
                      -0.10616                      -0.84042                      -0.53143
                      -0.10610                      -0.84042                      -0.53145
                      -0.10611                      -0.84042                      -0.53145
                      -0.10615                      -0.84042                      -0.53144
                      -0.10812                      -0.84070                      -0.53061
        </DataArray>
      </PointData>
      <Lines>
        <DataArray type="Int32" Name="connectivity" format="ascii">
      0      1
      1      2
      2      3
      3      4
      4      5
      5      6
      6      7
      7      8
      8      9
      9     10
     10     11
     11     12
     12     13
     13     14
     14     15
     15     16
     16     17
     18      0
        </DataArray>
        <DataArray type="Int32" Name="offsets" format="ascii">
      2
      4
      6
      8
     10
     12
     14
     16
     18
     20
     22
     24
     26
     28
     30
     32
     34
     36
        </DataArray>
      </Lines>
    </Piece>
  </PolyData>
</VTKFile>
