<?xml version="1.0"?>
<VTKFile type="PolyData" version="0.1" byte_order="LittleEndian">
  <PolyData>
    <Piece NumberOfPoints="     17" NumberOfVerts="  0" NumberOfLines="      0"
           NumberOfStrips="  0" NumberOfPolys="      0">
      <Points>
        <DataArray type="Float32" NumberOfComponents="3" format="ascii">
                       3.24049                      -0.69257                      93.34425
                       3.51116                      -1.44776                      96.87183
                       3.78488                      -2.20430                     100.39888
                       4.06290                      -2.96263                     103.92521
                       4.34627                      -3.72299                     107.45067
                       4.63604                      -4.48551                     110.97515
                       4.93328                      -5.25024                     114.49853
                       5.23913                      -6.01718                     118.02069
                       5.55480                      -6.78631                     121.54150
                       5.88152                      -7.55753                     125.06085
                       6.22039                      -8.33068                     128.57863
                       6.57225                      -9.10555                     132.09475
                       6.93745                      -9.88187                     135.60919
                       7.31558                     -10.65936                     139.12200
                       7.70515                     -11.43770                     142.63338
                       8.10325                     -12.21658                     146.14368
                       8.50509                     -12.99571                     149.65350
        </DataArray>
      </Points>
      <PointData>
        <DataArray type="Float32" Name="Force" NumberOfComponents="3" format="ascii">
                     172.98134                      76.59658                       3.14886
                     560.63986                     240.90027                       8.03535
                    1987.12473                    -710.13345                    -308.38240
                    3309.63705                   -1220.93588                    -526.05834
                    1992.47086                    -651.05654                    -301.53058
                    4242.95984                   -1203.00990                    -610.07412
                    4988.82061                   -1196.32752                    -682.43293
                    5284.11336                   -1051.10990                    -691.46517
                    5385.29561                    -895.33123                    -683.88467
                    6380.74931                    -859.88569                    -789.07381
                    6691.41519                    -704.07379                    -810.77196
                    7040.73972                    -577.38613                    -846.63056
                    3674.06938                    -230.10324                    -437.37874
                    6434.15066                    -253.12376                    -752.50606
                    5025.85361                     -42.95452                    -569.82645
                    5701.24154                     149.62298                    -617.18946
                    3326.04062                      81.56467                    -363.00278
        </DataArray>
        <DataArray type="Float32" Name="Moment" NumberOfComponents="3" format="ascii">
                     -18.27171                      19.04302                       9.88576
                     140.83196                     331.40445                     128.49493
                     935.30304                    1914.43055                     745.58034
                    1009.65216                    2447.79314                    1087.57343
                      69.34390                     148.05501                     288.85709
                    -712.82608                   -2089.68917                    -162.42983
                    -510.59982                   -1361.99690                    -560.83013
                    -265.37581                     -14.47204                   -1148.39854
                    -162.35170                     622.63392                   -1284.95008
                    -122.04039                    1176.30556                   -1358.96970
                      41.76622                    2662.57410                   -1210.36386
                     251.71434                    4363.17330                    -329.67214
                    -112.35143                    -219.63040                    -660.39124
                    -530.23295                   -4458.38311                   -2319.54400
                    -353.27497                   -3469.47110                   -2235.18516
                    -314.87962                     191.45799                   -2328.38881
                     -74.67066                    1178.12126                    -601.75200
        </DataArray>
      </PointData>
    </Piece>
  </PolyData>
</VTKFile>
