<?xml version="1.0"?>
<VTKFile type="PolyData" version="0.1" byte_order="LittleEndian">
  <PolyData>
    <Piece NumberOfPoints="     19" NumberOfVerts="  0" NumberOfLines="     18"
           NumberOfStrips="  0" NumberOfPolys="      0">
      <Points>
        <DataArray type="Float32" NumberOfComponents="3" format="ascii">
                       3.28640                      -2.72244                      92.06599
                       3.39988                      -5.67175                      94.15790
                       3.52045                      -8.62303                      96.24661
                       3.65095                     -11.57693                      98.33103
                       3.79381                     -14.53379                     100.41042
                       3.95169                     -17.49381                     102.48423
                       4.12764                     -20.45709                     104.55190
                       4.32537                     -23.42371                     106.61279
                       4.54920                     -26.39363                     108.66624
                       4.80385                     -29.36665                     110.71157
                       5.09406                     -32.34237                     112.74821
                       5.42394                     -35.32017                     114.77573
                       5.79624                     -38.29926                     116.79400
                       6.21126                     -41.27880                     118.80327
                       6.66574                     -44.25806                     120.80448
                       7.15147                     -47.23661                     122.79945
                       7.65369                     -50.21465                     124.79118
                       7.90662                     -51.70360                     125.78668
                       3.23103                      -1.24819                      91.01939
        </DataArray>
      </Points>
      <PointData>
        <DataArray type="Float32" Name="TranslationalVelocity" NumberOfComponents="3" format="ascii">
                      -0.23283                      -1.82255                      -2.45563
                      -0.57086                      -3.76432                      -5.17492
                      -0.90594                      -5.70135                      -7.89256
                      -1.23712                      -7.63237                     -10.60832
                      -1.56376                      -9.55658                     -13.32209
                      -1.88580                     -11.47355                     -16.03373
                      -2.20389                     -13.38294                     -18.74311
                      -2.51951                     -15.28451                     -21.45009
                      -2.83492                     -17.17807                     -24.15439
                      -3.15306                     -19.06364                     -26.85554
                      -3.47738                     -20.94141                     -29.55288
                      -3.81146                     -22.81187                     -32.24559
                      -4.15861                     -24.67580                     -34.93276
                      -4.52136                     -26.53425                     -37.61366
                      -4.90085                     -28.38855                     -40.28799
                      -5.29613                     -30.24022                     -42.95638
                      -5.70333                     -32.09083                     -45.62085
                      -5.90921                     -33.01606                     -46.95245
                      -0.06321                      -0.85068                      -1.09561
        </DataArray>
        <DataArray type="Float32" Name="RotationalVelocity" NumberOfComponents="3" format="ascii">
                       0.92235                       0.00444                      -0.11820
                       0.92132                       0.00483                      -0.11759
                       0.91993                       0.00540                      -0.11672
                       0.91833                       0.00611                      -0.11563
                       0.91661                       0.00689                      -0.11445
                       0.91479                       0.00763                      -0.11332
                       0.91291                       0.00820                      -0.11242
                       0.91095                       0.00846                      -0.11194
                       0.90893                       0.00830                      -0.11206
                       0.90685                       0.00761                      -0.11293
                       0.90475                       0.00633                      -0.11462
                       0.90267                       0.00447                      -0.11713
                       0.90067                       0.00210                      -0.12037
                       0.89885                      -0.00061                      -0.12408
                       0.89732                      -0.00337                      -0.12789
                       0.89622                      -0.00577                      -0.13121
                       0.89573                      -0.00726                      -0.13328
                       0.89566                      -0.00769                      -0.13389
                       0.92276                       0.00428                      -0.11845
        </DataArray>
        <DataArray type="Float32" Name="TranslationalAcceleration" NumberOfComponents="3" format="ascii">
                      -1.77869                       2.25490                      -1.99235
                      -2.19095                       4.80051                      -3.77292
                      -2.55850                       7.33074                      -5.56269
                      -2.86305                       9.84121                      -7.36594
                      -3.08888                      12.32952                      -9.18586
                      -3.22545                      14.79547                     -11.02358
                      -3.26971                      17.24057                     -12.87828
                      -3.22724                      19.66770                     -14.74731
                      -3.11247                      22.08064                     -16.62620
                      -2.94818                      24.48342                     -18.50919
                      -2.76410                      26.87948                     -20.38982
                      -2.59464                      29.27094                     -22.26149
                      -2.47569                      31.65815                     -24.11803
                      -2.44049                      34.03979                     -25.95420
                      -2.51472                      36.41357                     -27.76653
                      -2.71071                      38.77771                     -29.55445
                      -3.02075                      41.13301                     -31.32143
                      -3.20184                      42.30880                     -32.20040
                      -1.56375                       0.97890                      -1.10383
        </DataArray>
        <DataArray type="Float32" Name="RotationalAcceleration" NumberOfComponents="3" format="ascii">
                      -0.00166                      -0.08499                      -0.00347
                       0.00259                      -0.07939                       0.00419
                       0.00896                      -0.07078                       0.01598
                       0.01706                      -0.05932                       0.03168
                       0.02597                      -0.04566                       0.05045
                       0.03489                      -0.03086                       0.07083
                       0.04322                      -0.01625                       0.09096
                       0.05032                      -0.00329                       0.10883
                       0.05569                       0.00660                       0.12248
                       0.05908                       0.01216                       0.13013
                       0.06044                       0.01243                       0.13044
                       0.05994                       0.00688                       0.12265
                       0.05788                      -0.00441                       0.10687
                       0.05469                      -0.02064                       0.08419
                       0.05090                      -0.04014                       0.05694
                       0.04717                      -0.06022                       0.02885
                       0.04410                      -0.07708                       0.00528
                       0.04280                      -0.08415                      -0.00460
                      -0.00324                      -0.08704                      -0.00628
        </DataArray>
        <DataArray type="Float32" Name="OrientationX" NumberOfComponents="3" format="ascii">
                       0.94369                      -0.16722                      -0.28547
                       0.94363                      -0.16583                      -0.28646
                       0.94354                      -0.16364                      -0.28801
                       0.94772                      -0.15347                      -0.27977
                       0.95692                      -0.13282                      -0.25818
                       0.96164                      -0.11893                      -0.24719
                       0.96604                      -0.10411                      -0.23647
                       0.97028                      -0.08778                      -0.22549
                       0.97410                      -0.07025                      -0.21493
                       0.97723                      -0.05207                      -0.20567
                       0.97980                      -0.03302                      -0.19725
                       0.98168                      -0.01372                      -0.19005
                       0.98259                       0.00406                      -0.18573
                       0.98301                       0.02064                      -0.18241
                       0.98334                       0.03595                      -0.17816
                       0.98385                       0.04865                      -0.17224
                       0.98446                       0.05481                      -0.16684
                       0.98480                       0.05574                      -0.16452
                       0.94370                      -0.16769                      -0.28514
        </DataArray>
        <DataArray type="Float32" Name="OrientationY" NumberOfComponents="3" format="ascii">
                       0.32942                       0.55476                       0.76402
                       0.32943                       0.55453                       0.76418
                       0.32944                       0.55421                       0.76440
                       0.31687                       0.55596                       0.76844
                       0.28738                       0.56001                       0.77705
                       0.27044                       0.56183                       0.78180
                       0.25322                       0.56343                       0.78640
                       0.23493                       0.56486                       0.79103
                       0.21634                       0.56601                       0.79550
                       0.19849                       0.56680                       0.79959
                       0.18086                       0.56725                       0.80344
                       0.16415                       0.56737                       0.80694
                       0.15070                       0.56718                       0.80969
                       0.13879                       0.56681                       0.81207
                       0.12685                       0.56630                       0.81438
                       0.11498                       0.56567                       0.81658
                       0.10716                       0.56521                       0.81796
                       0.10473                       0.56507                       0.81837
                       0.32942                       0.55485                       0.76395
        </DataArray>
        <DataArray type="Float32" Name="OrientationZ" NumberOfComponents="3" format="ascii">
                       0.03061                      -0.81503                       0.57860
                       0.03213                      -0.81548                       0.57790
                       0.03453                      -0.81613                       0.57684
                       0.03761                      -0.81692                       0.57553
                       0.04137                      -0.81777                       0.57406
                       0.04590                      -0.81866                       0.57244
                       0.05136                      -0.81958                       0.57066
                       0.05793                      -0.82050                       0.56870
                       0.06577                      -0.82140                       0.56655
                       0.07494                      -0.82221                       0.56423
                       0.08536                      -0.82288                       0.56176
                       0.09676                      -0.82335                       0.55922
                       0.10863                      -0.82358                       0.55669
                       0.12015                      -0.82359                       0.55432
                       0.13017                      -0.82342                       0.55231
                       0.13716                      -0.82320                       0.55094
                       0.13913                      -0.82312                       0.55055
                       0.13858                      -0.82315                       0.55065
                       0.03011                      -0.81488                       0.57885
        </DataArray>
      </PointData>
      <Lines>
        <DataArray type="Int32" Name="connectivity" format="ascii">
      0      1
      1      2
      2      3
      3      4
      4      5
      5      6
      6      7
      7      8
      8      9
      9     10
     10     11
     11     12
     12     13
     13     14
     14     15
     15     16
     16     17
     18      0
        </DataArray>
        <DataArray type="Int32" Name="offsets" format="ascii">
      2
      4
      6
      8
     10
     12
     14
     16
     18
     20
     22
     24
     26
     28
     30
     32
     34
     36
        </DataArray>
      </Lines>
    </Piece>
  </PolyData>
</VTKFile>
