<?xml version="1.0"?>
<VTKFile type="PolyData" version="0.1" byte_order="LittleEndian">
  <PolyData>
    <Piece NumberOfPoints="     19" NumberOfVerts="  0" NumberOfLines="     18"
           NumberOfStrips="  0" NumberOfPolys="      0">
      <Points>
        <DataArray type="Float32" NumberOfComponents="3" format="ascii">
                       3.27610                       2.64044                      92.09891
                       3.39338                       5.56656                      94.22292
                       3.51793                       8.49424                      96.34436
                       3.65248                      11.42377                      98.46264
                       3.79922                      14.35532                     100.57730
                       3.96042                      17.28899                     102.68797
                       4.13882                      20.22469                     104.79441
                       4.33786                      23.16222                     106.89644
                       4.56170                      26.10129                     108.99381
                       4.81492                      29.04156                     111.08614
                       5.10222                      31.98265                     113.17288
                       5.42775                      34.92418                     115.25337
                       5.79436                      37.86574                     117.32696
                       6.20262                      40.80697                     119.39327
                       6.64964                      43.74759                     121.45245
                       7.12770                      46.68757                     123.50563
                       7.62277                      49.62718                     125.55536
                       7.87235                      51.09694                     126.57979
                       3.21889                       1.17772                      91.03636
        </DataArray>
      </Points>
      <PointData>
        <DataArray type="Float32" Name="TranslationalVelocity" NumberOfComponents="3" format="ascii">
                       0.10670                      -1.81917                       2.46679
                       0.44663                      -3.77668                       5.14477
                       0.78626                      -5.72724                       7.81668
                       1.12512                      -7.66925                      10.48091
                       1.46258                      -9.60175                      13.13650
                       1.79845                     -11.52432                      15.78308
                       2.13350                     -13.43713                      18.42054
                       2.46972                     -15.34075                      21.04895
                       2.81032                     -17.23601                      23.66842
                       3.15960                     -19.12381                      26.27896
                       3.52259                     -21.00507                      28.88040
                       3.90459                     -22.88066                      31.47235
                       4.31042                     -24.75142                      34.05432
                       4.74362                     -26.61824                      36.62592
                       5.20544                     -28.48207                      39.18729
                       5.69357                     -30.34392                      41.73972
                       6.20090                     -32.20492                      44.28633
                       6.45812                     -33.13536                      45.55870
                      -0.06332                      -0.83892                       1.12653
        </DataArray>
        <DataArray type="Float32" Name="RotationalVelocity" NumberOfComponents="3" format="ascii">
                       0.91621                      -0.00189                      -0.11760
                       0.91403                      -0.00189                      -0.11748
                       0.91108                      -0.00192                      -0.11729
                       0.90762                      -0.00205                      -0.11692
                       0.90390                      -0.00227                      -0.11642
                       0.90012                      -0.00246                      -0.11596
                       0.89641                      -0.00243                      -0.11581
                       0.89285                      -0.00197                      -0.11625
                       0.88948                      -0.00089                      -0.11756
                       0.88630                       0.00097                      -0.11996
                       0.88328                       0.00370                      -0.12355
                       0.88041                       0.00730                      -0.12834
                       0.87769                       0.01162                      -0.13414
                       0.87518                       0.01637                      -0.14056
                       0.87300                       0.02109                      -0.14694
                       0.87137                       0.02509                      -0.15235
                       0.87064                       0.02744                      -0.15554
                       0.87054                       0.02807                      -0.15640
                       0.91706                      -0.00188                      -0.11766
        </DataArray>
        <DataArray type="Float32" Name="TranslationalAcceleration" NumberOfComponents="3" format="ascii">
                      -1.75504                      -1.84310                      -2.09188
                      -2.15182                      -4.17476                      -4.09267
                      -2.54302                      -6.56410                      -5.98530
                      -2.92444                      -9.02520                      -7.74288
                      -3.28976                     -11.56631                      -9.34954
                      -3.62643                     -14.19176                     -10.79789
                      -3.91491                     -16.90328                     -12.08713
                      -4.12770                     -19.70104                     -13.22169
                      -4.22898                     -22.58426                     -14.21039
                      -4.17648                     -25.55165                     -15.06606
                      -3.92484                     -28.60161                     -15.80517
                      -3.43045                     -31.73223                     -16.44757
                      -2.65786                     -34.94097                     -17.01569
                      -1.58770                     -38.22385                     -17.53300
                      -0.22599                     -41.57345                     -18.02194
                       1.38507                     -44.97615                     -18.50109
                       3.15457                     -48.40936                     -18.98170
                       4.06409                     -50.13013                     -19.22322
                      -1.55585                      -0.68951                      -1.06858
        </DataArray>
        <DataArray type="Float32" Name="RotationalAcceleration" NumberOfComponents="3" format="ascii">
                      -0.08789                      -0.05352                       0.01680
                      -0.05999                      -0.05392                       0.01588
                      -0.02196                      -0.05388                       0.01381
                       0.02235                      -0.05347                       0.01090
                       0.07004                      -0.05168                       0.00592
                       0.11897                      -0.04734                      -0.00264
                       0.16758                      -0.03922                      -0.01638
                       0.21464                      -0.02585                      -0.03728
                       0.25913                      -0.00591                      -0.06706
                       0.30017                       0.02145                      -0.10688
                       0.33699                       0.05644                      -0.15696
                       0.36888                       0.09835                      -0.21630
                       0.39538                       0.14528                      -0.28226
                       0.41614                       0.19392                      -0.35028
                       0.43084                       0.23932                      -0.41353
                       0.43923                       0.27463                      -0.46254
                       0.44132                       0.29076                      -0.48484
                       0.44082                       0.29275                      -0.48755
                      -0.09878                      -0.05311                       0.01682
        </DataArray>
        <DataArray type="Float32" Name="OrientationX" NumberOfComponents="3" format="ascii">
                       0.99114                      -0.10123                       0.08598
                       0.99109                      -0.10242                       0.08512
                       0.99101                      -0.10428                       0.08376
                       0.99253                      -0.09896                       0.07131
                       0.99550                      -0.08388                       0.04417
                       0.99665                      -0.07706                       0.02736
                       0.99744                      -0.07082                       0.00984
                       0.99785                      -0.06487                      -0.00916
                       0.99779                      -0.05979                      -0.02909
                       0.99720                      -0.05628                      -0.04914
                       0.99611                      -0.05398                      -0.06969
                       0.99452                      -0.05308                      -0.09004
                       0.99266                      -0.05457                      -0.10795
                       0.99060                      -0.05676                      -0.12442
                       0.98845                      -0.05784                      -0.14008
                       0.98645                      -0.05661                      -0.15398
                       0.98537                      -0.05382                      -0.16171
                       0.98517                      -0.05210                      -0.16349
                       0.99116                      -0.10083                       0.08627
        </DataArray>
        <DataArray type="Float32" Name="OrientationY" NumberOfComponents="3" format="ascii">
                       0.12899                       0.57951                      -0.80470
                       0.12896                       0.57877                      -0.80523
                       0.12892                       0.57776                      -0.80596
                       0.11566                       0.57794                      -0.80784
                       0.08479                       0.57951                      -0.81054
                       0.06711                       0.57963                      -0.81211
                       0.04918                       0.57967                      -0.81336
                       0.03021                       0.57971                      -0.81426
                       0.01098                       0.57973                      -0.81474
                      -0.00743                       0.57969                      -0.81481
                      -0.02557                       0.57966                      -0.81445
                      -0.04273                       0.57966                      -0.81374
                      -0.05655                       0.57958                      -0.81295
                      -0.06878                       0.57958                      -0.81201
                      -0.08098                       0.57974                      -0.81077
                      -0.09303                       0.58009                      -0.80923
                      -0.10091                       0.58041                      -0.80805
                      -0.10333                       0.58055                      -0.80765
                       0.12900                       0.57980                      -0.80448
        </DataArray>
        <DataArray type="Float32" Name="OrientationZ" NumberOfComponents="3" format="ascii">
                       0.03163                       0.80866                       0.58743
                       0.03321                       0.80904                       0.58682
                       0.03565                       0.80952                       0.58601
                       0.03873                       0.81006                       0.58507
                       0.04239                       0.81064                       0.58401
                       0.04672                       0.81122                       0.58287
                       0.05190                       0.81177                       0.58167
                       0.05813                       0.81223                       0.58043
                       0.06558                       0.81261                       0.57910
                       0.07435                       0.81289                       0.57765
                       0.08436                       0.81307                       0.57603
                       0.09539                       0.81313                       0.57421
                       0.10693                       0.81308                       0.57224
                       0.11820                       0.81294                       0.57023
                       0.12810                       0.81275                       0.56836
                       0.13513                       0.81259                       0.56696
                       0.13735                       0.81254                       0.56649
                       0.13700                       0.81256                       0.56655
                       0.03110                       0.80850                       0.58768
        </DataArray>
      </PointData>
      <Lines>
        <DataArray type="Int32" Name="connectivity" format="ascii">
      0      1
      1      2
      2      3
      3      4
      4      5
      5      6
      6      7
      7      8
      8      9
      9     10
     10     11
     11     12
     12     13
     13     14
     14     15
     15     16
     16     17
     18      0
        </DataArray>
        <DataArray type="Int32" Name="offsets" format="ascii">
      2
      4
      6
      8
     10
     12
     14
     16
     18
     20
     22
     24
     26
     28
     30
     32
     34
     36
        </DataArray>
      </Lines>
    </Piece>
  </PolyData>
</VTKFile>
