<?xml version="1.0"?>
<VTKFile type="PolyData" version="0.1" byte_order="LittleEndian">
  <PolyData>
    <Piece NumberOfPoints="     19" NumberOfVerts="  0" NumberOfLines="     18"
           NumberOfStrips="  0" NumberOfPolys="      0">
      <Points>
        <DataArray type="Float32" NumberOfComponents="3" format="ascii">
                       2.82659                       3.26457                      89.68693
                       2.61416                       6.84419                      89.20884
                       2.40852                      10.42360                      88.72628
                       2.21219                      14.00279                      88.23822
                       2.02716                      17.58172                      87.74393
                       1.85550                      21.16039                      87.24296
                       1.69979                      24.73881                      86.73510
                       1.56340                      28.31703                      86.22033
                       1.45038                      31.89506                      85.69862
                       1.36534                      35.47282                      85.16993
                       1.31302                      39.05014                      84.63412
                       1.29768                      42.62670                      84.09099
                       1.32235                      46.20207                      83.54042
                       1.38785                      49.77581                      82.98252
                       1.49161                      53.34760                      82.41787
                       1.62627                      56.91752                      81.84775
                       1.77819                      60.48628                      81.27451
                       1.85631                      62.27051                      80.98748
                       2.93414                       1.47471                      89.92502
        </DataArray>
      </Points>
      <PointData>
        <DataArray type="Float32" Name="TranslationalVelocity" NumberOfComponents="3" format="ascii">
                       0.60144                       0.38674                       3.08544
                       1.01098                       0.85427                       6.40403
                       1.43147                       1.32413                       9.71011
                       1.86665                       1.79669                      13.00068
                       2.31935                       2.27212                      16.27382
                       2.79400                       2.75046                      19.52847
                       3.29859                       3.23163                      22.76444
                       3.84555                       3.71528                      25.98196
                       4.45176                       4.20078                      29.18122
                       5.13773                       4.68692                      32.36200
                       5.92596                       5.17171                      35.52348
                       6.83849                       5.65226                      38.66429
                       7.89358                       6.12490                      41.78290
                       9.10157                       6.58578                      44.87843
                      10.45993                       7.03214                      47.95142
                      11.94746                       7.46404                      51.00492
                      13.51765                       7.88636                      54.04601
                      14.31581                       8.09609                      55.56465
                       0.39879                       0.15349                       1.42347
        </DataArray>
        <DataArray type="Float32" Name="RotationalVelocity" NumberOfComponents="3" format="ascii">
                       0.92803                       0.00863                      -0.11437
                       0.92513                       0.00815                      -0.11669
                       0.92125                       0.00743                      -0.12036
                       0.91671                       0.00657                      -0.12473
                       0.91177                       0.00558                      -0.12993
                       0.90667                       0.00437                      -0.13673
                       0.90162                       0.00280                      -0.14630
                       0.89665                       0.00069                      -0.15990
                       0.89170                      -0.00210                      -0.17869
                       0.88661                      -0.00570                      -0.20349
                       0.88122                      -0.01014                      -0.23456
                       0.87537                      -0.01537                      -0.27135
                       0.86913                      -0.02118                      -0.31231
                       0.86276                      -0.02719                      -0.35467
                       0.85678                      -0.03279                      -0.39418
                       0.85203                      -0.03715                      -0.42494
                       0.84990                      -0.03917                      -0.43915
                       0.84970                      -0.03943                      -0.44102
                       0.92919                       0.00879                      -0.11367
        </DataArray>
        <DataArray type="Float32" Name="TranslationalAcceleration" NumberOfComponents="3" format="ascii">
                       0.82539                      -2.77300                       0.44205
                       0.85394                      -5.92589                       0.66580
                       0.81538                      -9.04422                       1.02561
                       0.68693                     -12.11960                       1.55433
                       0.45285                     -15.14632                       2.27204
                       0.09734                     -18.12171                       3.18905
                      -0.40244                     -21.04668                       4.30757
                      -1.07916                     -23.92506                       5.62405
                      -1.97501                     -26.76255                       7.13158
                      -3.13973                     -29.56583                       8.82125
                      -4.62654                     -32.34206                      10.68268
                      -6.48561                     -35.09857                      12.70400
                      -8.75550                     -37.84310                      14.87089
                     -11.45238                     -40.58393                      17.16535
                     -14.55687                     -43.32909                      19.56491
                     -17.99880                     -46.08468                      22.04187
                     -21.64021                     -48.85320                      24.56112
                     -23.48873                     -50.24075                      25.82636
                       0.79781                      -1.18911                       0.35916
        </DataArray>
        <DataArray type="Float32" Name="RotationalAcceleration" NumberOfComponents="3" format="ascii">
                      -0.07765                       0.06616                      -0.00126
                      -0.04565                       0.06999                       0.01301
                      -0.00247                       0.07549                       0.03478
                       0.04785                       0.08206                       0.06132
                       0.10238                       0.08937                       0.09155
                       0.15864                       0.09744                       0.12665
                       0.21464                       0.10649                       0.16933
                       0.26931                       0.11682                       0.22232
                       0.32216                       0.12874                       0.28806
                       0.37312                       0.14246                       0.36822
                       0.42225                       0.15800                       0.46296
                       0.46951                       0.17510                       0.57035
                       0.51427                       0.19313                       0.68591
                       0.55506                       0.21099                       0.80192
                       0.58955                       0.22699                       0.90683
                       0.61408                       0.23880                       0.98474
                       0.62312                       0.24336                       1.01499
                       0.62295                       0.24339                       1.01529
                      -0.09028                       0.06476                      -0.00607
        </DataArray>
        <DataArray type="Float32" Name="OrientationX" NumberOfComponents="3" format="ascii">
                       0.99200                       0.07328                       0.10279
                       0.99208                       0.07195                       0.10297
                       0.99220                       0.06985                       0.10325
                       0.99374                       0.06549                       0.09049
                       0.99648                       0.05820                       0.06032
                       0.99771                       0.05196                       0.04337
                       0.99865                       0.04479                       0.02632
                       0.99930                       0.03636                       0.00841
                       0.99960                       0.02662                      -0.00956
                       0.99953                       0.01561                      -0.02650
                       0.99907                       0.00332                      -0.04296
                       0.99825                      -0.00993                      -0.05828
                       0.99726                      -0.02329                      -0.07018
                       0.99609                      -0.03624                      -0.08053
                       0.99469                      -0.04793                      -0.09105
                       0.99317                      -0.05685                      -0.10188
                       0.99217                      -0.06043                      -0.10933
                       0.99189                      -0.06054                      -0.11178
                       0.99197                       0.07372                       0.10274
        </DataArray>
        <DataArray type="Float32" Name="OrientationY" NumberOfComponents="3" format="ascii">
                       0.11136                      -0.12446                      -0.98596
                       0.11143                      -0.12566                      -0.98579
                       0.11153                      -0.12730                      -0.98557
                       0.09841                      -0.13010                      -0.98660
                       0.06767                      -0.13406                      -0.98866
                       0.05015                      -0.13713                      -0.98928
                       0.03237                      -0.14008                      -0.98961
                       0.01353                      -0.14285                      -0.98965
                      -0.00559                      -0.14537                      -0.98936
                      -0.02391                      -0.14754                      -0.98877
                      -0.04198                      -0.14936                      -0.98789
                      -0.05911                      -0.15079                      -0.98680
                      -0.07291                      -0.15188                      -0.98571
                      -0.08515                      -0.15263                      -0.98461
                      -0.09739                      -0.15298                      -0.98342
                      -0.10950                      -0.15291                      -0.98216
                      -0.11743                      -0.15263                      -0.98128
                      -0.11986                      -0.15247                      -0.98101
                       0.11133                      -0.12399                      -0.98602
        </DataArray>
        <DataArray type="Float32" Name="OrientationZ" NumberOfComponents="3" format="ascii">
                      -0.05946                       0.98951                      -0.13163
                      -0.05798                       0.98946                      -0.13269
                      -0.05570                       0.98940                      -0.13409
                      -0.05284                       0.98934                      -0.13573
                      -0.04946                       0.98926                      -0.13753
                      -0.04545                       0.98919                      -0.13943
                      -0.04063                       0.98913                      -0.14134
                      -0.03479                       0.98908                      -0.14325
                      -0.02772                       0.98902                      -0.14516
                      -0.01935                       0.98893                      -0.14710
                      -0.00969                       0.98878                      -0.14908
                       0.00101                       0.98852                      -0.15112
                       0.01230                       0.98812                      -0.15316
                       0.02340                       0.98762                      -0.15512
                       0.03321                       0.98707                      -0.15684
                       0.04025                       0.98660                      -0.15809
                       0.04261                       0.98643                      -0.15853
                       0.04234                       0.98645                      -0.15849
                      -0.05995                       0.98954                      -0.13120
        </DataArray>
      </PointData>
      <Lines>
        <DataArray type="Int32" Name="connectivity" format="ascii">
      0      1
      1      2
      2      3
      3      4
      4      5
      5      6
      6      7
      7      8
      8      9
      9     10
     10     11
     11     12
     12     13
     13     14
     14     15
     15     16
     16     17
     18      0
        </DataArray>
        <DataArray type="Int32" Name="offsets" format="ascii">
      2
      4
      6
      8
     10
     12
     14
     16
     18
     20
     22
     24
     26
     28
     30
     32
     34
     36
        </DataArray>
      </Lines>
    </Piece>
  </PolyData>
</VTKFile>
