<?xml version="1.0"?>
<VTKFile type="PolyData" version="0.1" byte_order="LittleEndian">
  <PolyData>
    <Piece NumberOfPoints="     19" NumberOfVerts="  0" NumberOfLines="     18"
           NumberOfStrips="  0" NumberOfPolys="      0">
      <Points>
        <DataArray type="Float32" NumberOfComponents="3" format="ascii">
                       3.23200                      -1.19308                      91.08579
                       3.28021                      -2.26128                      91.93697
                       3.34596                      -4.45633                      93.56766
                       3.40012                      -6.68012                      95.16297
                       3.46591                      -9.47855                      97.13365
                       3.62408                     -12.75262                      99.59828
                       3.83646                     -15.95099                     102.15421
                       4.06861                     -19.15255                     104.70445
                       4.32846                     -22.35640                     107.24922
                       4.62152                     -25.56369                     109.78610
                       4.94877                     -28.77594                     112.31257
                       5.32201                     -31.99209                     114.82773
                       5.74688                     -35.21114                     117.33104
                       6.22604                     -38.43184                     119.82248
                       6.75957                     -41.65293                     122.30244
                       7.23881                     -44.33680                     124.36197
                       7.63993                     -46.47860                     126.01234
                       8.04981                     -48.58674                     127.70522
                       8.24997                     -49.66627                     128.51899
        </DataArray>
      </Points>
      <PointData>
        <DataArray type="Float32" Name="Force" NumberOfComponents="3" format="ascii">
                       0.49643                       3.14757                       3.89993
                      74.56834                      17.34056                      17.33157
                      96.25588                      40.18266                      44.42513
                      88.08264                      52.14061                      59.64296
                     661.86360                    -192.25448                    -284.08147
                     861.85046                    -214.36154                    -330.63299
                     980.61244                    -197.24581                    -325.79910
                    1250.63188                    -207.75261                    -373.09862
                    1346.70477                    -177.47212                    -360.20536
                    1552.40369                    -164.89297                    -388.42346
                    1927.80809                    -154.55308                    -453.84381
                    2212.43112                    -128.04551                    -504.22913
                    2621.92990                    -113.22823                    -607.75071
                    2902.48701                     -73.79393                    -673.71076
                    3181.44074                     -30.62983                    -740.97938
                    3356.99189                       7.40498                    -775.73674
                    3341.55800                      35.23677                    -756.77291
                    2483.30201                      36.21783                    -554.57199
                    1235.76464                      77.20931                    -199.54530
        </DataArray>
        <DataArray type="Float32" Name="Moment" NumberOfComponents="3" format="ascii">
                       0.00000                       0.00000                       0.00000
                       0.00000                       0.00000                       0.00000
                       0.00000                       0.00000                       0.00000
                       0.00000                       0.00000                       0.00000
                      -7.89823                     148.91173                    -119.17883
                     -19.79136                     340.84953                    -272.57480
                     -28.94927                     450.35016                    -359.78523
                     -45.44153                     631.77972                    -504.11473
                     -70.10727                     862.10782                    -686.86902
                     -89.00740                     959.48100                    -763.05148
                    -109.09739                    1023.06931                    -811.81529
                    -131.70403                    1075.04173                    -850.88374
                    -128.23656                     917.48898                    -724.16688
                    -143.62041                     913.23692                    -718.77688
                    -153.48184                     886.09032                    -695.61203
                    -154.66054                     843.68597                    -661.23813
                    -140.91837                     749.92237                    -587.31233
                     -71.76902                     378.85298                    -296.63043
                     -62.35263                     330.04816                    -258.43949
        </DataArray>
        <DataArray type="Float32" Name="TranslationalVelocity" NumberOfComponents="3" format="ascii">
                       0.02913                      -0.91274                      -1.03120
                      -0.08919                      -1.70455                      -2.01820
                      -0.33328                      -3.21789                      -4.04532
                      -0.58089                      -4.69559                      -6.09637
                      -0.89272                      -6.51803                      -8.67279
                      -1.25636                      -8.80126                     -11.68048
                      -1.61124                     -11.16812                     -14.61051
                      -1.96845                     -13.52510                     -17.53477
                      -2.32902                     -15.87339                     -20.45242
                      -2.69444                     -18.21173                     -23.36468
                      -3.06561                     -20.53899                     -26.27401
                      -3.44422                     -22.85576                     -29.17896
                      -3.83122                     -25.16299                     -32.07909
                      -4.22699                     -27.46186                     -34.97390
                      -4.63105                     -29.75373                     -37.86315
                      -4.97285                     -31.65967                     -40.26706
                      -5.24805                     -33.18825                     -42.18383
                      -5.51933                     -34.75568                     -44.07005
                      -5.65814                     -35.50950                     -45.03595
        </DataArray>
        <DataArray type="Float32" Name="RotationalVelocity" NumberOfComponents="3" format="ascii">
                       0.92398                       0.00859                      -0.11766
                       0.92359                       0.00860                      -0.11762
                       0.92264                       0.00861                      -0.11756
                       0.92145                       0.00859                      -0.11751
                       0.91964                       0.00854                      -0.11747
                       0.91715                       0.00839                      -0.11752
                       0.91448                       0.00811                      -0.11772
                       0.91176                       0.00767                      -0.11811
                       0.90906                       0.00705                      -0.11873
                       0.90645                       0.00623                      -0.11960
                       0.90399                       0.00520                      -0.12075
                       0.90171                       0.00400                      -0.12212
                       0.89965                       0.00269                      -0.12363
                       0.89786                       0.00137                      -0.12518
                       0.89644                       0.00019                      -0.12657
                       0.89561                      -0.00053                      -0.12742
                       0.89523                      -0.00083                      -0.12777
                       0.89509                      -0.00087                      -0.12781
                       0.89511                      -0.00079                      -0.12771
        </DataArray>
        <DataArray type="Float32" Name="TranslationalAcceleration" NumberOfComponents="3" format="ascii">
                      -1.33523                       0.97300                      -0.90512
                      -1.48258                       1.91923                      -1.60681
                      -1.76145                       3.85841                      -2.94617
                      -2.01485                       5.81333                      -4.25665
                      -2.28672                       8.25666                      -5.88095
                      -2.54919                      11.09250                      -7.93613
                      -2.71947                      13.83468                     -10.09048
                      -2.77852                      16.55052                     -12.25719
                      -2.73762                      19.24370                     -14.43395
                      -2.62625                      21.92146                     -16.61261
                      -2.48926                      24.59235                     -18.78297
                      -2.37885                      27.25923                     -20.93519
                      -2.36083                      29.92365                     -23.05792
                      -2.49890                      32.58327                     -25.14043
                      -2.84248                      35.23304                     -27.17449
                      -3.29668                      37.43029                     -28.83188
                      -3.77119                      39.17587                     -30.13920
                      -4.32989                      40.88920                     -31.46701
                      -4.61635                      41.76591                     -32.10210
        </DataArray>
        <DataArray type="Float32" Name="OrientationX" NumberOfComponents="3" format="ascii">
                       0.94509                      -0.17687                      -0.27480
                       0.94508                      -0.17654                      -0.27507
                       0.94503                      -0.17558                      -0.27583
                       0.94497                      -0.17428                      -0.27688
                       0.94486                      -0.17211                      -0.27861
                       0.95456                      -0.14963                      -0.25773
                       0.96084                      -0.13170                      -0.24379
                       0.96580                      -0.11462                      -0.23258
                       0.97051                      -0.09574                      -0.22124
                       0.97474                      -0.07520                      -0.21028
                       0.97805                      -0.05388                      -0.20126
                       0.98066                      -0.03143                      -0.19320
                       0.98229                      -0.00933                      -0.18715
                       0.98276                       0.01014                      -0.18458
                       0.98300                       0.02848                      -0.18137
                       0.98330                       0.04180                      -0.17710
                       0.98374                       0.04989                      -0.17253
                       0.98405                       0.05364                      -0.16963
                       0.98411                       0.05333                      -0.16938
        </DataArray>
        <DataArray type="Float32" Name="OrientationY" NumberOfComponents="3" format="ascii">
                       0.32484                       0.60040                       0.73075
                       0.32485                       0.60032                       0.73082
                       0.32486                       0.60011                       0.73098
                       0.32487                       0.59986                       0.73118
                       0.32489                       0.59948                       0.73148
                       0.29461                       0.60410                       0.74045
                       0.27262                       0.60679                       0.74665
                       0.25331                       0.60871                       0.75187
                       0.23281                       0.61041                       0.75710
                       0.21163                       0.61176                       0.76221
                       0.19154                       0.61263                       0.76681
                       0.17158                       0.61309                       0.77116
                       0.15347                       0.61309                       0.77496
                       0.13976                       0.61275                       0.77782
                       0.12627                       0.61222                       0.78054
                       0.11498                       0.61165                       0.78273
                       0.10655                       0.61117                       0.78429
                       0.10203                       0.61089                       0.78511
                       0.10203                       0.61089                       0.78511
        </DataArray>
        <DataArray type="Float32" Name="OrientationZ" NumberOfComponents="3" format="ascii">
                       0.03574                      -0.77989                       0.62489
                       0.03611                      -0.78003                       0.62469
                       0.03718                      -0.78041                       0.62416
                       0.03866                      -0.78089                       0.62347
                       0.04112                      -0.78166                       0.62234
                       0.04490                      -0.78273                       0.62073
                       0.04959                      -0.78388                       0.61893
                       0.05540                      -0.78507                       0.61693
                       0.06256                      -0.78628                       0.61469
                       0.07132                      -0.78746                       0.61222
                       0.08198                      -0.78853                       0.60951
                       0.09421                      -0.78939                       0.60662
                       0.10751                      -0.78996                       0.60366
                       0.12099                      -0.79021                       0.60077
                       0.13327                      -0.79018                       0.59822
                       0.14104                      -0.79002                       0.59663
                       0.14457                      -0.78993                       0.59592
                       0.14574                      -0.78989                       0.59567
                       0.14534                      -0.78991                       0.59574
        </DataArray>
      </PointData>
      <Lines>
        <DataArray type="Int32" Name="connectivity" format="ascii">
      0      1
      1      2
      2      3
      3      4
      4      5
      5      6
      6      7
      7      8
      8      9
      9     10
     10     11
     11     12
     12     13
     13     14
     14     15
     15     16
     16     17
     17     18
        </DataArray>
        <DataArray type="Int32" Name="offsets" format="ascii">
      2
      4
      6
      8
     10
     12
     14
     16
     18
     20
     22
     24
     26
     28
     30
     32
     34
     36
        </DataArray>
      </Lines>
    </Piece>
  </PolyData>
</VTKFile>
