<?xml version="1.0"?>
<VTKFile type="PolyData" version="0.1" byte_order="LittleEndian">
  <PolyData>
    <Piece NumberOfPoints="     19" NumberOfVerts="  0" NumberOfLines="     18"
           NumberOfStrips="  0" NumberOfPolys="      0">
      <Points>
        <DataArray type="Float32" NumberOfComponents="3" format="ascii">
                       2.67194                       0.87307                      88.95354
                       2.48102                       1.68839                      87.87341
                       2.08490                       3.39415                      85.77208
                       1.68528                       5.13464                      83.69707
                       1.18911                       7.33010                      81.11679
                       0.64923                       9.84803                      77.92316
                       0.14218                      12.25807                      74.64363
                      -0.34492                      14.66221                      71.35679
                      -0.80426                      17.05939                      68.06099
                      -1.22946                      19.45165                      64.75717
                      -1.61829                      21.84257                      61.44810
                      -1.95786                      24.23079                      58.13182
                      -2.24123                      26.61606                      54.80829
                      -2.46448                      28.99789                      51.47785
                      -2.62669                      31.37587                      48.14125
                      -2.72226                      33.35463                      45.35708
                      -2.77934                      34.92953                      43.12347
                      -2.83527                      36.45931                      40.85739
                      -2.86064                      37.25793                      39.74867
        </DataArray>
      </Points>
      <PointData>
        <DataArray type="Float32" Name="Force" NumberOfComponents="3" format="ascii">
                      -0.03563                      -0.40069                      -0.29471
                      63.58059                      -9.18404                     -18.08234
                      82.82968                     -32.44086                     -38.79898
                      74.39357                     -49.01925                     -49.60749
                     800.82523                     281.41498                      76.24011
                     990.55515                     302.54097                      65.21972
                    1172.93165                     303.79491                      43.69615
                    1518.80492                     338.28606                      26.84711
                    1680.65536                     315.23970                       1.26958
                    1950.23898                     310.75855                     -17.07657
                    2400.41770                     316.74625                     -35.83168
                    2757.79182                     297.34839                     -45.07614
                    3190.54122                     285.51816                     -37.46731
                    3480.96445                     241.43742                     -27.75096
                    3715.64024                     186.75640                     -17.91793
                    3825.47959                     132.55489                     -19.75278
                    3698.70070                      81.67686                     -33.61957
                    2659.12737                      32.26797                     -37.95353
                    1255.64777                     -73.21797                     -83.49889
        </DataArray>
        <DataArray type="Float32" Name="Moment" NumberOfComponents="3" format="ascii">
                       0.00000                       0.00000                       0.00000
                       0.00000                       0.00000                       0.00000
                       0.00000                       0.00000                       0.00000
                       0.00000                       0.00000                       0.00000
                      45.93886                    -204.57795                     272.59016
                      58.45980                    -268.60786                     358.13146
                      71.63310                    -342.25544                     456.67009
                      92.84165                    -466.24959                     622.68849
                     114.94162                    -616.11238                     823.77018
                     118.62930                    -693.46450                     928.49243
                     110.36558                    -726.20644                     974.00763
                      99.64440                    -767.75090                    1031.78789
                      74.19157                    -704.53607                     948.91838
                      56.13495                    -700.62586                     945.78530
                      38.38374                    -675.94222                     914.37168
                      26.71346                    -641.45964                     868.90014
                      19.57274                    -568.92589                     771.14648
                       9.01259                    -286.24154                     388.08498
                       7.88025                    -247.45809                     335.49182
        </DataArray>
        <DataArray type="Float32" Name="TranslationalVelocity" NumberOfComponents="3" format="ascii">
                      -0.52255                       1.13280                       0.77242
                      -0.41464                       2.14683                       1.51877
                      -0.19198                       4.12234                       3.08044
                       0.03237                       6.07418                       4.67449
                       0.31137                       8.50142                       6.68629
                       0.62821                      11.49767                       8.99543
                       0.92585                      14.56979                      11.20746
                       1.21512                      17.64732                      13.41604
                       1.49958                      20.73160                      15.62010
                       1.78625                      23.82184                      17.82117
                       2.08306                      26.91560                      20.02195
                       2.40157                      30.01383                      22.22080
                       2.75365                      33.11545                      24.41700
                       3.14983                      36.21864                      26.60991
                       3.59665                      39.32107                      28.79934
                       4.00663                      41.90464                      30.62140
                       4.35654                      43.97423                      32.07160
                       4.71493                      46.07320                      33.47958
                       4.89928                      47.09981                      34.21475
        </DataArray>
        <DataArray type="Float32" Name="RotationalVelocity" NumberOfComponents="3" format="ascii">
                       0.91912                      -0.01629                      -0.11118
                       0.91917                      -0.01609                      -0.11104
                       0.91930                      -0.01561                      -0.11071
                       0.91946                      -0.01500                      -0.11028
                       0.91969                      -0.01397                      -0.10954
                       0.91999                      -0.01239                      -0.10841
                       0.92035                      -0.01073                      -0.10722
                       0.92080                      -0.00945                      -0.10634
                       0.92135                      -0.00909                      -0.10617
                       0.92197                      -0.01022                      -0.10713
                       0.92260                      -0.01350                      -0.10970
                       0.92312                      -0.01899                      -0.11392
                       0.92344                      -0.02658                      -0.11968
                       0.92351                      -0.03579                      -0.12661
                       0.92333                      -0.04563                      -0.13397
                       0.92303                      -0.05315                      -0.13956
                       0.92277                      -0.05777                      -0.14299
                       0.92254                      -0.06103                      -0.14540
                       0.92246                      -0.06204                      -0.14614
        </DataArray>
        <DataArray type="Float32" Name="TranslationalAcceleration" NumberOfComponents="3" format="ascii">
                       0.22004                      -1.09348                       0.81553
                       0.33399                      -1.83652                       1.71298
                       0.54960                      -3.36624                       3.47451
                       0.75380                      -4.86492                       5.27163
                       0.99622                      -6.64977                       7.61316
                       1.28520                      -8.50806                      10.65795
                       1.57161                     -10.03187                      13.94216
                       1.85539                     -11.30424                      17.40980
                       2.14842                     -12.32536                      21.05643
                       2.46403                     -13.10663                      24.87218
                       2.81103                     -13.68749                      28.82904
                       3.20555                     -14.06192                      32.93146
                       3.65838                     -14.25208                      37.16386
                       4.17569                     -14.28395                      41.50835
                       4.75660                     -14.18830                      45.94393
                       5.28140                     -14.03795                      49.69075
                       5.72179                     -13.87700                      52.71033
                       6.16962                     -13.64488                      55.73308
                       6.39137                     -13.57465                      57.24724
        </DataArray>
        <DataArray type="Float32" Name="OrientationX" NumberOfComponents="3" format="ascii">
                       0.97754                       0.21026                      -0.01457
                       0.97759                       0.21003                      -0.01426
                       0.97775                       0.20937                      -0.01338
                       0.97795                       0.20847                      -0.01218
                       0.97829                       0.20697                      -0.01019
                       0.98335                       0.17978                      -0.02653
                       0.98661                       0.15888                      -0.03672
                       0.98923                       0.13951                      -0.04417
                       0.99167                       0.11828                      -0.05106
                       0.99382                       0.09541                      -0.05681
                       0.99559                       0.07213                      -0.06001
                       0.99696                       0.04781                      -0.06151
                       0.99786                       0.02420                      -0.06069
                       0.99838                       0.00395                      -0.05683
                       0.99844                      -0.01546                      -0.05369
                       0.99813                      -0.03015                      -0.05315
                       0.99772                      -0.03966                      -0.05467
                       0.99745                      -0.04441                      -0.05594
                       0.99744                      -0.04428                      -0.05612
        </DataArray>
        <DataArray type="Float32" Name="OrientationY" NumberOfComponents="3" format="ascii">
                       0.15780                      -0.77595                      -0.61074
                       0.15784                      -0.77614                      -0.61048
                       0.15795                      -0.77662                      -0.60985
                       0.15809                      -0.77720                      -0.60907
                       0.15829                      -0.77809                      -0.60788
                       0.12726                      -0.78547                      -0.60568
                       0.10487                      -0.79063                      -0.60324
                       0.08528                      -0.79491                      -0.60070
                       0.06449                      -0.79889                      -0.59801
                       0.04301                      -0.80239                      -0.59524
                       0.02262                      -0.80521                      -0.59256
                       0.00232                      -0.80743                      -0.58996
                      -0.01612                      -0.80897                      -0.58763
                      -0.03015                      -0.80990                      -0.58579
                      -0.04397                      -0.81041                      -0.58421
                      -0.05553                      -0.81048                      -0.58313
                      -0.06412                      -0.81033                      -0.58246
                      -0.06872                      -0.81019                      -0.58212
                      -0.06872                      -0.81019                      -0.58213
        </DataArray>
        <DataArray type="Float32" Name="OrientationZ" NumberOfComponents="3" format="ascii">
                      -0.13971                       0.59472                      -0.79170
                      -0.13929                       0.59455                      -0.79190
                      -0.13808                       0.59416                      -0.79240
                      -0.13644                       0.59372                      -0.79302
                      -0.13374                       0.59307                      -0.79396
                      -0.12973                       0.59222                      -0.79527
                      -0.12487                       0.59132                      -0.79671
                      -0.11892                       0.59047                      -0.79825
                      -0.11153                       0.58974                      -0.79986
                      -0.10238                       0.58912                      -0.80153
                      -0.09106                       0.58858                      -0.80329
                      -0.07788                       0.58803                      -0.80509
                      -0.06332                       0.58736                      -0.80685
                      -0.04834                       0.58655                      -0.80847
                      -0.03448                       0.58566                      -0.80982
                      -0.02549                       0.58499                      -0.81064
                      -0.02120                       0.58463                      -0.81102
                      -0.01947                       0.58448                      -0.81117
                      -0.01969                       0.58449                      -0.81116
        </DataArray>
      </PointData>
      <Lines>
        <DataArray type="Int32" Name="connectivity" format="ascii">
      0      1
      1      2
      2      3
      3      4
      4      5
      5      6
      6      7
      7      8
      8      9
      9     10
     10     11
     11     12
     12     13
     13     14
     14     15
     15     16
     16     17
     17     18
        </DataArray>
        <DataArray type="Int32" Name="offsets" format="ascii">
      2
      4
      6
      8
     10
     12
     14
     16
     18
     20
     22
     24
     26
     28
     30
     32
     34
     36
        </DataArray>
      </Lines>
    </Piece>
  </PolyData>
</VTKFile>
