<?xml version="1.0"?>
<VTKFile type="PolyData" version="0.1" byte_order="LittleEndian">
  <PolyData>
    <Piece NumberOfPoints="     19" NumberOfVerts="  0" NumberOfLines="     18"
           NumberOfStrips="  0" NumberOfPolys="      0">
      <Points>
        <DataArray type="Float32" NumberOfComponents="3" format="ascii">
                       2.88178                      -0.54584                      88.75399
                       2.66359                      -1.02344                      87.49218
                       2.20243                      -1.88949                      84.93891
                       1.73392                      -2.71271                      82.37054
                       1.15132                      -3.71508                      79.14924
                       0.52917                      -5.04979                      75.32110
                      -0.03810                      -6.50311                      71.52923
                      -0.57628                      -7.95508                      67.73260
                      -1.07576                      -9.40689                      63.93062
                      -1.52879                     -10.85627                      60.12193
                      -1.93353                     -12.29993                      56.30568
                      -2.27440                     -13.73858                      52.48131
                      -2.54368                     -15.17232                      48.64939
                      -2.73761                     -16.60146                      44.81118
                      -2.85678                     -18.02645                      40.96832
                      -2.90849                     -19.21157                      37.76382
                      -2.92626                     -20.16602                      35.20227
                      -2.93684                     -21.17199                      32.65927
                      -2.94450                     -21.63579                      31.37370
        </DataArray>
      </Points>
      <PointData>
        <DataArray type="Float32" Name="Force" NumberOfComponents="3" format="ascii">
                       0.14692                      -3.13547                       1.17086
                      54.76793                     -25.30858                       0.21808
                      77.12847                     -60.37933                       9.87943
                      74.30736                     -78.97240                      17.62652
                     652.69561                     246.12015                    -200.79016
                     861.00689                     272.13240                    -239.44615
                    1009.11082                     262.80539                    -251.54860
                    1300.85298                     286.72260                    -292.43949
                    1415.55140                     257.94825                    -281.83398
                    1638.25910                     258.50261                    -288.92598
                    2042.72023                     277.99527                    -310.53366
                    2364.40758                     288.26899                    -303.58756
                    2725.50293                     328.10803                    -294.72513
                    3019.14283                     347.88342                    -260.86609
                    3321.01195                     382.24286                    -227.32931
                    3629.09016                     419.09604                    -208.05281
                    3746.73207                     435.48986                    -196.78620
                    2997.65326                     381.18236                    -164.73560
                    1166.15172                      30.89617                     -20.91038
        </DataArray>
        <DataArray type="Float32" Name="Moment" NumberOfComponents="3" format="ascii">
                       0.00000                       0.00000                       0.00000
                       0.00000                       0.00000                       0.00000
                       0.00000                       0.00000                       0.00000
                       0.00000                       0.00000                       0.00000
                      29.44809                      68.46348                     179.64465
                      63.12537                     152.39835                     400.18980
                      80.15055                     203.03366                     533.65085
                     106.46078                     286.85402                     754.81378
                     134.67304                     393.33078                    1036.41011
                     136.13250                     442.44476                    1167.75040
                     127.73541                     480.32886                    1270.25474
                     111.94472                     512.55928                    1358.54674
                      74.84119                     448.33763                    1191.22199
                      51.65684                     449.53597                    1197.34028
                      29.50779                     436.31592                    1164.71731
                      15.65772                     414.56542                    1108.20911
                       8.87994                     366.05812                     979.16083
                       3.52409                     177.37926                     474.56562
                       2.96791                     138.19920                     369.71428
        </DataArray>
        <DataArray type="Float32" Name="TranslationalVelocity" NumberOfComponents="3" format="ascii">
                       0.24413                       1.27490                      -0.41759
                       0.17411                       2.44834                      -0.84963
                       0.04323                       4.82342                      -1.63171
                      -0.08516                       7.20788                      -2.37297
                      -0.24758                      10.18841                      -3.27215
                      -0.46586                      13.70699                      -4.46565
                      -0.70996                      17.16815                      -5.75820
                      -0.97022                      20.61129                      -7.04050
                      -1.24982                      24.03596                      -8.31374
                      -1.55142                      27.44316                      -9.57647
                      -1.87448                      30.83605                     -10.82744
                      -2.22330                      34.21268                     -12.06801
                      -2.59864                      37.57303                     -13.30005
                      -2.99956                      40.91718                     -14.52576
                      -3.42271                      44.24577                     -15.74737
                      -3.78763                      47.00964                     -16.76368
                      -4.08492                      49.21339                     -17.58261
                      -4.38592                      51.39960                     -18.44596
                      -4.53182                      52.50508                     -18.84375
        </DataArray>
        <DataArray type="Float32" Name="RotationalVelocity" NumberOfComponents="3" format="ascii">
                       0.91102                       0.01225                      -0.11359
                       0.91033                       0.01250                      -0.11356
                       0.90858                       0.01323                      -0.11354
                       0.90640                       0.01426                      -0.11355
                       0.90304                       0.01603                      -0.11365
                       0.89839                       0.01887                      -0.11393
                       0.89344                       0.02246                      -0.11444
                       0.88841                       0.02674                      -0.11520
                       0.88347                       0.03165                      -0.11622
                       0.87876                       0.03714                      -0.11750
                       0.87440                       0.04309                      -0.11902
                       0.87045                       0.04926                      -0.12069
                       0.86698                       0.05532                      -0.12240
                       0.86405                       0.06085                      -0.12400
                       0.86177                       0.06528                      -0.12530
                       0.86049                       0.06753                      -0.12594
                       0.85993                       0.06801                      -0.12603
                       0.85974                       0.06741                      -0.12576
                       0.85979                       0.06667                      -0.12549
        </DataArray>
        <DataArray type="Float32" Name="TranslationalAcceleration" NumberOfComponents="3" format="ascii">
                      -0.10970                       0.43007                       1.02076
                       0.04519                       0.81416                       2.09167
                       0.34090                       1.51273                       4.25778
                       0.57230                       2.19374                       6.43433
                       0.73030                       3.05335                       9.16369
                       0.66559                       4.23434                      12.39740
                       0.26595                       5.55693                      15.58449
                      -0.47351                       6.92925                      18.75582
                      -1.51645                       8.35944                      21.89478
                      -2.77080                       9.85623                      24.97941
                      -4.09876                      11.42063                      27.99500
                      -5.34320                      13.07174                      30.91140
                      -6.30558                      14.81868                      33.71451
                      -6.79347                      16.66683                      36.40559
                      -6.65765                      18.61533                      39.00230
                      -6.03583                      20.30637                      41.11639
                      -5.20697                      21.69968                      42.78357
                      -4.15471                      23.14337                      44.41570
                      -3.58739                      23.84075                      45.24989
        </DataArray>
        <DataArray type="Float32" Name="OrientationX" NumberOfComponents="3" format="ascii">
                       0.94964                       0.20054                      -0.24076
                       0.94974                       0.20075                      -0.24021
                       0.95000                       0.20134                      -0.23867
                       0.95035                       0.20213                      -0.23658
                       0.95093                       0.20346                      -0.23308
                       0.95991                       0.17620                      -0.21803
                       0.96615                       0.15743                      -0.20438
                       0.97146                       0.14179                      -0.19017
                       0.97673                       0.12566                      -0.17381
                       0.98178                       0.10964                      -0.15517
                       0.98630                       0.09553                      -0.13451
                       0.99031                       0.08223                      -0.11192
                       0.99352                       0.07116                      -0.08862
                       0.99570                       0.06432                      -0.06664
                       0.99729                       0.05707                      -0.04633
                       0.99823                       0.04982                      -0.03256
                       0.99874                       0.04338                      -0.02520
                       0.99897                       0.03958                      -0.02219
                       0.99897                       0.03938                      -0.02272
        </DataArray>
        <DataArray type="Float32" Name="OrientationY" NumberOfComponents="3" format="ascii">
                       0.26969                      -0.91430                       0.30219
                       0.26970                      -0.91428                       0.30223
                       0.26972                      -0.91424                       0.30235
                       0.26974                      -0.91419                       0.30249
                       0.26978                      -0.91410                       0.30271
                       0.23934                      -0.92005                       0.31021
                       0.21724                      -0.92377                       0.31538
                       0.19782                      -0.92665                       0.31966
                       0.17720                      -0.92938                       0.32383
                       0.15586                      -0.93184                       0.32770
                       0.13559                      -0.93384                       0.33098
                       0.11541                      -0.93556                       0.33377
                       0.09706                      -0.93690                       0.33585
                       0.08314                      -0.93778                       0.33712
                       0.06942                      -0.93857                       0.33803
                       0.05792                      -0.93916                       0.33855
                       0.04935                      -0.93956                       0.33881
                       0.04476                      -0.93975                       0.33892
                       0.04476                      -0.93975                       0.33892
        </DataArray>
        <DataArray type="Float32" Name="OrientationZ" NumberOfComponents="3" format="ascii">
                      -0.15952                      -0.35190                      -0.92234
                      -0.15895                      -0.35183                      -0.92247
                      -0.15733                      -0.35161                      -0.92283
                      -0.15513                      -0.35129                      -0.92333
                      -0.15147                      -0.35074                      -0.92414
                      -0.14593                      -0.34995                      -0.92533
                      -0.13915                      -0.34910                      -0.92670
                      -0.13090                      -0.34815                      -0.92825
                      -0.12084                      -0.34709                      -0.93001
                      -0.10866                      -0.34591                      -0.93195
                      -0.09399                      -0.34469                      -0.93400
                      -0.07726                      -0.34345                      -0.93599
                      -0.05913                      -0.34228                      -0.93774
                      -0.04082                      -0.34121                      -0.93910
                      -0.02419                      -0.34033                      -0.93999
                      -0.01371                      -0.33983                      -0.94039
                      -0.00898                      -0.33962                      -0.94052
                      -0.00744                      -0.33956                      -0.94055
                      -0.00800                      -0.33958                      -0.94054
        </DataArray>
      </PointData>
      <Lines>
        <DataArray type="Int32" Name="connectivity" format="ascii">
      0      1
      1      2
      2      3
      3      4
      4      5
      5      6
      6      7
      7      8
      8      9
      9     10
     10     11
     11     12
     12     13
     13     14
     14     15
     15     16
     16     17
     17     18
        </DataArray>
        <DataArray type="Int32" Name="offsets" format="ascii">
      2
      4
      6
      8
     10
     12
     14
     16
     18
     20
     22
     24
     26
     28
     30
     32
     34
     36
        </DataArray>
      </Lines>
    </Piece>
  </PolyData>
</VTKFile>
