<?xml version="1.0"?>
<VTKFile type="PolyData" version="0.1" byte_order="LittleEndian">
  <PolyData>
    <Piece NumberOfPoints="     19" NumberOfVerts="  0" NumberOfLines="     18"
           NumberOfStrips="  0" NumberOfPolys="      0">
      <Points>
        <DataArray type="Float32" NumberOfComponents="3" format="ascii">
                       3.17993                       1.00809                      91.22926
                       3.24380                       1.95615                      92.21160
                       3.35859                       3.78395                      94.24337
                       3.47050                       5.58046                      96.30601
                       3.61413                       7.80884                      98.90165
                       3.83996                      10.58989                     101.90901
                       4.09644                      13.46800                     104.81937
                       4.37258                      16.35105                     107.72297
                       4.67616                      19.23996                     110.61792
                       5.01357                      22.13273                     113.50512
                       5.38705                      25.02594                     116.38723
                       5.80934                      27.92019                     119.26140
                       6.28721                      30.81481                     122.12633
                       6.82441                      33.70917                     124.98086
                       7.42171                      36.60259                     127.82428
                       7.95834                      39.01294                     130.18611
                       8.40648                      40.94632                     132.06594
                       8.85468                      42.91878                     133.90631
                       9.08211                      43.87531                     134.85553
        </DataArray>
      </Points>
      <PointData>
        <DataArray type="Float32" Name="Force" NumberOfComponents="3" format="ascii">
                      -0.03681                       0.30265                      -0.29106
                      76.97202                      15.08460                     -19.68589
                      90.23307                      38.52264                     -43.44885
                      76.54119                      51.25858                     -55.07098
                     773.36818                    -191.80686                     129.27416
                    1053.93166                    -257.95776                     167.02580
                    1201.02158                    -238.76280                     128.64261
                    1524.07319                    -258.43238                     107.32452
                    1664.90080                    -242.50281                      61.35701
                    1912.94141                    -251.50314                      19.61931
                    2334.57899                    -282.25860                     -37.14029
                    2646.96921                    -305.27776                    -105.57013
                    3043.77605                    -354.92705                    -180.13296
                    3275.53722                    -379.35406                    -266.03838
                    3445.83677                    -392.45372                    -354.65965
                    3494.58277                    -380.40814                    -422.19955
                    3337.95088                    -337.80399                    -449.25647
                    2378.34638                    -223.84162                    -342.74194
                    1268.88673                     -55.54919                    -245.73911
        </DataArray>
        <DataArray type="Float32" Name="Moment" NumberOfComponents="3" format="ascii">
                       0.00000                       0.00000                       0.00000
                       0.00000                       0.00000                       0.00000
                       0.00000                       0.00000                       0.00000
                       0.00000                       0.00000                       0.00000
                     -12.91137                    -170.31914                    -175.46537
                     -23.24679                    -284.86426                    -293.26258
                     -34.95570                    -394.41806                    -405.69614
                     -53.04986                    -545.72304                    -560.73517
                     -78.49106                    -727.85745                    -746.90162
                     -98.93901                    -817.89982                    -837.94206
                    -116.86898                    -852.00451                    -871.13684
                    -140.09811                    -897.97833                    -916.00305
                    -143.49101                    -811.50694                    -825.66093
                    -160.41585                    -809.23782                    -821.16127
                    -171.28115                    -785.42503                    -795.02673
                    -172.50021                    -746.90880                    -754.82335
                    -157.21502                    -663.03884                    -669.54813
                     -79.97144                    -333.77705                    -336.94908
                     -71.07959                    -297.04250                    -299.87686
        </DataArray>
        <DataArray type="Float32" Name="TranslationalVelocity" NumberOfComponents="3" format="ascii">
                      -0.33811                      -0.97111                       0.94736
                      -0.23672                      -1.88304                       1.82088
                      -0.04199                      -3.76783                       3.50538
                       0.15071                      -5.68291                       5.16267
                       0.39343                      -8.09724                       7.22125
                       0.70538                     -10.90797                       9.79564
                       1.03984                     -13.64002                      12.46628
                       1.38796                     -16.37576                      15.14796
                       1.75313                     -19.11446                      17.84116
                       2.13897                     -21.85772                      20.54326
                       2.54655                     -24.60746                      23.24960
                       2.98230                     -27.36336                      25.95973
                       3.44963                     -30.12498                      28.67123
                       3.95021                     -32.89158                      31.38163
                       4.48275                     -35.66216                      34.08873
                       4.94675                     -37.97302                      36.34158
                       5.32858                     -39.81714                      38.14728
                       5.71784                     -41.62449                      39.98970
                       5.90874                     -42.55608                      40.88284
        </DataArray>
        <DataArray type="Float32" Name="RotationalVelocity" NumberOfComponents="3" format="ascii">
                       0.92041                      -0.00933                      -0.11631
                       0.92075                      -0.00919                      -0.11647
                       0.92162                      -0.00878                      -0.11692
                       0.92270                      -0.00821                      -0.11754
                       0.92435                      -0.00725                      -0.11858
                       0.92660                      -0.00573                      -0.12020
                       0.92895                      -0.00380                      -0.12222
                       0.93131                      -0.00138                      -0.12472
                       0.93357                       0.00164                      -0.12780
                       0.93568                       0.00535                      -0.13153
                       0.93754                       0.00986                      -0.13603
                       0.93910                       0.01504                      -0.14115
                       0.94034                       0.02066                      -0.14668
                       0.94125                       0.02636                      -0.15227
                       0.94185                       0.03154                      -0.15733
                       0.94214                       0.03481                      -0.16052
                       0.94226                       0.03628                      -0.16196
                       0.94232                       0.03675                      -0.16241
                       0.94234                       0.03656                      -0.16223
        </DataArray>
        <DataArray type="Float32" Name="TranslationalAcceleration" NumberOfComponents="3" format="ascii">
                      -1.21551                      -0.69950                      -0.80500
                      -1.32662                      -1.57291                      -1.58862
                      -1.55303                      -3.27299                      -3.21100
                      -1.77616                      -4.97497                      -4.84709
                      -2.04373                      -7.13816                      -6.88441
                      -2.32731                      -9.89668                      -9.19185
                      -2.55985                     -12.82170                     -11.35204
                      -2.74799                     -15.84321                     -13.44885
                      -2.90316                     -18.95878                     -15.48337
                      -3.05125                     -22.16047                     -17.46068
                      -3.22499                     -25.42993                     -19.39180
                      -3.47074                     -28.76572                     -21.27197
                      -3.83914                     -32.15520                     -23.09992
                      -4.37648                     -35.58416                     -24.87227
                      -5.11404                     -39.03711                     -26.58603
                      -5.88108                     -41.92260                     -27.97138
                      -6.58741                     -44.23546                     -29.04707
                      -7.34425                     -46.57074                     -30.06229
                      -7.73680                     -47.71990                     -30.60349
        </DataArray>
        <DataArray type="Float32" Name="OrientationX" NumberOfComponents="3" format="ascii">
                       0.98846                      -0.13571                       0.06724
                       0.98845                      -0.13598                       0.06696
                       0.98839                      -0.13674                       0.06617
                       0.98832                      -0.13779                       0.06509
                       0.98819                      -0.13954                       0.06330
                       0.99207                      -0.11967                       0.03835
                       0.99412                      -0.10665                       0.01893
                       0.99534                      -0.09647                       0.00071
                       0.99606                      -0.08650                      -0.01938
                       0.99615                      -0.07734                      -0.04119
                       0.99547                      -0.07055                      -0.06372
                       0.99403                      -0.06520                      -0.08743
                       0.99190                      -0.06217                      -0.11074
                       0.98938                      -0.06262                      -0.13114
                       0.98663                      -0.06247                      -0.15055
                       0.98445                      -0.06051                      -0.16492
                       0.98308                      -0.05739                      -0.17393
                       0.98241                      -0.05532                      -0.17834
                       0.98245                      -0.05517                      -0.17820
        </DataArray>
        <DataArray type="Float32" Name="OrientationY" NumberOfComponents="3" format="ascii">
                       0.14408                       0.70573                      -0.69368
                       0.14407                       0.70553                      -0.69388
                       0.14403                       0.70505                      -0.69438
                       0.14399                       0.70445                      -0.69499
                       0.14392                       0.70354                      -0.69593
                       0.11223                       0.70644                      -0.69881
                       0.08928                       0.70775                      -0.70080
                       0.06917                       0.70847                      -0.70234
                       0.04790                       0.70914                      -0.70344
                       0.02599                       0.70972                      -0.70400
                       0.00526                       0.71012                      -0.70406
                      -0.01528                       0.71049                      -0.70354
                      -0.03389                       0.71077                      -0.70261
                      -0.04801                       0.71089                      -0.70167
                      -0.06184                       0.71115                      -0.70032
                      -0.07334                       0.71152                      -0.69883
                      -0.08185                       0.71187                      -0.69752
                      -0.08639                       0.71207                      -0.69677
                      -0.08639                       0.71208                      -0.69677
        </DataArray>
        <DataArray type="Float32" Name="OrientationZ" NumberOfComponents="3" format="ascii">
                       0.04669                       0.69537                       0.71714
                       0.04711                       0.69551                       0.71697
                       0.04830                       0.69585                       0.71656
                       0.04991                       0.69625                       0.71606
                       0.05257                       0.69682                       0.71532
                       0.05653                       0.69758                       0.71428
                       0.06134                       0.69837                       0.71310
                       0.06725                       0.69911                       0.71184
                       0.07459                       0.69974                       0.71049
                       0.08368                       0.70023                       0.70900
                       0.09492                       0.70053                       0.70728
                       0.10799                       0.70068                       0.70526
                       0.12239                       0.70067                       0.70291
                       0.13717                       0.70051                       0.70033
                       0.15081                       0.70026                       0.69778
                       0.15963                       0.70006                       0.69601
                       0.16385                       0.69996                       0.69513
                       0.16554                       0.69992                       0.69477
                       0.16533                       0.69993                       0.69481
        </DataArray>
      </PointData>
      <Lines>
        <DataArray type="Int32" Name="connectivity" format="ascii">
      0      1
      1      2
      2      3
      3      4
      4      5
      5      6
      6      7
      7      8
      8      9
      9     10
     10     11
     11     12
     12     13
     13     14
     14     15
     15     16
     16     17
     17     18
        </DataArray>
        <DataArray type="Int32" Name="offsets" format="ascii">
      2
      4
      6
      8
     10
     12
     14
     16
     18
     20
     22
     24
     26
     28
     30
     32
     34
     36
        </DataArray>
      </Lines>
    </Piece>
  </PolyData>
</VTKFile>
