<?xml version="1.0"?>
<VTKFile type="PolyData" version="0.1" byte_order="LittleEndian">
  <PolyData>
    <Piece NumberOfPoints="     19" NumberOfVerts="  0" NumberOfLines="     18"
           NumberOfStrips="  0" NumberOfPolys="      0">
      <Points>
        <DataArray type="Float32" NumberOfComponents="3" format="ascii">
                       3.04841                       1.01161                      93.27238
                       3.30433                       2.13687                      96.70103
                       3.56939                       3.25978                     100.12975
                       3.84717                       4.37954                     103.55850
                       4.14067                       5.49568                     106.98711
                       4.45314                       6.60794                     110.41530
                       4.78858                       7.71606                     113.84266
                       5.15190                       8.81970                     117.26860
                       5.54902                       9.91860                     120.69231
                       5.98650                      11.01256                     124.11266
                       6.47100                      12.10153                     127.52824
                       7.00842                      13.18564                     130.93743
                       7.60285                      14.26521                     134.33860
                       8.25516                      15.34070                     137.73049
                       8.96137                      16.41279                     141.11272
                       9.71084                      17.48243                     144.48650
                      10.48406                      18.55087                     147.85539
                      10.87354                      19.08494                     149.53923
                       2.92224                       0.44852                      91.55807
        </DataArray>
      </Points>
      <PointData>
        <DataArray type="Float32" Name="TranslationalVelocity" NumberOfComponents="3" format="ascii">
                      -0.54571                      -2.92112                       0.90942
                      -0.47520                      -6.10255                       1.94828
                      -0.40541                      -9.28527                       2.98524
                      -0.33659                     -12.46966                       4.01962
                      -0.26896                     -15.65592                       5.05107
                      -0.20252                     -18.84419                       6.07944
                      -0.13709                     -22.03457                       7.10453
                      -0.07219                     -25.22714                       8.12611
                      -0.00708                     -28.42184                       9.14395
                       0.05922                     -31.61846                      10.15787
                       0.12788                     -34.81649                      11.16773
                       0.20013                     -38.01514                      12.17348
                       0.27712                     -41.21338                      13.17517
                       0.35971                     -44.41014                      14.17289
                       0.44828                     -47.60460                      15.16696
                       0.54242                     -50.79659                      16.15809
                       0.64069                     -53.98702                      17.14742
                       0.69059                     -55.58203                      17.64181
                      -0.58111                      -1.33067                       0.38962
        </DataArray>
        <DataArray type="Float32" Name="RotationalVelocity" NumberOfComponents="3" format="ascii">
                       0.91968                      -0.01538                      -0.10967
                       0.91974                      -0.01547                      -0.10965
                       0.91981                      -0.01562                      -0.10960
                       0.91990                      -0.01581                      -0.10955
                       0.91999                      -0.01603                      -0.10948
                       0.92009                      -0.01623                      -0.10942
                       0.92021                      -0.01633                      -0.10940
                       0.92034                      -0.01627                      -0.10943
                       0.92049                      -0.01597                      -0.10954
                       0.92064                      -0.01539                      -0.10974
                       0.92079                      -0.01448                      -0.11005
                       0.92092                      -0.01326                      -0.11046
                       0.92103                      -0.01177                      -0.11096
                       0.92111                      -0.01012                      -0.11150
                       0.92115                      -0.00848                      -0.11205
                       0.92116                      -0.00708                      -0.11251
                       0.92115                      -0.00625                      -0.11278
                       0.92114                      -0.00602                      -0.11286
                       0.91966                      -0.01534                      -0.10969
        </DataArray>
        <DataArray type="Float32" Name="TranslationalAcceleration" NumberOfComponents="3" format="ascii">
                       0.31487                      -1.31227                      -2.43998
                       0.08414                      -2.38118                      -5.34018
                      -0.17024                      -3.34112                      -8.27546
                      -0.46108                      -4.16368                     -11.25406
                      -0.80220                      -4.83172                     -14.27996
                      -1.20921                      -5.33683                     -17.35374
                      -1.69802                      -5.67662                     -20.47347
                      -2.28459                      -5.85293                     -23.63512
                      -2.98492                      -5.87074                     -26.83268
                      -3.81413                      -5.73723                     -30.05828
                      -4.78492                      -5.46121                     -33.30244
                      -5.90583                      -5.05290                     -36.55458
                      -7.17885                      -4.52412                     -39.80402
                      -8.59669                      -3.88885                     -43.04157
                     -10.13963                      -3.16473                     -46.26176
                     -11.77193                      -2.37502                     -49.46539
                     -13.43750                      -1.55060                     -52.66205
                     -14.27016                      -1.13410                     -54.26044
                       0.42594                      -0.75490                      -0.99733
        </DataArray>
        <DataArray type="Float32" Name="RotationalAcceleration" NumberOfComponents="3" format="ascii">
                       0.04449                       0.04380                       0.00661
                       0.01842                       0.03986                       0.00980
                      -0.01735                       0.03273                       0.01476
                      -0.05928                       0.02241                       0.02121
                      -0.10446                       0.00817                       0.02918
                      -0.15076                      -0.01030                       0.03863
                      -0.19671                      -0.03295                       0.04942
                      -0.24120                      -0.05992                       0.06153
                      -0.28337                      -0.09119                       0.07488
                      -0.32262                      -0.12636                       0.08930
                      -0.35849                      -0.16464                       0.10450
                      -0.39057                      -0.20468                       0.11999
                      -0.41849                      -0.24440                       0.13509
                      -0.44178                      -0.28096                       0.14880
                      -0.45976                      -0.31057                       0.15984
                      -0.47147                      -0.32837                       0.16655
                      -0.47567                      -0.32824                       0.16681
                      -0.47572                      -0.32284                       0.16504
                       0.05461                       0.04491                       0.00551
        </DataArray>
        <DataArray type="Float32" Name="OrientationX" NumberOfComponents="3" format="ascii">
                       0.97861                      -0.20566                      -0.00448
                       0.97847                      -0.20629                      -0.00640
                       0.97824                      -0.20728                      -0.00942
                       0.98042                      -0.19616                      -0.01750
                       0.98514                      -0.16873                      -0.03197
                       0.98714                      -0.15395                      -0.04310
                       0.98870                      -0.13928                      -0.05545
                       0.98984                      -0.12406                      -0.06951
                       0.99037                      -0.10908                      -0.08527
                       0.99015                      -0.09539                      -0.10249
                       0.98919                      -0.08247                      -0.12126
                       0.98747                      -0.07086                      -0.14102
                       0.98506                      -0.06262                      -0.16039
                       0.98229                      -0.05576                      -0.17890
                       0.97951                      -0.04829                      -0.19555
                       0.97725                      -0.03970                      -0.20836
                       0.97635                      -0.03304                      -0.21366
                       0.97637                      -0.03054                      -0.21393
                       0.97866                      -0.20545                      -0.00384
        </DataArray>
        <DataArray type="Float32" Name="OrientationY" NumberOfComponents="3" format="ascii">
                       0.19352                       0.92779                      -0.31899
                       0.19352                       0.92782                      -0.31890
                       0.19353                       0.92786                      -0.31877
                       0.18051                       0.93060                      -0.31844
                       0.15006                       0.93630                      -0.31752
                       0.13265                       0.93921                      -0.31670
                       0.11499                       0.94188                      -0.31566
                       0.09629                       0.94442                      -0.31433
                       0.07734                       0.94670                      -0.31270
                       0.05921                       0.94861                      -0.31085
                       0.04138                       0.95025                      -0.30871
                       0.02453                       0.95160                      -0.30637
                       0.01102                       0.95254                      -0.30421
                      -0.00090                       0.95329                      -0.30207
                      -0.01281                       0.95394                      -0.29972
                      -0.02460                       0.95449                      -0.29723
                      -0.03236                       0.95479                      -0.29553
                      -0.03477                       0.95486                      -0.29500
                       0.19351                       0.92778                      -0.31903
        </DataArray>
        <DataArray type="Float32" Name="OrientationZ" NumberOfComponents="3" format="ascii">
                       0.06975                       0.31130                       0.94775
                       0.07172                       0.31079                       0.94777
                       0.07482                       0.31001                       0.94779
                       0.07875                       0.30905                       0.94778
                       0.08351                       0.30801                       0.94771
                       0.08924                       0.30691                       0.94755
                       0.09619                       0.30571                       0.94725
                       0.10464                       0.30444                       0.94677
                       0.11483                       0.30310                       0.94602
                       0.12688                       0.30172                       0.94492
                       0.14069                       0.30036                       0.94339
                       0.15590                       0.29907                       0.94141
                       0.17183                       0.29789                       0.93901
                       0.18738                       0.29688                       0.93635
                       0.20101                       0.29608                       0.93377
                       0.21068                       0.29560                       0.93179
                       0.21376                       0.29545                       0.93114
                       0.21328                       0.29547                       0.93124
                       0.06911                       0.31148                       0.94774
        </DataArray>
      </PointData>
      <Lines>
        <DataArray type="Int32" Name="connectivity" format="ascii">
      0      1
      1      2
      2      3
      3      4
      4      5
      5      6
      6      7
      7      8
      8      9
      9     10
     10     11
     11     12
     12     13
     13     14
     14     15
     15     16
     16     17
     18      0
        </DataArray>
        <DataArray type="Int32" Name="offsets" format="ascii">
      2
      4
      6
      8
     10
     12
     14
     16
     18
     20
     22
     24
     26
     28
     30
     32
     34
     36
        </DataArray>
      </Lines>
    </Piece>
  </PolyData>
</VTKFile>
