<?xml version="1.0"?>
<VTKFile type="PolyData" version="0.1" byte_order="LittleEndian">
  <PolyData>
    <Piece NumberOfPoints="     19" NumberOfVerts="  0" NumberOfLines="     18"
           NumberOfStrips="  0" NumberOfPolys="      0">
      <Points>
        <DataArray type="Float32" NumberOfComponents="3" format="ascii">
                       2.57109                      -1.40316                      89.55112
                       2.44906                      -2.65695                      89.02103
                       2.17383                      -5.12609                      87.87678
                       1.88705                      -7.57652                      86.69089
                       1.52724                     -10.62758                      85.18070
                       1.17689                     -14.34522                      83.48502
                       0.88344                     -18.11289                      81.89573
                       0.61208                     -21.87914                      80.29907
                       0.37138                     -25.64454                      78.69539
                       0.16767                     -29.40807                      77.08213
                       0.00231                     -33.16829                      75.45671
                      -0.11141                     -36.92506                      73.81883
                      -0.16696                     -40.67790                      72.16884
                      -0.16101                     -44.42632                      70.50779
                      -0.09350                     -48.16997                      68.83717
                       0.00211                     -51.28644                      67.43960
                       0.09876                     -53.78112                      66.32637
                       0.20519                     -56.29806                      65.26244
                       0.25343                     -57.53939                      64.69279
        </DataArray>
      </Points>
      <PointData>
        <DataArray type="Float32" Name="Force" NumberOfComponents="3" format="ascii">
                       0.61829                      -2.28814                       5.31070
                      83.13651                     -17.20045                      21.91964
                     110.17662                     -34.87878                      58.17857
                     101.52064                     -41.35934                      75.98310
                     792.74916                     106.92668                    -423.92480
                    1029.88943                     119.22461                    -491.66031
                    1202.12870                     116.05283                    -501.44297
                    1550.46964                     131.97093                    -577.07993
                    1694.94750                     129.56646                    -559.08140
                    1963.52594                     145.83426                    -585.64104
                    2431.53829                     183.22512                    -653.76850
                    2804.92815                     225.95194                    -686.36782
                    3284.48198                     297.70630                    -751.80178
                    3628.73910                     363.71881                    -767.49142
                    3945.97299                     430.45267                    -773.38238
                    4138.61473                     468.65482                    -756.69190
                    4061.91555                     459.13433                    -698.72193
                    2949.46391                     326.52431                    -481.27816
                    1284.15852                      90.72891                     -92.83110
        </DataArray>
        <DataArray type="Float32" Name="Moment" NumberOfComponents="3" format="ascii">
                       0.00000                       0.00000                       0.00000
                       0.00000                       0.00000                       0.00000
                       0.00000                       0.00000                       0.00000
                       0.00000                       0.00000                       0.00000
                      20.09661                     223.48958                      93.95197
                      37.01558                     434.51905                     182.90539
                      44.79639                     564.68162                     238.08076
                      56.24950                     779.93144                     329.48889
                      65.69692                    1038.73888                     439.89757
                      61.01173                    1164.00904                     494.41635
                      47.52811                    1210.54824                     516.03782
                      30.85671                    1275.79732                     546.09167
                       9.03762                    1162.65439                     499.88368
                     -10.30404                    1159.50981                     500.78064
                     -26.95199                    1118.69844                     485.13505
                     -35.79443                    1060.73510                     461.19070
                     -35.98605                     943.15392                     410.55252
                     -18.92551                     477.33376                     207.86517
                     -15.69471                     400.61633                     174.43492
        </DataArray>
        <DataArray type="Float32" Name="TranslationalVelocity" NumberOfComponents="3" format="ascii">
                      -0.58864                       0.50773                      -1.31556
                      -0.71825                       1.01297                      -2.48072
                      -0.97252                       2.10469                      -4.77541
                      -1.22515                       3.23584                      -7.05176
                      -1.54126                       4.67479                      -9.88401
                      -1.93177                       6.28315                     -13.33042
                      -2.33414                       7.78517                     -16.81798
                      -2.74246                       9.28998                     -20.29920
                      -3.15771                      10.79625                     -23.77452
                      -3.58052                      12.30558                     -27.24309
                      -4.01041                      13.82032                     -30.70426
                      -4.44850                      15.33897                     -34.15776
                      -4.89470                      16.86037                     -37.60359
                      -5.34833                      18.38313                     -41.04189
                      -5.80804                      19.90594                     -44.47303
                      -6.19420                      21.17432                     -47.32785
                      -6.50447                      22.18181                     -49.61246
                      -6.81694                      23.14294                     -51.91734
                      -6.97062                      23.65867                     -53.05410
        </DataArray>
        <DataArray type="Float32" Name="RotationalVelocity" NumberOfComponents="3" format="ascii">
                       0.92825                      -0.01255                      -0.10857
                       0.92809                      -0.01250                      -0.10866
                       0.92770                      -0.01235                      -0.10892
                       0.92720                      -0.01216                      -0.10928
                       0.92643                      -0.01182                      -0.10989
                       0.92533                      -0.01131                      -0.11087
                       0.92416                      -0.01068                      -0.11208
                       0.92295                      -0.00997                      -0.11351
                       0.92176                      -0.00918                      -0.11512
                       0.92060                      -0.00833                      -0.11688
                       0.91953                      -0.00744                      -0.11875
                       0.91855                      -0.00655                      -0.12064
                       0.91769                      -0.00571                      -0.12245
                       0.91698                      -0.00497                      -0.12404
                       0.91644                      -0.00441                      -0.12526
                       0.91615                      -0.00415                      -0.12582
                       0.91605                      -0.00412                      -0.12586
                       0.91604                      -0.00424                      -0.12557
                       0.91608                      -0.00436                      -0.12530
        </DataArray>
        <DataArray type="Float32" Name="TranslationalAcceleration" NumberOfComponents="3" format="ascii">
                       1.15921                       1.21239                       0.57519
                       1.22037                       2.33191                       0.98747
                       1.34641                       4.54082                       1.89057
                       1.47032                       6.73357                       2.83208
                       1.61779                       9.46204                       4.03390
                       1.76914                      12.77349                       5.36350
                       1.88989                      16.11558                       6.59368
                       1.99070                      19.44894                       7.82742
                       2.08510                      22.77467                       9.05894
                       2.19790                      26.09356                      10.28340
                       2.35566                      29.40722                      11.49795
                       2.60125                      32.71863                      12.69328
                       2.97726                      36.03247                      13.86359
                       3.52104                      39.35452                      15.00594
                       4.25505                      42.69061                      16.12094
                       5.00672                      45.48350                      17.03268
                       5.69058                      47.72841                      17.74693
                       6.41711                      49.99366                      18.41281
                       6.78924                      51.11419                      18.77860
        </DataArray>
        <DataArray type="Float32" Name="OrientationX" NumberOfComponents="3" format="ascii">
                       0.93929                       0.05149                      -0.33924
                       0.93933                       0.05193                      -0.33906
                       0.93945                       0.05317                      -0.33854
                       0.93961                       0.05486                      -0.33782
                       0.93987                       0.05768                      -0.33663
                       0.95033                       0.04934                      -0.30730
                       0.95744                       0.04541                      -0.28505
                       0.96333                       0.04372                      -0.26473
                       0.96916                       0.04294                      -0.24268
                       0.97470                       0.04351                      -0.21926
                       0.97952                       0.04645                      -0.19593
                       0.98378                       0.05103                      -0.17195
                       0.98715                       0.05744                      -0.14911
                       0.98931                       0.06580                      -0.13017
                       0.99103                       0.07297                      -0.11195
                       0.99227                       0.07634                      -0.09785
                       0.99314                       0.07651                      -0.08841
                       0.99360                       0.07587                      -0.08368
                       0.99362                       0.07548                      -0.08385
        </DataArray>
        <DataArray type="Float32" Name="OrientationY" NumberOfComponents="3" format="ascii">
                       0.33143                      -0.39213                       0.85813
                       0.33142                      -0.39223                       0.85809
                       0.33139                      -0.39247                       0.85799
                       0.33136                      -0.39277                       0.85786
                       0.33132                      -0.39322                       0.85767
                       0.30111                      -0.39555                       0.86768
                       0.27912                      -0.39729                       0.87421
                       0.25978                      -0.39884                       0.87945
                       0.23924                      -0.40040                       0.88456
                       0.21800                      -0.40195                       0.88933
                       0.19783                      -0.40341                       0.89338
                       0.17777                      -0.40489                       0.89692
                       0.15954                      -0.40634                       0.89969
                       0.14572                      -0.40758                       0.90147
                       0.13211                      -0.40885                       0.90299
                       0.12070                      -0.40991                       0.90411
                       0.11219                      -0.41067                       0.90486
                       0.10762                      -0.41106                       0.90523
                       0.10762                      -0.41106                       0.90523
        </DataArray>
        <DataArray type="Float32" Name="OrientationZ" NumberOfComponents="3" format="ascii">
                      -0.08884                      -0.91847                      -0.38538
                      -0.08843                      -0.91840                      -0.38564
                      -0.08725                      -0.91823                      -0.38633
                      -0.08562                      -0.91800                      -0.38723
                      -0.08290                      -0.91763                      -0.38869
                      -0.07874                      -0.91712                      -0.39076
                      -0.07355                      -0.91657                      -0.39306
                      -0.06714                      -0.91598                      -0.39558
                      -0.05919                      -0.91533                      -0.39832
                      -0.04944                      -0.91463                      -0.40126
                      -0.03754                      -0.91384                      -0.40434
                      -0.02385                      -0.91294                      -0.40740
                      -0.00892                      -0.91192                      -0.41028
                       0.00626                      -0.91079                      -0.41281
                       0.02012                      -0.90968                      -0.41483
                       0.02891                      -0.90893                      -0.41595
                       0.03293                      -0.90857                      -0.41644
                       0.03429                      -0.90844                      -0.41660
                       0.03385                      -0.90848                      -0.41656
        </DataArray>
      </PointData>
      <Lines>
        <DataArray type="Int32" Name="connectivity" format="ascii">
      0      1
      1      2
      2      3
      3      4
      4      5
      5      6
      6      7
      7      8
      8      9
      9     10
     10     11
     11     12
     12     13
     13     14
     14     15
     15     16
     16     17
     17     18
        </DataArray>
        <DataArray type="Int32" Name="offsets" format="ascii">
      2
      4
      6
      8
     10
     12
     14
     16
     18
     20
     22
     24
     26
     28
     30
     32
     34
     36
        </DataArray>
      </Lines>
    </Piece>
  </PolyData>
</VTKFile>
