<?xml version="1.0"?>
<VTKFile type="PolyData" version="0.1" byte_order="LittleEndian">
  <PolyData>
    <Piece NumberOfPoints="     17" NumberOfVerts="  0" NumberOfLines="      0"
           NumberOfStrips="  0" NumberOfPolys="      0">
      <Points>
        <DataArray type="Float32" NumberOfComponents="3" format="ascii">
                       2.94740                       0.40649                      93.40163
                       3.21142                       0.87777                      96.97871
                       3.48425                       1.34814                     100.55525
                       3.76926                       1.81715                     104.13102
                       4.06927                       2.28456                     107.70577
                       4.38730                       2.75022                     111.27919
                       4.72712                       3.21387                     114.85085
                       5.09348                       3.67517                     118.42018
                       5.49208                       4.13376                     121.98640
                       5.92933                       4.58939                     125.54844
                       6.41176                       5.04198                     129.10502
                       6.94525                       5.49166                     132.65466
                       7.53391                       5.93874                     136.19590
                       8.17874                       6.38367                     139.72765
                       8.87608                       6.82701                     143.24967
                       9.61575                       7.26940                     146.76326
                      10.37893                       7.71142                     150.27193
        </DataArray>
      </Points>
      <PointData>
        <DataArray type="Float32" Name="Force" NumberOfComponents="3" format="ascii">
                     193.15669                      77.21548                     -24.29704
                     635.68429                     237.29519                     -79.71032
                    2455.37810                    -857.78049                     -82.00098
                    4280.94252                   -1673.88411                    -134.38357
                    2614.36284                    -940.70651                    -102.64097
                    5575.19185                   -1749.66143                    -279.08522
                    6654.72866                   -1796.16006                    -417.98038
                    7382.93034                   -1734.55364                    -562.69080
                    7893.16799                   -1645.28207                    -711.50632
                    9888.21963                   -1848.73998                   -1041.23212
                   11359.75561                   -1936.13569                   -1387.46545
                   12935.32263                   -2075.26906                   -1807.71378
                    7429.72970                   -1143.87588                   -1140.01451
                   14869.42832                   -2194.51934                   -2485.97019
                   14396.82167                   -2017.89617                   -2626.03481
                   20535.03601                   -2659.07163                   -4010.07937
                    8290.27447                    -908.43052                   -1678.54803
        </DataArray>
        <DataArray type="Float32" Name="Moment" NumberOfComponents="3" format="ascii">
                     -20.04813                      22.95323                       3.47456
                     155.48140                     438.75353                      -2.12789
                    1051.76269                    2565.37506                     -22.19217
                    1394.84726                    3568.13748                     529.89669
                     113.54684                     345.52539                     550.11586
                    -883.57292                   -2579.68103                    1256.86711
                    -561.58731                   -1738.06149                     668.13820
                    -195.17140                    -170.94812                    -209.49450
                     -27.15276                     672.88866                    -516.64212
                     143.92816                    1708.85092                    -526.50948
                     576.28684                    4486.03224                    -811.89143
                    1134.73636                    8229.39116                    -906.57092
                     -32.07039                    -455.81257                     343.31545
                   -1189.01784                   -9952.05220                    2057.09167
                   -1000.42565                   -9279.97164                    1965.40274
                    -134.84424                   -1277.52161                     957.22673
                    -127.09391                      13.74363                      74.53956
        </DataArray>
      </PointData>
    </Piece>
  </PolyData>
</VTKFile>
