<?xml version="1.0"?>
<VTKFile type="PolyData" version="0.1" byte_order="LittleEndian">
  <PolyData>
    <Piece NumberOfPoints="     17" NumberOfVerts="  0" NumberOfLines="      0"
           NumberOfStrips="  0" NumberOfPolys="      0">
      <Points>
        <DataArray type="Float32" NumberOfComponents="3" format="ascii">
                       3.29804                      -2.14491                      92.66714
                       3.49092                      -4.47171                      95.43049
                       3.69126                      -6.80140                      98.19089
                       3.90204                      -9.13486                     100.94731
                       4.12586                     -11.47261                     103.69906
                       4.36551                     -13.81490                     106.44561
                       4.62423                     -16.16190                     109.18639
                       4.90597                     -18.51372                     111.92076
                       5.21527                     -20.87031                     114.64802
                       5.55715                     -23.23146                     117.36742
                       5.93660                     -25.59672                     120.07824
                       6.35797                     -27.96537                     122.77988
                       6.82411                     -30.33650                     125.47198
                       7.33536                     -32.70912                     128.15460
                       7.88825                     -35.08229                     130.82850
                       8.47410                     -37.45536                     133.49553
                       9.07734                     -39.82820                     136.15893
        </DataArray>
      </Points>
      <PointData>
        <DataArray type="Float32" Name="Force" NumberOfComponents="3" format="ascii">
                     171.01932                      62.57937                      40.81534
                     554.53960                     194.25940                     123.24501
                    1843.46728                    -545.65526                    -599.87291
                    3059.50472                    -926.93161                   -1026.36967
                    1836.38124                    -485.85038                    -565.09005
                    3906.64862                    -881.63275                   -1096.34616
                    4637.44844                    -861.34608                   -1183.16786
                    5036.82334                    -746.10603                   -1176.52709
                    5343.23095                    -630.60333                   -1175.81236
                    6732.78656                    -605.92613                   -1414.13297
                    7705.19949                    -501.65917                   -1579.08856
                    8888.85957                    -418.03125                   -1841.49434
                    5128.56680                    -170.93898                   -1072.02672
                   10300.18710                    -200.58693                   -2171.30529
                   10099.78038                     -55.28688                   -2156.79775
                   14945.54835                      86.85662                   -3219.66332
                    6758.15378                      90.92693                   -1439.13066
        </DataArray>
        <DataArray type="Float32" Name="Moment" NumberOfComponents="3" format="ascii">
                     -16.81577                      13.03346                      17.45827
                     148.09705                     212.57420                     252.23980
                     972.34571                    1221.70453                    1447.25320
                    1037.00087                    1574.24393                    1880.40766
                      59.38726                      54.94499                     219.72632
                    -773.39809                   -1446.50296                   -1251.13517
                    -559.41927                    -581.55074                   -1352.12948
                    -282.17782                     899.12578                   -1314.93093
                    -151.87733                    1563.79170                   -1099.97218
                     -67.29556                    2231.57458                    -810.62517
                     245.52817                    3698.11248                     352.45016
                     743.47268                    5284.99215                    2561.42462
                    -155.83138                     126.26173                    -706.69604
                   -1265.70432                   -4582.72371                   -5368.47825
                   -1117.99635                   -4390.95731                   -4968.06711
                    -274.75517                     306.32651                   -1110.02962
                     -71.99923                     574.60101                      23.96861
        </DataArray>
      </PointData>
    </Piece>
  </PolyData>
</VTKFile>
