<?xml version="1.0"?>
<VTKFile type="PolyData" version="0.1" byte_order="LittleEndian">
  <PolyData>
    <Piece NumberOfPoints="     17" NumberOfVerts="  0" NumberOfLines="      0"
           NumberOfStrips="  0" NumberOfPolys="      0">
      <Points>
        <DataArray type="Float32" NumberOfComponents="3" format="ascii">
                       3.02160                       0.86397                      93.31478
                       3.28075                       1.82886                      96.79173
                       3.54900                       2.79147                     100.26862
                       3.82985                       3.75102                     103.74536
                       4.12631                       4.70704                     107.22177
                       4.44160                       5.65929                     110.69755
                       4.77970                       6.60750                     114.17229
                       5.14554                       7.55134                     117.64540
                       5.54504                       8.49052                     121.11604
                       5.98481                       9.42485                     124.58311
                       6.47155                      10.35431                     128.04519
                       7.01122                      11.27904                     131.50067
                       7.60796                      12.19939                     134.94793
                       8.26269                      13.11587                     138.38573
                       8.97149                      14.02916                     141.81371
                       9.72374                      14.94022                     145.23312
                      10.49991                      15.85019                     148.64755
        </DataArray>
      </Points>
      <PointData>
        <DataArray type="Float32" Name="Force" NumberOfComponents="3" format="ascii">
                     195.75192                      72.21486                     -34.51027
                     639.95044                     223.59574                    -111.44778
                    2490.21820                    -826.86420                      29.46444
                    4278.99223                   -1583.86222                      80.21718
                    2596.48418                    -883.19760                      16.60304
                    5527.22129                   -1639.29786                     -59.53201
                    6587.42573                   -1682.18201                    -195.46336
                    7290.97110                   -1620.26551                    -352.03270
                    7765.75320                   -1533.42670                    -514.96603
                    9687.52123                   -1719.62169                    -823.43450
                   11053.73491                   -1794.13696                   -1158.73829
                   12501.51081                   -1923.02545                   -1556.51399
                    7135.32816                   -1055.92774                    -997.12131
                   14181.66953                   -2009.26018                   -2200.82933
                   13621.76235                   -1822.55374                   -2349.33801
                   19224.69186                   -2346.76177                   -3611.31852
                    7791.98652                    -806.03917                   -1541.54784
        </DataArray>
        <DataArray type="Float32" Name="Moment" NumberOfComponents="3" format="ascii">
                     -20.26153                      23.05897                       0.40176
                     148.96920                     438.58732                     -68.35669
                    1003.06867                    2549.01375                    -443.51743
                    1296.08038                    3551.07672                     -49.44873
                     100.47513                     397.71667                     443.61063
                    -829.49707                   -2400.12634                    1485.49849
                    -533.78598                   -1658.12225                     789.26616
                    -213.10899                    -262.94130                    -314.95254
                     -71.91654                     505.85694                    -749.09709
                      59.31240                    1478.95333                    -935.08778
                     399.87181                    4082.78513                   -1611.62109
                     836.01173                    7624.16118                   -2193.45411
                     -55.76309                    -465.18662                     216.14098
                    -963.12583                   -9339.21859                    2825.84636
                    -779.21432                   -8647.14930                    2602.52699
                    -245.05455                   -1377.04711                     518.56556
                    -141.48379                      54.91136                    -128.91325
        </DataArray>
      </PointData>
    </Piece>
  </PolyData>
</VTKFile>
