<?xml version="1.0"?>
<VTKFile type="PolyData" version="0.1" byte_order="LittleEndian">
  <PolyData>
    <Piece NumberOfPoints="     17" NumberOfVerts="  0" NumberOfLines="      0"
           NumberOfStrips="  0" NumberOfPolys="      0">
      <Points>
        <DataArray type="Float32" NumberOfComponents="3" format="ascii">
                       3.23866                      -0.23356                      93.40661
                       3.51497                      -0.48885                      97.00464
                       3.79179                      -0.74420                     100.60263
                       4.06933                      -0.99965                     104.20056
                       4.34774                      -1.25520                     107.79842
                       4.62719                      -1.51086                     111.39618
                       4.90781                      -1.76663                     114.99385
                       5.18974                      -2.02252                     118.59140
                       5.47312                      -2.27852                     122.18884
                       5.75807                      -2.53463                     125.78614
                       6.04469                      -2.79083                     129.38330
                       6.33303                      -3.04710                     132.98032
                       6.62308                      -3.30342                     136.57720
                       6.91473                      -3.55976                     140.17395
                       7.20775                      -3.81612                     143.77059
                       7.50173                      -4.07248                     147.36714
                       7.79603                      -4.32882                     150.96368
        </DataArray>
      </Points>
      <PointData>
        <DataArray type="Float32" Name="Force" NumberOfComponents="3" format="ascii">
                     174.99946                      77.36834                      -7.94265
                     569.01726                     246.66235                     -26.27312
                    2045.49964                    -730.98310                    -209.61712
                    3423.87685                   -1261.73672                    -354.27960
                    2074.32183                    -677.08628                    -208.89773
                    4460.08682                   -1264.87509                    -436.78014
                    5342.93264                   -1287.40174                    -508.97971
                    5848.00517                   -1183.11084                    -543.46804
                    6215.82601                   -1077.49475                    -567.61721
                    7763.75104                   -1146.26644                    -698.42335
                    8810.43600                   -1114.72255                    -783.80915
                   10084.43334                   -1144.72114                    -892.99649
                    5731.60830                    -592.87787                    -505.54666
                   11197.84902                   -1029.02588                    -982.38537
                   10477.92804                    -813.04940                    -912.25253
                   14305.88421                    -848.55860                   -1230.20538
                    5915.69682                    -209.74358                    -498.82883
        </DataArray>
        <DataArray type="Float32" Name="Moment" NumberOfComponents="3" format="ascii">
                     -19.02007                      20.38751                       7.34358
                     137.04686                     357.12126                      81.73439
                     920.90632                    2065.00343                     462.02753
                     994.50320                    2678.24010                     724.09566
                      68.62320                     201.84205                     257.27248
                    -700.64703                   -2161.17596                     113.83683
                    -493.71978                   -1451.57167                    -361.93119
                    -226.89284                     -64.22487                   -1084.36536
                     -97.37054                     663.07851                   -1219.53052
                      -0.82975                    1439.63305                   -1190.07948
                     285.14121                    3565.94655                    -991.28998
                     672.58316                    6446.71155                    -102.90552
                     -68.08704                    -388.90026                    -137.87159
                    -834.27856                   -7650.87735                    -688.90783
                    -654.08884                   -6888.26653                    -638.91981
                    -271.25206                   -1276.68171                    -460.80745
                     -85.93804                     501.52967                    -296.74805
        </DataArray>
      </PointData>
    </Piece>
  </PolyData>
</VTKFile>
