<?xml version="1.0"?>
<VTKFile type="PolyData" version="0.1" byte_order="LittleEndian">
  <PolyData>
    <Piece NumberOfPoints="     19" NumberOfVerts="  0" NumberOfLines="     18"
           NumberOfStrips="  0" NumberOfPolys="      0">
      <Points>
        <DataArray type="Float32" NumberOfComponents="3" format="ascii">
                       2.84729                       0.25950                      91.60131
                       2.94441                       0.51281                      92.94082
                       3.11961                       0.92605                      95.63904
                       3.28954                       1.29442                      98.34627
                       3.50516                       1.72691                     101.73553
                       3.82917                       2.38401                     105.77110
                       4.19590                       3.16552                     109.77938
                       4.58710                       3.94575                     113.78560
                       5.01198                       4.72596                     117.78840
                       5.47836                       5.50378                     121.78703
                       5.98889                       6.27581                     125.78137
                       6.55887                       7.04292                     129.76859
                       7.19645                       7.80539                     133.74646
                       7.90606                       8.56380                     137.71291
                       8.68800                       9.31881                     141.66643
                       9.38627                       9.94622                     144.95191
                       9.96801                      10.45519                     147.57395
                      10.55450                      11.01817                     150.18503
                      10.84826                      11.25862                     151.49793
        </DataArray>
      </Points>
      <PointData>
        <DataArray type="Float32" Name="Force" NumberOfComponents="3" format="ascii">
                      -0.03664                       1.64111                      -0.31214
                      81.47437                      24.46681                     -10.64862
                      98.94991                      59.04945                     -18.70050
                      86.21569                      77.04127                     -21.37234
                     868.35654                    -329.81703                      -5.79716
                    1192.55368                    -463.49742                     -11.62058
                    1356.54528                    -433.81777                     -39.15584
                    1707.07645                    -463.15169                     -77.67828
                    1863.10060                    -434.46486                    -115.49911
                    2137.06787                    -438.45846                    -168.34718
                    2590.86026                    -471.03874                    -252.31627
                    2956.32500                    -487.74216                    -346.16142
                    3401.12583                    -534.20436                    -465.37796
                    3714.36804                    -549.53347                    -584.53361
                    3986.70260                    -557.56337                    -703.09317
                    4140.95666                    -545.16897                    -783.63418
                    4051.73531                    -497.90316                    -795.35139
                    2968.10669                    -350.94393                    -591.48579
                    1151.33377                      -7.66094                    -254.11973
        </DataArray>
        <DataArray type="Float32" Name="Moment" NumberOfComponents="3" format="ascii">
                       0.00000                       0.00000                       0.00000
                       0.00000                       0.00000                       0.00000
                       0.00000                       0.00000                       0.00000
                       0.00000                       0.00000                       0.00000
                     -22.66150                     -54.65968                    -284.72062
                     -32.60481                     -74.20491                    -386.31514
                     -49.87972                    -106.13562                    -552.16746
                     -76.64362                    -150.92018                    -784.48680
                    -108.74158                    -195.89844                   -1017.19848
                    -135.87691                    -221.41929                   -1148.19275
                    -159.17600                    -232.03775                   -1201.28598
                    -188.87571                    -245.28507                   -1267.44951
                    -196.09165                    -227.32163                   -1172.15733
                    -216.95456                    -226.54716                   -1165.63669
                    -228.94410                    -218.99125                   -1124.50321
                    -229.03185                    -207.80909                   -1065.70119
                    -208.24470                    -184.45995                    -945.37988
                    -104.65098                     -91.85290                    -470.64539
                     -84.71327                     -74.46443                    -381.56338
        </DataArray>
        <DataArray type="Float32" Name="TranslationalVelocity" NumberOfComponents="3" format="ascii">
                      -0.50577                      -1.41010                       0.22857
                      -0.49540                      -2.65991                       0.46417
                      -0.48525                      -5.17342                       0.84859
                      -0.48072                      -7.68884                       1.19101
                      -0.47974                     -10.82770                       1.59273
                      -0.46639                     -14.55530                       2.20107
                      -0.44471                     -18.24184                       2.92066
                      -0.43094                     -21.90780                       3.63597
                      -0.42734                     -25.55311                       4.34862
                      -0.43682                     -29.17867                       5.05721
                      -0.46070                     -32.78767                       5.75975
                      -0.50272                     -36.37851                       6.45823
                      -0.56467                     -39.95171                       7.15440
                      -0.64713                     -43.50784                       7.85011
                      -0.74873                     -47.04796                       8.54695
                      -0.84507                     -49.98790                       9.12911
                      -0.92669                     -52.33346                       9.60256
                      -1.00321                     -54.66897                      10.12324
                      -1.04575                     -55.84312                      10.34771
        </DataArray>
        <DataArray type="Float32" Name="RotationalVelocity" NumberOfComponents="3" format="ascii">
                       0.92587                      -0.01287                      -0.10929
                       0.92512                      -0.01291                      -0.10923
                       0.92325                      -0.01309                      -0.10906
                       0.92093                      -0.01338                      -0.10884
                       0.91740                      -0.01394                      -0.10847
                       0.91257                      -0.01497                      -0.10792
                       0.90744                      -0.01647                      -0.10726
                       0.90227                      -0.01850                      -0.10650
                       0.89721                      -0.02113                      -0.10563
                       0.89240                      -0.02438                      -0.10465
                       0.88797                      -0.02832                      -0.10358
                       0.88396                      -0.03277                      -0.10243
                       0.88043                      -0.03752                      -0.10126
                       0.87746                      -0.04222                      -0.10015
                       0.87512                      -0.04638                      -0.09918
                       0.87378                      -0.04887                      -0.09860
                       0.87317                      -0.04986                      -0.09837
                       0.87291                      -0.04998                      -0.09833
                       0.87291                      -0.04968                      -0.09839
        </DataArray>
        <DataArray type="Float32" Name="TranslationalAcceleration" NumberOfComponents="3" format="ascii">
                       0.64339                      -0.39462                      -1.36999
                       0.48309                      -0.63901                      -2.51979
                       0.16449                      -1.04146                      -4.83331
                      -0.14817                      -1.38700                      -7.14578
                      -0.52844                      -1.76270                     -10.02426
                      -0.96664                      -2.27924                     -13.43209
                      -1.38519                      -2.83520                     -16.79643
                      -1.79178                      -3.31967                     -20.13618
                      -2.20436                      -3.73238                     -23.45064
                      -2.65150                      -4.07156                     -26.73823
                      -3.16027                      -4.34309                     -29.99902
                      -3.77727                      -4.54381                     -33.22354
                      -4.54493                      -4.67935                     -36.40262
                      -5.49812                      -4.75763                     -39.52576
                      -6.65441                      -4.78859                     -42.58434
                      -7.76302                      -4.78779                     -45.08497
                      -8.73351                      -4.78106                     -47.05748
                      -9.74918                      -4.81347                     -49.01831
                     -10.26019                      -4.79655                     -49.99741
        </DataArray>
        <DataArray type="Float32" Name="OrientationX" NumberOfComponents="3" format="ascii">
                       0.97549                      -0.21810                      -0.02899
                       0.97546                      -0.21820                      -0.02946
                       0.97536                      -0.21846                      -0.03082
                       0.97522                      -0.21881                      -0.03269
                       0.97498                      -0.21940                      -0.03578
                       0.98074                      -0.18963                      -0.04678
                       0.98405                      -0.16849                      -0.05706
                       0.98629                      -0.15035                      -0.06809
                       0.98802                      -0.13136                      -0.08105
                       0.98903                      -0.11210                      -0.09617
                       0.98904                      -0.09442                      -0.11355
                       0.98811                      -0.07725                      -0.13296
                       0.98619                      -0.06222                      -0.15347
                       0.98349                      -0.05164                      -0.17346
                       0.98055                      -0.04102                      -0.19195
                       0.97840                      -0.03157                      -0.20429
                       0.97726                      -0.02401                      -0.21066
                       0.97678                      -0.01983                      -0.21334
                       0.97684                      -0.01977                      -0.21304
        </DataArray>
        <DataArray type="Float32" Name="OrientationY" NumberOfComponents="3" format="ascii">
                       0.20821                       0.95766                      -0.19882
                       0.20821                       0.95766                      -0.19884
                       0.20820                       0.95765                      -0.19891
                       0.20820                       0.95763                      -0.19899
                       0.20819                       0.95761                      -0.19912
                       0.17697                       0.96410                      -0.19798
                       0.15436                       0.96818                      -0.19697
                       0.13455                       0.97135                      -0.19590
                       0.11358                       0.97430                      -0.19450
                       0.09199                       0.97693                      -0.19273
                       0.07156                       0.97903                      -0.19075
                       0.05133                       0.98075                      -0.18839
                       0.03303                       0.98202                      -0.18587
                       0.01921                       0.98280                      -0.18368
                       0.00567                       0.98342                      -0.18124
                      -0.00563                       0.98384                      -0.17899
                      -0.01402                       0.98407                      -0.17721
                      -0.01851                       0.98418                      -0.17623
                      -0.01851                       0.98418                      -0.17623
        </DataArray>
        <DataArray type="Float32" Name="OrientationZ" NumberOfComponents="3" format="ascii">
                       0.07112                       0.18791                       0.97961
                       0.07160                       0.18783                       0.97959
                       0.07297                       0.18759                       0.97953
                       0.07485                       0.18725                       0.97946
                       0.07796                       0.18669                       0.97932
                       0.08265                       0.18589                       0.97909
                       0.08843                       0.18502                       0.97875
                       0.09559                       0.18405                       0.97826
                       0.10451                       0.18296                       0.97755
                       0.11556                       0.18177                       0.97653
                       0.12918                       0.18053                       0.97505
                       0.14496                       0.17932                       0.97305
                       0.16227                       0.17823                       0.97052
                       0.17996                       0.17732                       0.96756
                       0.19620                       0.17663                       0.96452
                       0.20664                       0.17627                       0.96241
                       0.21156                       0.17613                       0.96136
                       0.21346                       0.17608                       0.96095
                       0.21315                       0.17609                       0.96102
        </DataArray>
      </PointData>
      <Lines>
        <DataArray type="Int32" Name="connectivity" format="ascii">
      0      1
      1      2
      2      3
      3      4
      4      5
      5      6
      6      7
      7      8
      8      9
      9     10
     10     11
     11     12
     12     13
     13     14
     14     15
     15     16
     16     17
     17     18
        </DataArray>
        <DataArray type="Int32" Name="offsets" format="ascii">
      2
      4
      6
      8
     10
     12
     14
     16
     18
     20
     22
     24
     26
     28
     30
     32
     34
     36
        </DataArray>
      </Lines>
    </Piece>
  </PolyData>
</VTKFile>
