<?xml version="1.0"?>
<VTKFile type="PolyData" version="0.1" byte_order="LittleEndian">
  <PolyData>
    <Piece NumberOfPoints="     19" NumberOfVerts="  0" NumberOfLines="     18"
           NumberOfStrips="  0" NumberOfPolys="      0">
      <Points>
        <DataArray type="Float32" NumberOfComponents="3" format="ascii">
                       3.25352                       2.15521                      92.62892
                       3.44059                       4.54904                      95.33483
                       3.63558                       6.94456                      98.03868
                       3.84143                       9.34203                     100.73999
                       4.06056                      11.74166                     103.43834
                       4.29547                      14.14350                     106.13339
                       4.54933                      16.54742                     108.82485
                       4.82618                      18.95312                     111.51244
                       5.13093                      21.36020                     114.19577
                       5.46909                      23.76820                     116.87425
                       5.84633                      26.17667                     119.54706
                       6.26775                      28.58518                     122.21321
                       6.73694                      30.99333                     124.87170
                       7.25484                      33.40075                     127.52182
                       7.81833                      35.80724                     130.16352
                       8.41865                      38.21285                     132.79799
                       9.03956                      40.61795                     135.42821
                       9.35259                      41.82044                     136.74277
                       3.16153                       0.95867                      91.27552
        </DataArray>
      </Points>
      <PointData>
        <DataArray type="Float32" Name="TranslationalVelocity" NumberOfComponents="3" format="ascii">
                      -0.27231                      -2.26471                       2.00545
                      -0.01822                      -4.78563                       4.21806
                       0.24112                      -7.31205                       6.43767
                       0.50794                      -9.84558                       8.66590
                       0.78432                     -12.38717                      10.90366
                       1.07224                     -14.93726                      13.15121
                       1.37351                     -17.49612                      15.40827
                       1.68972                     -20.06389                      17.67410
                       2.02225                     -22.64053                      19.94766
                       2.37222                     -25.22582                      22.22764
                       2.74036                     -27.81928                      24.51260
                       3.12682                     -30.42017                      26.80101
                       3.53097                     -33.02746                      29.09142
                       3.95117                     -35.63989                      31.38252
                       4.38446                     -38.25605                      33.67341
                       4.82625                     -40.87444                      35.96382
                       5.26993                     -43.49365                      38.25435
                       5.49127                     -44.80331                      39.39977
                      -0.39833                      -1.00538                       0.90064
        </DataArray>
        <DataArray type="Float32" Name="RotationalVelocity" NumberOfComponents="3" format="ascii">
                       0.92259                      -0.00969                      -0.11628
                       0.92454                      -0.00895                      -0.11707
                       0.92723                      -0.00775                      -0.11830
                       0.93039                      -0.00614                      -0.11994
                       0.93377                      -0.00412                      -0.12195
                       0.93719                      -0.00170                      -0.12432
                       0.94056                       0.00108                      -0.12700
                       0.94377                       0.00419                      -0.12997
                       0.94677                       0.00758                      -0.13317
                       0.94951                       0.01120                      -0.13654
                       0.95196                       0.01494                      -0.14001
                       0.95410                       0.01866                      -0.14345
                       0.95591                       0.02219                      -0.14669
                       0.95740                       0.02528                      -0.14952
                       0.95854                       0.02761                      -0.15166
                       0.95931                       0.02881                      -0.15277
                       0.95966                       0.02839                      -0.15242
                       0.95972                       0.02771                      -0.15182
                       0.92184                      -0.00993                      -0.11602
        </DataArray>
        <DataArray type="Float32" Name="TranslationalAcceleration" NumberOfComponents="3" format="ascii">
                      -1.40957                      -1.71878                      -2.22549
                      -1.81528                      -3.84712                      -4.49626
                      -2.19329                      -6.04226                      -6.73180
                      -2.52992                      -8.32177                      -8.92361
                      -2.81174                     -10.69627                     -11.06720
                      -3.03097                     -13.17016                     -13.16150
                      -3.19031                     -15.74303                     -15.20786
                      -3.30517                     -18.41082                     -17.20889
                      -3.40376                     -21.16667                     -19.16732
                      -3.52581                     -24.00178                     -21.08477
                      -3.71978                     -26.90592                     -22.96063
                      -4.03826                     -29.86772                     -24.79145
                      -4.53190                     -32.87477                     -26.57130
                      -5.24191                     -35.91388                     -28.29341
                      -6.19084                     -38.97201                     -29.95307
                      -7.37206                     -42.03794                     -31.55214
                      -8.73781                     -45.10368                     -33.10509
                      -9.45789                     -46.63575                     -33.87284
                      -1.20137                      -0.66868                      -1.08262
        </DataArray>
        <DataArray type="Float32" Name="RotationalAcceleration" NumberOfComponents="3" format="ascii">
                       0.01241                      -0.03134                       0.00718
                       0.02897                      -0.02720                       0.00241
                       0.05165                      -0.02055                      -0.00499
                       0.07833                      -0.01090                      -0.01531
                       0.10688                       0.00123                      -0.02794
                       0.13568                       0.01409                      -0.04125
                       0.16368                       0.02515                      -0.05290
                       0.19013                       0.03170                      -0.06047
                       0.21470                       0.03115                      -0.06163
                       0.23743                       0.02128                      -0.05443
                       0.25855                       0.00063                      -0.03761
                       0.27840                      -0.03115                      -0.01086
                       0.29707                      -0.07298                       0.02485
                       0.31431                      -0.12205                       0.06705
                       0.32941                      -0.17343                       0.11143
                       0.34101                      -0.21976                       0.15160
                       0.34674                      -0.25103                       0.17884
                       0.34776                      -0.26146                       0.18799
                       0.00593                      -0.03291                       0.00900
        </DataArray>
        <DataArray type="Float32" Name="OrientationX" NumberOfComponents="3" format="ascii">
                       0.98759                      -0.14476                       0.06086
                       0.98751                      -0.14582                       0.05966
                       0.98737                      -0.14749                       0.05778
                       0.98908                      -0.13981                       0.04657
                       0.99256                      -0.11952                       0.02310
                       0.99395                      -0.10953                       0.00786
                       0.99495                      -0.10003                      -0.00830
                       0.99554                      -0.09060                      -0.02610
                       0.99561                      -0.08198                      -0.04518
                       0.99507                      -0.07501                      -0.06490
                       0.99392                      -0.06929                      -0.08558
                       0.99218                      -0.06511                      -0.10653
                       0.99000                      -0.06389                      -0.12573
                       0.98757                      -0.06369                      -0.14370
                       0.98506                      -0.06245                      -0.16050
                       0.98284                      -0.05908                      -0.17476
                       0.98173                      -0.05503                      -0.18212
                       0.98159                      -0.05300                      -0.18352
                       0.98762                      -0.14441                       0.06125
        </DataArray>
        <DataArray type="Float32" Name="OrientationY" NumberOfComponents="3" format="ascii">
                       0.14857                       0.73584                      -0.66065
                       0.14852                       0.73526                      -0.66132
                       0.14846                       0.73446                      -0.66221
                       0.13522                       0.73544                      -0.66395
                       0.10442                       0.73846                      -0.66616
                       0.08676                       0.73946                      -0.66758
                       0.06885                       0.74032                      -0.66872
                       0.04990                       0.74114                      -0.66949
                       0.03068                       0.74186                      -0.66985
                       0.01228                       0.74242                      -0.66982
                      -0.00585                       0.74292                      -0.66935
                      -0.02299                       0.74334                      -0.66852
                      -0.03680                       0.74359                      -0.66762
                      -0.04902                       0.74382                      -0.66657
                      -0.06120                       0.74417                      -0.66518
                      -0.07321                       0.74464                      -0.66344
                      -0.08107                       0.74500                      -0.66212
                      -0.08348                       0.74514                      -0.66166
                       0.14859                       0.73607                      -0.66040
        </DataArray>
        <DataArray type="Float32" Name="OrientationZ" NumberOfComponents="3" format="ascii">
                       0.05085                       0.66150                       0.74822
                       0.05257                       0.66192                       0.74773
                       0.05523                       0.66243                       0.74708
                       0.05858                       0.66300                       0.74632
                       0.06256                       0.66362                       0.74545
                       0.06730                       0.66423                       0.74449
                       0.07303                       0.66477                       0.74347
                       0.08000                       0.66521                       0.74236
                       0.08843                       0.66553                       0.74112
                       0.09843                       0.66572                       0.73968
                       0.10996                       0.66578                       0.73800
                       0.12272                       0.66573                       0.73603
                       0.13615                       0.66558                       0.73380
                       0.14934                       0.66533                       0.73146
                       0.16098                       0.66506                       0.72923
                       0.16933                       0.66485                       0.72753
                       0.17212                       0.66479                       0.72693
                       0.17182                       0.66480                       0.72699
                       0.05028                       0.66132                       0.74842
        </DataArray>
      </PointData>
      <Lines>
        <DataArray type="Int32" Name="connectivity" format="ascii">
      0      1
      1      2
      2      3
      3      4
      4      5
      5      6
      6      7
      7      8
      8      9
      9     10
     10     11
     11     12
     12     13
     13     14
     14     15
     15     16
     16     17
     18      0
        </DataArray>
        <DataArray type="Int32" Name="offsets" format="ascii">
      2
      4
      6
      8
     10
     12
     14
     16
     18
     20
     22
     24
     26
     28
     30
     32
     34
     36
        </DataArray>
      </Lines>
    </Piece>
  </PolyData>
</VTKFile>
