<?xml version="1.0"?>
<VTKFile type="PolyData" version="0.1" byte_order="LittleEndian">
  <PolyData>
    <Piece NumberOfPoints="     19" NumberOfVerts="  0" NumberOfLines="     18"
           NumberOfStrips="  0" NumberOfPolys="      0">
      <Points>
        <DataArray type="Float32" NumberOfComponents="3" format="ascii">
                       3.15120                       0.93333                      91.29769
                       3.22231                       1.81066                      92.34321
                       3.35094                       3.49256                      94.49652
                       3.47656                       5.14089                      96.67863
                       3.63752                       7.18237                      99.42265
                       3.88584                       9.74513                     102.61626
                       4.16669                      12.41032                     105.72049
                       4.46841                      15.07985                     108.81899
                       4.79896                      17.75469                     111.90988
                       5.16494                      20.43278                     114.99386
                       5.56854                      23.11059                     118.07321
                       6.02282                      25.78876                     121.14506
                       6.53463                      28.46670                     124.20794
                       7.10765                      31.14387                     127.26052
                       7.74245                      33.81973                     130.30193
                       8.31131                      36.04861                     132.82869
                       8.78569                      37.83713                     134.84082
                       9.26051                      39.66743                     136.81643
                       9.50091                      40.55084                     137.83107
        </DataArray>
      </Points>
      <PointData>
        <DataArray type="Float32" Name="Force" NumberOfComponents="3" format="ascii">
                      -0.03814                       0.36291                      -0.30341
                      78.69915                      16.21561                     -19.07848
                      92.51941                      41.48898                     -41.50201
                      78.64731                      55.21551                     -52.29529
                     795.08256                    -214.03940                     119.94766
                    1081.86152                    -288.20741                     154.78315
                    1234.03554                    -268.14786                     117.19696
                    1564.08494                    -290.32680                      93.93438
                    1705.49287                    -272.22818                      47.66694
                    1952.20580                    -279.71427                       3.13794
                    2371.78691                    -309.16448                     -58.84434
                    2677.93506                    -327.73429                    -132.78521
                    3077.05380                    -374.37910                    -215.72655
                    3309.17370                    -393.04436                    -308.18638
                    3486.93284                    -401.39240                    -402.26230
                    3548.54583                    -386.75020                    -472.04189
                    3398.81887                    -343.35479                    -495.48640
                    2445.46743                    -231.49117                    -375.57358
                    1307.30369                     -54.49767                    -259.92907
        </DataArray>
        <DataArray type="Float32" Name="Moment" NumberOfComponents="3" format="ascii">
                       0.00000                       0.00000                       0.00000
                       0.00000                       0.00000                       0.00000
                       0.00000                       0.00000                       0.00000
                       0.00000                       0.00000                       0.00000
                     -14.87284                    -164.39342                    -194.76438
                     -25.92445                    -267.22282                    -316.37123
                     -38.78376                    -369.54342                    -437.14225
                     -58.55562                    -510.72902                    -603.53141
                     -85.86878                    -678.09161                    -800.28331
                    -107.99186                    -763.80279                    -900.02286
                    -127.41539                    -798.69652                    -939.31806
                    -152.89922                    -846.77233                    -993.61870
                    -156.41842                    -767.77268                    -898.68327
                    -174.99911                    -769.20593                    -898.06170
                    -187.14013                    -750.11260                    -873.69746
                    -188.79736                    -715.97905                    -832.66132
                    -172.02676                    -636.10426                    -739.22989
                     -87.48352                    -320.34916                    -372.17764
                     -77.37705                    -283.75124                    -329.67272
        </DataArray>
        <DataArray type="Float32" Name="TranslationalVelocity" NumberOfComponents="3" format="ascii">
                      -0.42824                      -1.02191                       0.87183
                      -0.33776                      -1.99468                       1.68195
                      -0.16511                      -3.99747                       3.23583
                       0.00607                      -6.03104                       4.76162
                       0.22346                      -8.59697                       6.65651
                       0.50935                     -11.60383                       9.04447
                       0.82359                     -14.54676                      11.53956
                       1.15684                     -17.50248                      14.05058
                       1.51132                     -20.46999                      16.57791
                       1.88798                     -23.45011                      19.11854
                       2.28441                     -26.44302                      21.66704
                       2.70221                     -29.44822                      24.22345
                       3.13942                     -32.46406                      26.78570
                       3.59279                     -35.48847                      29.35191
                       4.05761                     -38.51905                      31.92043
                       4.44941                     -41.04732                      34.06209
                       4.76374                     -43.06571                      35.78198
                       5.07969                     -45.04916                      37.54364
                       5.23274                     -46.06728                      38.39390
        </DataArray>
        <DataArray type="Float32" Name="RotationalVelocity" NumberOfComponents="3" format="ascii">
                       0.92183                      -0.01103                      -0.11578
                       0.92252                      -0.01080                      -0.11601
                       0.92425                      -0.01018                      -0.11665
                       0.92638                      -0.00932                      -0.11752
                       0.92964                      -0.00783                      -0.11901
                       0.93410                      -0.00544                      -0.12133
                       0.93877                      -0.00246                      -0.12415
                       0.94341                       0.00097                      -0.12736
                       0.94786                       0.00472                      -0.13083
                       0.95199                       0.00864                      -0.13441
                       0.95570                       0.01252                      -0.13794
                       0.95898                       0.01617                      -0.14124
                       0.96183                       0.01937                      -0.14413
                       0.96422                       0.02188                      -0.14641
                       0.96613                       0.02346                      -0.14787
                       0.96728                       0.02381                      -0.14824
                       0.96787                       0.02335                      -0.14790
                       0.96820                       0.02232                      -0.14705
                       0.96827                       0.02158                      -0.14643
        </DataArray>
        <DataArray type="Float32" Name="TranslationalAcceleration" NumberOfComponents="3" format="ascii">
                      -1.18713                      -0.65548                      -1.21574
                      -1.37077                      -1.41343                      -2.10787
                      -1.74198                      -2.87760                      -3.94099
                      -2.10240                      -4.34916                      -5.78729
                      -2.52469                      -6.23894                      -8.09077
                      -2.95677                      -8.71039                     -10.73438
                      -3.28799                     -11.39564                     -13.24768
                      -3.52512                     -14.21419                     -15.70719
                      -3.68479                     -17.16198                     -18.11446
                      -3.80739                     -20.22722                     -20.47398
                      -3.94728                     -23.38413                     -22.79408
                      -4.17648                     -26.62957                     -25.06731
                      -4.57739                     -29.94608                     -27.28622
                      -5.22679                     -33.31477                     -29.43919
                      -6.17924                     -36.71562                     -31.51439
                      -7.20850                     -39.56104                     -33.18223
                      -8.17871                     -41.84338                     -34.47073
                      -9.23694                     -44.15315                     -35.69045
                      -9.78648                     -45.28526                     -36.33217
        </DataArray>
        <DataArray type="Float32" Name="OrientationX" NumberOfComponents="3" format="ascii">
                       0.98718                      -0.14865                       0.05813
                       0.98716                      -0.14891                       0.05782
                       0.98710                      -0.14966                       0.05693
                       0.98701                      -0.15070                       0.05571
                       0.98686                      -0.15241                       0.05368
                       0.99092                      -0.13104                       0.03000
                       0.99308                      -0.11689                       0.01133
                       0.99438                      -0.10568                      -0.00638
                       0.99518                      -0.09456                      -0.02599
                       0.99532                      -0.08415                      -0.04740
                       0.99466                      -0.07606                      -0.06972
                       0.99322                      -0.06932                      -0.09334
                       0.99104                      -0.06492                      -0.11670
                       0.98844                      -0.06418                      -0.13738
                       0.98560                      -0.06284                      -0.15698
                       0.98339                      -0.05996                      -0.17131
                       0.98204                      -0.05623                      -0.18010
                       0.98139                      -0.05383                      -0.18434
                       0.98143                      -0.05367                      -0.18415
        </DataArray>
        <DataArray type="Float32" Name="OrientationY" NumberOfComponents="3" format="ascii">
                       0.15091                       0.75066                      -0.64322
                       0.15090                       0.75050                      -0.64341
                       0.15087                       0.75011                      -0.64388
                       0.15083                       0.74963                      -0.64445
                       0.15076                       0.74889                      -0.64532
                       0.11911                       0.75241                      -0.64783
                       0.09619                       0.75421                      -0.64955
                       0.07610                       0.75538                      -0.65085
                       0.05486                       0.75647                      -0.65172
                       0.03298                       0.75745                      -0.65206
                       0.01228                       0.75819                      -0.65192
                      -0.00823                       0.75885                      -0.65121
                      -0.02681                       0.75937                      -0.65011
                      -0.04089                       0.75966                      -0.64904
                      -0.05468                       0.76005                      -0.64756
                      -0.06616                       0.76048                      -0.64598
                      -0.07465                       0.76087                      -0.64460
                      -0.07918                       0.76107                      -0.64382
                      -0.07918                       0.76107                      -0.64381
        </DataArray>
        <DataArray type="Float32" Name="OrientationZ" NumberOfComponents="3" format="ascii">
                       0.05198                       0.64375                       0.76347
                       0.05242                       0.64388                       0.76333
                       0.05366                       0.64416                       0.76301
                       0.05536                       0.64448                       0.76262
                       0.05815                       0.64493                       0.76203
                       0.06232                       0.64553                       0.76119
                       0.06739                       0.64615                       0.76023
                       0.07360                       0.64671                       0.75918
                       0.08129                       0.64715                       0.75801
                       0.09078                       0.64745                       0.75668
                       0.10245                       0.64758                       0.75508
                       0.11597                       0.64757                       0.75313
                       0.13082                       0.64742                       0.75083
                       0.14602                       0.64715                       0.74825
                       0.16000                       0.64682                       0.74567
                       0.16901                       0.64658                       0.74389
                       0.17328                       0.64647                       0.74300
                       0.17495                       0.64643                       0.74264
                       0.17470                       0.64644                       0.74269
        </DataArray>
      </PointData>
      <Lines>
        <DataArray type="Int32" Name="connectivity" format="ascii">
      0      1
      1      2
      2      3
      3      4
      4      5
      5      6
      6      7
      7      8
      8      9
      9     10
     10     11
     11     12
     12     13
     13     14
     14     15
     15     16
     16     17
     17     18
        </DataArray>
        <DataArray type="Int32" Name="offsets" format="ascii">
      2
      4
      6
      8
     10
     12
     14
     16
     18
     20
     22
     24
     26
     28
     30
     32
     34
     36
        </DataArray>
      </Lines>
    </Piece>
  </PolyData>
</VTKFile>
