<?xml version="1.0"?>
<VTKFile type="PolyData" version="0.1" byte_order="LittleEndian">
  <PolyData>
    <Piece NumberOfPoints="     17" NumberOfVerts="  0" NumberOfLines="      0"
           NumberOfStrips="  0" NumberOfPolys="      0">
      <Points>
        <DataArray type="Float32" NumberOfComponents="3" format="ascii">
                       2.38376                      -3.01847                      88.74704
                       2.05453                      -6.28842                      87.23496
                       1.73295                      -9.55719                      85.71870
                       1.42209                     -12.82441                      84.19686
                       1.12463                     -16.08984                      82.66854
                       0.84347                     -19.35338                      81.13311
                       0.58207                     -22.61491                      79.58995
                       0.34465                     -25.87428                      78.03840
                       0.13617                     -29.13133                      76.47786
                      -0.03786                     -32.38585                      74.90788
                      -0.17189                     -35.63756                      73.32822
                      -0.26100                     -38.88616                      71.73902
                      -0.30182                     -42.13132                      70.14084
                      -0.29373                     -45.37280                      68.53466
                      -0.24022                     -48.61065                      66.92193
                      -0.15049                     -51.84545                      65.30457
                      -0.04136                     -55.07856                      63.68492
        </DataArray>
      </Points>
      <PointData>
        <DataArray type="Float32" Name="Force" NumberOfComponents="3" format="ascii">
                     200.59853                     -53.10416                      71.03555
                     673.97653                    -158.56593                     199.89248
                    2255.68864                     281.42792                   -1071.98489
                    3745.67397                     494.91307                   -1809.44037
                    2281.30850                     266.93471                   -1007.19953
                    4951.20606                     512.84073                   -1988.33201
                    6002.57971                     551.64938                   -2164.92601
                    6679.88037                     558.30232                   -2158.46931
                    7204.56675                     579.26365                   -2114.04065
                    9161.50972                     737.22720                   -2448.08852
                   10630.66680                     895.08533                   -2599.00322
                   12258.67120                    1128.09860                   -2790.35078
                    7092.74546                     698.45072                   -1527.98237
                   14281.63919                    1496.12940                   -2899.63648
                   13934.52220                    1549.84695                   -2631.55631
                   19956.08932                    2270.72500                   -3442.82115
                    8129.68874                     870.19725                   -1222.51400
        </DataArray>
        <DataArray type="Float32" Name="Moment" NumberOfComponents="3" format="ascii">
                     -19.81332                     -13.85969                      23.00072
                     200.86857                    -253.36566                     329.55637
                    1228.10046                   -1451.54356                    1849.45289
                    1312.42341                   -1997.15005                    2348.12953
                      57.96094                    -390.37164                      83.97488
                   -1097.82096                     757.33892                   -2269.35670
                    -707.18503                     833.67164                   -1414.42439
                    -117.54512                     850.40881                     245.87430
                     151.09886                     626.43663                    1055.88771
                     380.02358                      87.97034                    1858.90147
                    1023.56678                   -1182.97096                    4106.41466
                    1851.71562                   -3261.81188                    7033.81305
                    -129.14469                     196.33681                    -446.74687
                   -2250.90706                    4163.54251                   -8637.20987
                   -2022.70936                    3838.19799                   -8139.24325
                    -452.39191                     438.59071                   -1362.02929
                    -114.97756                      62.72904                     173.54442
        </DataArray>
      </PointData>
    </Piece>
  </PolyData>
</VTKFile>
