<?xml version="1.0"?>
<VTKFile type="PolyData" version="0.1" byte_order="LittleEndian">
  <PolyData>
    <Piece NumberOfPoints="     19" NumberOfVerts="  0" NumberOfLines="     18"
           NumberOfStrips="  0" NumberOfPolys="      0">
      <Points>
        <DataArray type="Float32" NumberOfComponents="3" format="ascii">
                       3.23001                      -1.15820                      91.12386
                       3.28256                      -2.19605                      92.01155
                       3.35729                      -4.33299                      93.71729
                       3.42056                      -6.50002                      95.38858
                       3.49787                      -9.22840                      97.45470
                       3.66949                     -12.41486                     100.03066
                       3.89505                     -15.52256                     102.69493
                       4.14052                     -18.63383                     105.35331
                       4.41389                     -21.74772                     108.00597
                       4.72069                     -24.86544                     110.65054
                       5.06190                     -27.98852                     113.28460
                       5.44938                     -31.11591                     115.90721
                       5.88874                     -34.24655                     118.51780
                       6.38265                     -37.37916                     121.11635
                       6.93112                     -40.51242                     123.70324
                       7.42291                     -43.12326                     125.85176
                       7.83406                     -45.20649                     127.57309
                       8.25379                     -47.25462                     129.33578
                       8.45899                     -48.30526                     130.18532
        </DataArray>
      </Points>
      <PointData>
        <DataArray type="Float32" Name="Force" NumberOfComponents="3" format="ascii">
                       0.46855                       3.19812                       3.69069
                      73.66455                      18.00437                      16.49266
                      95.05532                      41.73054                      42.63727
                      86.98998                      54.18947                      57.43966
                     660.81755                    -198.49563                    -276.30701
                     860.94576                    -221.68505                    -322.47270
                     978.42509                    -203.42768                    -317.62064
                    1245.73465                    -213.55403                    -363.34394
                    1339.14377                    -181.74506                    -350.49701
                    1541.31210                    -168.41628                    -377.79097
                    1913.25824                    -157.73487                    -441.98416
                    2194.30751                    -130.92261                    -491.75893
                    2620.21590                    -117.25264                    -597.85019
                    2900.43433                     -78.19559                    -664.59955
                    3146.54108                     -37.16751                    -727.72281
                    3355.06306                       0.35262                    -771.22275
                    3335.24555                      26.48432                    -754.90944
                    2492.09230                      28.28999                    -558.70821
                    1235.54886                      76.18865                    -202.27952
        </DataArray>
        <DataArray type="Float32" Name="Moment" NumberOfComponents="3" format="ascii">
                       0.00000                       0.00000                       0.00000
                       0.00000                       0.00000                       0.00000
                       0.00000                       0.00000                       0.00000
                       0.00000                       0.00000                       0.00000
                      -8.38253                     142.50407                    -122.42091
                     -21.04380                     328.64434                    -282.11102
                     -30.68843                     435.41375                    -373.40628
                     -48.02152                     612.42830                    -524.59551
                     -73.84345                     837.66246                    -716.49115
                     -93.43194                     934.16467                    -797.62710
                    -114.20779                     998.47479                    -850.71665
                    -137.46956                    1050.90664                    -893.19766
                    -133.21883                     896.12550                    -759.61366
                    -148.69264                     891.73127                    -753.84145
                    -158.37223                     864.38999                    -728.92035
                    -159.19145                     822.08476                    -692.15729
                    -144.85540                     730.20962                    -614.36405
                     -73.68517                     368.55016                    -310.00791
                     -63.96714                     320.82057                    -269.88218
        </DataArray>
        <DataArray type="Float32" Name="TranslationalVelocity" NumberOfComponents="3" format="ascii">
                       0.07489                      -0.94705                      -1.00019
                      -0.03857                      -1.77360                      -1.95984
                      -0.27340                      -3.35827                      -3.93472
                      -0.51249                      -4.90804                      -5.93479
                      -0.81491                      -6.82083                      -8.44838
                      -1.16899                      -9.20918                     -11.37733
                      -1.51677                     -11.67811                     -14.22568
                      -1.86989                     -14.13670                     -17.06854
                      -2.22910                     -16.58621                     -19.90513
                      -2.59512                     -19.02559                     -22.73683
                      -2.96770                     -21.45392                     -25.56630
                      -3.34721                     -23.87184                     -28.39234
                      -3.73295                     -26.28032                     -31.21471
                      -4.12366                     -28.68048                     -34.03312
                      -4.51760                     -31.07350                     -36.84751
                      -4.84682                     -33.06353                     -39.19014
                      -5.10919                     -34.65905                     -41.05837
                      -5.36552                     -36.29233                     -42.89509
                      -5.49668                     -37.07981                     -43.83733
        </DataArray>
        <DataArray type="Float32" Name="RotationalVelocity" NumberOfComponents="3" format="ascii">
                       0.92458                       0.00914                      -0.11708
                       0.92419                       0.00910                      -0.11710
                       0.92323                       0.00898                      -0.11718
                       0.92203                       0.00881                      -0.11732
                       0.92018                       0.00848                      -0.11759
                       0.91763                       0.00791                      -0.11809
                       0.91490                       0.00716                      -0.11881
                       0.91214                       0.00624                      -0.11971
                       0.90944                       0.00522                      -0.12074
                       0.90688                       0.00413                      -0.12185
                       0.90454                       0.00304                      -0.12297
                       0.90244                       0.00203                      -0.12403
                       0.90060                       0.00116                      -0.12493
                       0.89906                       0.00049                      -0.12561
                       0.89787                       0.00012                      -0.12597
                       0.89722                       0.00010                      -0.12596
                       0.89695                       0.00030                      -0.12571
                       0.89688                       0.00067                      -0.12528
                       0.89692                       0.00091                      -0.12499
        </DataArray>
        <DataArray type="Float32" Name="TranslationalAcceleration" NumberOfComponents="3" format="ascii">
                      -1.10489                       0.83946                      -0.76667
                      -1.21695                       1.74018                      -1.52853
                      -1.43174                       3.59478                      -2.98631
                      -1.63343                       5.47516                      -4.40414
                      -1.86404                       7.84114                      -6.14056
                      -2.11567                      10.60479                      -8.29177
                      -2.33154                      13.30412                     -10.49590
                      -2.50126                      16.00997                     -12.66711
                      -2.62794                      18.72292                     -14.80658
                      -2.71961                      21.44542                     -16.91325
                      -2.78998                      24.17916                     -18.98849
                      -2.85181                      26.92480                     -21.03018
                      -2.92327                      29.68149                     -23.03892
                      -3.02236                      32.44707                     -25.01563
                      -3.16403                      35.21839                     -26.96219
                      -3.31971                      37.52974                     -28.56458
                      -3.47105                      39.37524                     -29.84095
                      -3.64697                      41.19493                     -31.14903
                      -3.73491                      42.12398                     -31.77408
        </DataArray>
        <DataArray type="Float32" Name="OrientationX" NumberOfComponents="3" format="ascii">
                       0.94597                      -0.18213                      -0.26826
                       0.94596                      -0.18179                      -0.26854
                       0.94591                      -0.18086                      -0.26935
                       0.94584                      -0.17958                      -0.27045
                       0.94572                      -0.17745                      -0.27227
                       0.95531                      -0.15418                      -0.25221
                       0.96151                      -0.13572                      -0.23893
                       0.96638                      -0.11819                      -0.22835
                       0.97100                      -0.09886                      -0.21770
                       0.97513                      -0.07789                      -0.20750
                       0.97833                      -0.05620                      -0.19926
                       0.98082                      -0.03343                      -0.19201
                       0.98234                      -0.01108                      -0.18675
                       0.98272                       0.00851                      -0.18488
                       0.98287                       0.02698                      -0.18232
                       0.98311                       0.04045                      -0.17851
                       0.98350                       0.04869                      -0.17421
                       0.98379                       0.05253                      -0.17144
                       0.98386                       0.05222                      -0.17118
        </DataArray>
        <DataArray type="Float32" Name="OrientationY" NumberOfComponents="3" format="ascii">
                       0.32190                       0.62679                       0.70959
                       0.32190                       0.62670                       0.70967
                       0.32192                       0.62647                       0.70986
                       0.32193                       0.62620                       0.71010
                       0.32195                       0.62578                       0.71045
                       0.29166                       0.63051                       0.71930
                       0.26965                       0.63324                       0.72546
                       0.25034                       0.63518                       0.73067
                       0.22984                       0.63690                       0.73589
                       0.20866                       0.63826                       0.74100
                       0.18857                       0.63914                       0.74561
                       0.16862                       0.63960                       0.74999
                       0.15052                       0.63960                       0.75383
                       0.13683                       0.63925                       0.75673
                       0.12335                       0.63871                       0.75949
                       0.11206                       0.63815                       0.76172
                       0.10364                       0.63767                       0.76331
                       0.09912                       0.63740                       0.76413
                       0.09912                       0.63740                       0.76413
        </DataArray>
        <DataArray type="Float32" Name="OrientationZ" NumberOfComponents="3" format="ascii">
                       0.03891                      -0.75760                       0.65155
                       0.03928                      -0.75776                       0.65135
                       0.04036                      -0.75817                       0.65081
                       0.04184                      -0.75870                       0.65009
                       0.04432                      -0.75954                       0.64894
                       0.04811                      -0.76072                       0.64730
                       0.05284                      -0.76197                       0.64546
                       0.05869                      -0.76326                       0.64341
                       0.06590                      -0.76458                       0.64115
                       0.07472                      -0.76587                       0.63864
                       0.08545                      -0.76703                       0.63589
                       0.09773                      -0.76798                       0.63297
                       0.11109                      -0.76863                       0.62997
                       0.12463                      -0.76895                       0.62704
                       0.13694                      -0.76897                       0.62444
                       0.14473                      -0.76885                       0.62283
                       0.14826                      -0.76877                       0.62210
                       0.14942                      -0.76874                       0.62186
                       0.14901                      -0.76876                       0.62193
        </DataArray>
      </PointData>
      <Lines>
        <DataArray type="Int32" Name="connectivity" format="ascii">
      0      1
      1      2
      2      3
      3      4
      4      5
      5      6
      6      7
      7      8
      8      9
      9     10
     10     11
     11     12
     12     13
     13     14
     14     15
     15     16
     16     17
     17     18
        </DataArray>
        <DataArray type="Int32" Name="offsets" format="ascii">
      2
      4
      6
      8
     10
     12
     14
     16
     18
     20
     22
     24
     26
     28
     30
     32
     34
     36
        </DataArray>
      </Lines>
    </Piece>
  </PolyData>
</VTKFile>
