<?xml version="1.0"?>
<VTKFile type="PolyData" version="0.1" byte_order="LittleEndian">
  <PolyData>
    <Piece NumberOfPoints="     17" NumberOfVerts="  0" NumberOfLines="      0"
           NumberOfStrips="  0" NumberOfPolys="      0">
      <Points>
        <DataArray type="Float32" NumberOfComponents="3" format="ascii">
                       3.27536                       2.39847                      92.39094
                       3.43178                       5.06146                      94.83457
                       3.59566                       7.72641                      97.27558
                       3.76974                      10.39369                      99.71334
                       3.95625                      13.06353                     102.14737
                       4.15753                      15.73603                     104.57729
                       4.37652                      18.41109                     107.00286
                       4.61701                      21.08843                     109.42385
                       4.88362                      23.76769                     111.83998
                       5.18154                      26.44843                     114.25078
                       5.51613                      29.13019                     116.65561
                       5.89223                      31.81253                     119.05364
                       6.31325                      34.49498                     121.44407
                       6.78012                      37.17712                     123.82634
                       7.28996                      39.85863                     126.20054
                       7.83456                      42.53947                     128.56785
                       8.39864                      45.21990                     130.93112
        </DataArray>
      </Points>
      <PointData>
        <DataArray type="Float32" Name="Force" NumberOfComponents="3" format="ascii">
                     178.33012                      43.89529                     -59.02549
                     559.94168                     148.99590                    -199.71073
                    2137.49737                    -435.65001                     322.31618
                    3684.65209                    -830.17342                     626.22585
                    2239.13762                    -456.78372                     318.37917
                    4780.78181                    -843.97989                     509.47349
                    5731.89741                    -871.23748                     410.01646
                    6364.21906                    -845.51029                     255.92517
                    6826.74577                    -826.02315                     101.72241
                    8604.85499                    -973.26708                     -71.31410
                    9874.81636                   -1079.17523                    -294.17405
                   11237.10415                   -1242.05354                    -536.26296
                    6416.45839                    -716.96731                    -395.09959
                   12699.93146                   -1425.16367                    -970.05560
                   12075.13882                   -1344.75270                   -1138.99218
                   16670.31666                   -1752.91998                   -1917.09733
                    6727.68861                    -604.91340                    -925.46227
        </DataArray>
        <DataArray type="Float32" Name="Moment" NumberOfComponents="3" format="ascii">
                     -19.94492                      16.93118                     -10.07582
                      91.99073                     292.60553                    -232.41368
                     689.61540                    1699.21437                   -1439.95294
                     824.27680                    2478.10112                   -1754.66505
                      47.74797                     392.49652                      39.03464
                    -542.32853                   -1281.88965                    1946.73629
                    -356.11268                   -1096.05325                    1069.12846
                    -182.73965                    -653.69001                    -477.15960
                    -111.45546                    -248.33925                   -1160.44721
                     -67.89551                     422.25826                   -1761.44447
                      48.39864                    2094.52286                   -3472.13579
                     190.58193                    4598.76301                   -5539.94205
                     -28.72508                    -280.67847                     294.02101
                    -227.10668                   -5725.20975                    6439.82715
                    -105.57367                   -5274.29431                    5900.36501
                    -209.16557                   -1074.12707                     952.54929
                    -156.46226                      18.61654                    -374.47460
        </DataArray>
      </PointData>
    </Piece>
  </PolyData>
</VTKFile>
