<?xml version="1.0"?>
<VTKFile type="PolyData" version="0.1" byte_order="LittleEndian">
  <PolyData>
    <Piece NumberOfPoints="     17" NumberOfVerts="  0" NumberOfLines="      0"
           NumberOfStrips="  0" NumberOfPolys="      0">
      <Points>
        <DataArray type="Float32" NumberOfComponents="3" format="ascii">
                       2.82659                       3.26457                      89.68693
                       2.61416                       6.84419                      89.20884
                       2.40852                      10.42360                      88.72628
                       2.21219                      14.00279                      88.23822
                       2.02716                      17.58172                      87.74393
                       1.85550                      21.16039                      87.24296
                       1.69979                      24.73881                      86.73510
                       1.56340                      28.31703                      86.22033
                       1.45038                      31.89506                      85.69862
                       1.36534                      35.47282                      85.16993
                       1.31302                      39.05014                      84.63412
                       1.29768                      42.62670                      84.09099
                       1.32235                      46.20207                      83.54042
                       1.38785                      49.77581                      82.98252
                       1.49161                      53.34760                      82.41787
                       1.62627                      56.91752                      81.84775
                       1.77819                      60.48628                      81.27451
        </DataArray>
      </Points>
      <PointData>
        <DataArray type="Float32" Name="Force" NumberOfComponents="3" format="ascii">
                     150.48167                      -0.33735                     -70.43146
                     490.61693                      -4.53371                    -245.66319
                    2025.23721                     168.11484                     431.08288
                    3543.63368                     299.64765                     866.88318
                    2139.71819                     165.18845                     450.95649
                    4474.43791                     301.63274                     733.82987
                    5157.90384                     289.40375                     607.20665
                    5389.76964                     237.55036                     408.15301
                    5417.89552                     172.83875                     224.56216
                    6346.10148                     118.57354                      56.94551
                    6575.74119                      26.59756                    -143.16795
                    6698.55359                     -74.32781                    -315.51927
                    3416.70584                     -78.09899                    -229.07257
                    5867.37964                    -205.92224                    -520.93905
                    4586.29477                    -224.83090                    -523.98069
                    6043.55287                    -365.54620                    -796.45460
                    3459.87364                    -219.12664                    -448.20099
        </DataArray>
        <DataArray type="Float32" Name="Moment" NumberOfComponents="3" format="ascii">
                     -19.58684                       0.81940                     -16.11861
                      66.86392                      16.07488                    -363.04351
                     565.89445                     115.37576                   -2145.66403
                     659.57661                     445.95269                   -2953.20037
                       3.00944                     345.95227                    -267.66680
                    -507.48379                     674.68733                    2143.44695
                    -296.99584                      45.75517                    1512.11556
                    -110.93641                    -967.46040                     404.71527
                     -61.67421                   -1382.58020                    -147.09066
                     -83.11854                   -1736.65509                    -630.87499
                    -136.47438                   -2198.01396                   -1995.58487
                    -270.35238                   -2093.03330                   -3655.56472
                      -8.01793                    -722.06725                     424.46278
                     302.95553                    -959.80774                    4600.05989
                     301.13186                   -1120.92490                    3565.97025
                    -125.66183                   -2072.49933                      -2.08184
                    -139.73509                    -748.46471                    -726.76586
        </DataArray>
      </PointData>
    </Piece>
  </PolyData>
</VTKFile>
