<?xml version="1.0"?>
<VTKFile type="PolyData" version="0.1" byte_order="LittleEndian">
  <PolyData>
    <Piece NumberOfPoints="     19" NumberOfVerts="  0" NumberOfLines="     18"
           NumberOfStrips="  0" NumberOfPolys="      0">
      <Points>
        <DataArray type="Float32" NumberOfComponents="3" format="ascii">
                       3.23837                      -0.31107                      93.40011
                       3.51392                      -0.65093                      96.99120
                       3.79032                      -0.99094                     100.58221
                       4.06791                      -1.33118                     104.17311
                       4.34696                      -1.67168                     107.76387
                       4.62774                      -2.01244                     111.35447
                       4.91050                      -2.35349                     114.94489
                       5.19549                      -2.69482                     118.53510
                       5.48296                      -3.03642                     122.12509
                       5.77314                      -3.37829                     125.71484
                       6.06625                      -3.72039                     129.30433
                       6.36240                      -4.06268                     132.89355
                       6.66160                      -4.40514                     136.48250
                       6.96370                      -4.74770                     140.07120
                       7.26829                      -5.09033                     143.65968
                       7.57467                      -5.43298                     147.24801
                       7.88172                      -5.77564                     150.83628
                       8.03525                      -5.94697                     152.63041
                       3.10076                      -0.14117                      91.60454
        </DataArray>
      </Points>
      <PointData>
        <DataArray type="Float32" Name="TranslationalVelocity" NumberOfComponents="3" format="ascii">
                      -0.00837                      -3.09369                      -0.29248
                      -0.04043                      -6.46674                      -0.60924
                      -0.05790                      -9.84493                      -0.92776
                      -0.05495                     -13.22999                      -1.24873
                      -0.02662                     -16.62290                      -1.57267
                       0.03187                     -20.02409                      -1.90004
                       0.12542                     -23.43379                      -2.23129
                       0.25920                     -26.85211                      -2.56690
                       0.43864                     -30.27891                      -2.90735
                       0.66915                     -33.71384                      -3.25312
                       0.95562                     -37.15629                      -3.60461
                       1.30166                     -40.60540                      -3.96212
                       1.70865                     -44.06011                      -4.32570
                       2.17451                     -47.51924                      -4.69512
                       2.69229                     -50.98157                      -5.06966
                       3.24853                     -54.44584                      -5.44797
                       3.82134                     -57.91093                      -5.82788
                       4.10857                     -59.64356                      -6.01791
                       0.01051                      -1.40820                      -0.13444
        </DataArray>
        <DataArray type="Float32" Name="RotationalVelocity" NumberOfComponents="3" format="ascii">
                       0.93011                       0.00009                      -0.11203
                       0.93127                       0.00324                      -0.11182
                       0.93301                       0.00818                      -0.11148
                       0.93514                       0.01455                      -0.11104
                       0.93744                       0.02224                      -0.11049
                       0.93983                       0.03125                      -0.10982
                       0.94227                       0.04165                      -0.10902
                       0.94473                       0.05352                      -0.10809
                       0.94713                       0.06691                      -0.10701
                       0.94941                       0.08178                      -0.10577
                       0.95150                       0.09787                      -0.10441
                       0.95332                       0.11473                      -0.10296
                       0.95483                       0.13158                      -0.10148
                       0.95600                       0.14728                      -0.10008
                       0.95680                       0.16029                      -0.09891
                       0.95723                       0.16854                      -0.09816
                       0.95732                       0.16945                      -0.09809
                       0.95730                       0.16771                      -0.09825
                       0.92970                      -0.00099                      -0.11210
        </DataArray>
        <DataArray type="Float32" Name="TranslationalAcceleration" NumberOfComponents="3" format="ascii">
                       0.33144                       0.59416                      -2.51905
                       0.23082                       1.41582                      -5.63005
                       0.20207                       2.13464                      -8.76614
                       0.27632                       2.72255                     -11.93594
                       0.48271                       3.16276                     -15.14572
                       0.85518                       3.44660                     -18.40059
                       1.43524                       3.56983                     -21.70579
                       2.27372                       3.53132                     -25.06719
                       3.43088                       3.33298                     -28.49125
                       4.97331                       2.97983                     -31.98476
                       6.96826                       2.48015                     -35.55435
                       9.47545                       1.84583                     -39.20554
                      12.53620                       1.09218                     -42.94147
                      16.15999                       0.23744                     -46.76118
                      20.30860                      -0.69703                     -50.65718
                      24.87766                      -1.68658                     -54.61248
                      29.67539                      -2.70385                     -58.59796
                      32.10129                      -3.21586                     -60.59377
                       0.39540                       0.16192                      -0.96858
        </DataArray>
        <DataArray type="Float32" Name="RotationalAcceleration" NumberOfComponents="3" format="ascii">
                      -0.15538                       0.06666                       0.03068
                      -0.13157                       0.08215                       0.03032
                      -0.09821                       0.10739                       0.03016
                      -0.05875                       0.14040                       0.03026
                      -0.01604                       0.18193                       0.03092
                       0.02829                       0.23381                       0.03243
                       0.07342                       0.29835                       0.03508
                       0.11853                       0.37837                       0.03920
                       0.16278                       0.47625                       0.04507
                       0.20535                       0.59309                       0.05286
                       0.24530                       0.72812                       0.06258
                       0.28158                       0.87793                       0.07397
                       0.31331                       1.03572                       0.08647
                       0.33966                       1.19064                       0.09911
                       0.35955                       1.32708                       0.11050
                       0.37189                       1.42395                       0.11872
                       0.37586                       1.45388                       0.12125
                       0.37567                       1.44828                       0.12073
                      -0.16441                       0.06180                       0.03091
        </DataArray>
        <DataArray type="Float32" Name="OrientationX" NumberOfComponents="3" format="ascii">
                       0.96767                      -0.23316                      -0.09622
                       0.96765                      -0.23314                      -0.09641
                       0.96763                      -0.23311                      -0.09670
                       0.97072                      -0.22017                      -0.09609
                       0.97727                      -0.18994                      -0.09419
                       0.98056                      -0.17259                      -0.09332
                       0.98358                      -0.15496                      -0.09248
                       0.98643                      -0.13626                      -0.09159
                       0.98895                      -0.11727                      -0.09072
                       0.99101                      -0.09904                      -0.08994
                       0.99271                      -0.08104                      -0.08921
                       0.99402                      -0.06397                      -0.08855
                       0.99484                      -0.05020                      -0.08815
                       0.99541                      -0.03798                      -0.08781
                       0.99585                      -0.02576                      -0.08730
                       0.99615                      -0.01365                      -0.08654
                       0.99630                      -0.00571                      -0.08580
                       0.99634                      -0.00328                      -0.08546
                       0.96767                      -0.23317                      -0.09616
        </DataArray>
        <DataArray type="Float32" Name="OrientationY" NumberOfComponents="3" format="ascii">
                       0.24049                       0.96789                       0.07315
                       0.24049                       0.96789                       0.07314
                       0.24049                       0.96789                       0.07313
                       0.22758                       0.97091                       0.07439
                       0.19740                       0.97727                       0.07732
                       0.18009                       0.98048                       0.07896
                       0.16251                       0.98341                       0.08061
                       0.14387                       0.98617                       0.08233
                       0.12494                       0.98860                       0.08406
                       0.10677                       0.99058                       0.08570
                       0.08885                       0.99221                       0.08731
                       0.07184                       0.99345                       0.08881
                       0.05814                       0.99424                       0.09002
                       0.04599                       0.99478                       0.09108
                       0.03382                       0.99517                       0.09215
                       0.02174                       0.99541                       0.09320
                       0.01379                       0.99549                       0.09388
                       0.01135                       0.99550                       0.09409
                       0.24049                       0.96789                       0.07316
        </DataArray>
        <DataArray type="Float32" Name="OrientationZ" NumberOfComponents="3" format="ascii">
                       0.07608                      -0.09393                       0.99267
                       0.07626                      -0.09396                       0.99265
                       0.07655                      -0.09402                       0.99262
                       0.07692                      -0.09408                       0.99259
                       0.07736                      -0.09416                       0.99255
                       0.07787                      -0.09423                       0.99250
                       0.07845                      -0.09431                       0.99245
                       0.07910                      -0.09439                       0.99239
                       0.07982                      -0.09446                       0.99232
                       0.08061                      -0.09453                       0.99225
                       0.08144                      -0.09459                       0.99218
                       0.08229                      -0.09464                       0.99210
                       0.08312                      -0.09468                       0.99203
                       0.08389                      -0.09470                       0.99196
                       0.08450                      -0.09472                       0.99191
                       0.08487                      -0.09472                       0.99188
                       0.08488                      -0.09472                       0.99188
                       0.08477                      -0.09472                       0.99189
                       0.07601                      -0.09392                       0.99267
        </DataArray>
      </PointData>
      <Lines>
        <DataArray type="Int32" Name="connectivity" format="ascii">
      0      1
      1      2
      2      3
      3      4
      4      5
      5      6
      6      7
      7      8
      8      9
      9     10
     10     11
     11     12
     12     13
     13     14
     14     15
     15     16
     16     17
     18      0
        </DataArray>
        <DataArray type="Int32" Name="offsets" format="ascii">
      2
      4
      6
      8
     10
     12
     14
     16
     18
     20
     22
     24
     26
     28
     30
     32
     34
     36
        </DataArray>
      </Lines>
    </Piece>
  </PolyData>
</VTKFile>
