<?xml version="1.0"?>
<VTKFile type="PolyData" version="0.1" byte_order="LittleEndian">
  <PolyData>
    <Piece NumberOfPoints="     17" NumberOfVerts="  0" NumberOfLines="      0"
           NumberOfStrips="  0" NumberOfPolys="      0">
      <Points>
        <DataArray type="Float32" NumberOfComponents="3" format="ascii">
                       2.89568                      -3.32388                      90.40170
                       2.77637                      -6.92920                      90.67517
                       2.66517                     -10.53522                      90.94276
                       2.56542                     -14.14214                      91.20259
                       2.48005                     -17.75005                      91.45344
                       2.41223                     -21.35901                      91.69449
                       2.36563                     -24.96898                      91.92503
                       2.34458                     -28.57988                      92.14437
                       2.35407                     -32.19151                      92.35189
                       2.39955                     -35.80355                      92.54711
                       2.48641                     -39.41548                      92.72974
                       2.61932                     -43.02661                      92.89985
                       2.80128                     -46.63616                      93.05792
                       3.03253                     -50.24338                      93.20491
                       3.30912                     -53.84784                      93.34245
                       3.62137                     -57.44971                      93.47305
                       3.95206                     -61.05010                      93.60016
        </DataArray>
      </Points>
      <PointData>
        <DataArray type="Float32" Name="Force" NumberOfComponents="3" format="ascii">
                     220.02448                      -0.69892                      87.32051
                     698.52862                      -2.92708                     242.72596
                    2204.74125                    -142.44317                   -1077.36626
                    3616.56818                    -222.35639                   -1795.91052
                    2192.02087                    -118.23014                    -989.02252
                    4749.59968                    -217.73628                   -1949.12702
                    5752.53314                    -204.99223                   -2128.36564
                    6388.49866                    -153.65807                   -2129.83688
                    6866.88760                     -81.34215                   -2105.10195
                    8685.81971                      13.19089                   -2461.09005
                    9991.80762                     163.66606                   -2643.96260
                   11468.43475                     365.56969                   -2905.93459
                    6589.93344                     288.08144                   -1614.75971
                   13139.19594                     729.27542                   -3099.12237
                   12666.67951                     864.74152                   -2849.64026
                   17965.88597                    1408.70779                   -3797.08726
                    7448.66738                     616.58356                   -1434.63370
        </DataArray>
        <DataArray type="Float32" Name="Moment" NumberOfComponents="3" format="ascii">
                     -17.60616                      -2.47214                      27.20918
                     203.97783                     -47.48924                     386.66152
                    1247.37352                    -216.68160                    2236.65687
                    1316.07009                    -309.41394                    2871.47266
                      75.66446                    -154.29202                     238.77383
                   -1043.35808                    -217.41456                   -2272.60063
                    -696.48142                     328.89629                   -1602.94468
                    -168.60350                    1223.85997                    -239.19915
                      76.59680                    1410.83838                     531.23134
                     290.31134                    1437.91170                    1412.60856
                     907.89535                    1481.18475                    3819.18835
                    1735.74679                     995.06864                    7165.39825
                    -141.46272                     140.00241                    -491.85207
                   -2165.27127                    -205.77863                   -8941.62357
                   -1910.12975                    -222.21275                   -8288.63474
                    -447.72979                     232.69793                   -1354.83640
                     -85.04021                     249.67571                     212.55838
        </DataArray>
      </PointData>
    </Piece>
  </PolyData>
</VTKFile>
