<?xml version="1.0"?>
<VTKFile type="PolyData" version="0.1" byte_order="LittleEndian">
  <PolyData>
    <Piece NumberOfPoints="     19" NumberOfVerts="  0" NumberOfLines="     18"
           NumberOfStrips="  0" NumberOfPolys="      0">
      <Points>
        <DataArray type="Float32" NumberOfComponents="3" format="ascii">
                       2.81507                       0.52784                      88.77984
                       2.59839                       1.03989                      87.53135
                       2.14839                       2.15161                      85.07301
                       1.69370                       3.30535                      82.63255
                       1.12796                       4.77361                      79.59199
                       0.50809                       6.40574                      75.88054
                      -0.07556                       7.92028                      72.11523
                      -0.63875                       9.43532                      68.34701
                      -1.17359                      10.94957                      64.57433
                      -1.67388                      12.46506                      60.79743
                      -2.13782                      13.98488                      57.01767
                      -2.55291                      15.50778                      53.23348
                      -2.91281                      17.03308                      49.44462
                      -3.21418                      18.55985                      45.65125
                      -3.45660                      20.08713                      41.85386
                      -3.62073                      21.35965                      38.68702
                      -3.73362                      22.36998                      36.14957
                      -3.84493                      23.32931                      33.59114
                      -3.89910                      23.84752                      32.32773
        </DataArray>
      </Points>
      <PointData>
        <DataArray type="Float32" Name="Force" NumberOfComponents="3" format="ascii">
                      -0.04467                      -0.89593                      -0.35697
                      60.23389                     -14.07685                     -16.14103
                      77.38840                     -40.35114                     -29.69696
                      70.58368                     -57.84039                     -35.51620
                     674.51347                     261.51415                      -6.11276
                     865.16078                     284.92866                     -24.57194
                    1037.86820                     288.70970                     -45.44481
                    1362.86815                     327.26134                     -71.67344
                    1514.64429                     307.06296                     -90.20474
                    1762.63404                     309.11863                    -106.77426
                    2174.06749                     324.01543                    -128.15425
                    2487.66872                     315.58937                    -133.74622
                    2875.62191                     320.76880                    -127.94700
                    3127.30566                     292.13599                    -112.80436
                    3341.43495                     254.15834                     -95.70121
                    3462.71618                     213.31611                     -87.37639
                    3384.99225                     168.91482                     -86.78525
                    2476.76327                     106.40919                     -66.49607
                    1103.94951                     -43.58478                     -66.49248
        </DataArray>
        <DataArray type="Float32" Name="Moment" NumberOfComponents="3" format="ascii">
                       0.00000                       0.00000                       0.00000
                       0.00000                       0.00000                       0.00000
                       0.00000                       0.00000                       0.00000
                       0.00000                       0.00000                       0.00000
                      41.74908                    -101.83009                     250.34582
                      66.81485                    -167.37238                     411.70530
                      81.24173                    -210.49508                     518.12809
                     105.82532                    -286.25939                     705.20289
                     133.15958                    -380.89816                     939.30411
                     136.30475                    -419.47253                    1035.72348
                     127.73351                    -433.28157                    1071.45375
                     117.51079                    -451.88370                    1119.42027
                      90.63245                    -408.28974                    1013.37299
                      74.47645                    -406.71396                    1011.44004
                      58.25204                    -395.15387                     984.45725
                      46.91403                    -376.69617                     939.55152
                      38.08644                    -334.43800                     834.59777
                      18.34019                    -166.76563                     416.24900
                      15.34407                    -138.42063                     345.48439
        </DataArray>
        <DataArray type="Float32" Name="TranslationalVelocity" NumberOfComponents="3" format="ascii">
                      -0.47960                       1.34049                       0.48188
                      -0.40341                       2.51464                       0.95022
                      -0.24083                       4.82653                       1.96568
                      -0.07165                       7.11359                       3.01446
                       0.14624                       9.94717                       4.33959
                       0.39991                      13.37173                       5.79816
                       0.64822                      16.80770                       7.13613
                       0.90241                      20.20931                       8.46039
                       1.15982                      23.57709                       9.77066
                       1.41679                      26.91113                      11.06998
                       1.66960                      30.21481                      12.36354
                       1.91246                      33.48697                      13.65050
                       2.13973                      36.72992                      14.93177
                       2.34663                      39.94666                      16.20791
                       2.53042                      43.14099                      17.47938
                       2.66668                      45.78990                      18.53592
                       2.76510                      47.90540                      19.37354
                       2.85356                      50.03651                      20.16865
                       2.90077                      51.08870                      20.59824
        </DataArray>
        <DataArray type="Float32" Name="RotationalVelocity" NumberOfComponents="3" format="ascii">
                       0.92176                      -0.01336                      -0.11543
                       0.92044                      -0.01372                      -0.11534
                       0.91717                      -0.01458                      -0.11513
                       0.91316                      -0.01564                      -0.11487
                       0.90709                      -0.01726                      -0.11447
                       0.89880                      -0.01941                      -0.11391
                       0.88999                      -0.02141                      -0.11320
                       0.88107                      -0.02299                      -0.11230
                       0.87234                      -0.02388                      -0.11115
                       0.86399                      -0.02380                      -0.10966
                       0.85623                      -0.02241                      -0.10776
                       0.84915                      -0.01977                      -0.10546
                       0.84288                      -0.01599                      -0.10283
                       0.83756                      -0.01137                      -0.10003
                       0.83337                      -0.00645                      -0.09730
                       0.83097                      -0.00277                      -0.09538
                       0.82990                      -0.00057                      -0.09430
                       0.82948                       0.00087                      -0.09364
                       0.82952                       0.00127                      -0.09349
        </DataArray>
        <DataArray type="Float32" Name="TranslationalAcceleration" NumberOfComponents="3" format="ascii">
                      -0.64300                      -0.34217                       0.87982
                      -0.43766                      -0.78194                       1.94839
                      -0.03786                      -1.73962                       4.04603
                       0.34860                      -2.74269                       6.10390
                       0.80973                      -4.03511                       8.62313
                       1.34177                      -5.50889                      11.62759
                       1.83790                      -6.93145                      14.59573
                       2.27524                      -8.40251                      17.48250
                       2.64331                      -9.92134                      20.29077
                       2.93112                     -11.48766                      23.02374
                       3.13830                     -13.09643                      25.69173
                       3.24733                     -14.74608                      28.29273
                       3.25286                     -16.42977                      30.83223
                       3.15547                     -18.13956                      33.31640
                       2.96477                     -19.86704                      35.75280
                       2.75089                     -21.31451                      37.75501
                       2.55651                     -22.47081                      39.34684
                       2.36698                     -23.59675                      40.95826
                       2.26970                     -24.18384                      41.74589
        </DataArray>
        <DataArray type="Float32" Name="OrientationX" NumberOfComponents="3" format="ascii">
                       0.97044                       0.22945                      -0.07477
                       0.97051                       0.22930                      -0.07439
                       0.97070                       0.22885                      -0.07330
                       0.97095                       0.22825                      -0.07181
                       0.97137                       0.22724                      -0.06933
                       0.97730                       0.19690                      -0.07822
                       0.98124                       0.17413                      -0.08269
                       0.98449                       0.15349                      -0.08493
                       0.98760                       0.13121                      -0.08624
                       0.99045                       0.10766                      -0.08616
                       0.99291                       0.08437                      -0.08369
                       0.99499                       0.06054                      -0.07950
                       0.99658                       0.03800                      -0.07340
                       0.99768                       0.01949                      -0.06529
                       0.99830                       0.00165                      -0.05818
                       0.99843                      -0.01228                      -0.05464
                       0.99829                      -0.02174                      -0.05421
                       0.99816                      -0.02655                      -0.05460
                       0.99814                      -0.02642                      -0.05490
        </DataArray>
        <DataArray type="Float32" Name="OrientationY" NumberOfComponents="3" format="ascii">
                       0.18200                      -0.89931                      -0.39764
                       0.18200                      -0.89933                      -0.39760
                       0.18202                      -0.89937                      -0.39750
                       0.18204                      -0.89941                      -0.39739
                       0.18207                      -0.89949                      -0.39721
                       0.15102                      -0.90635                      -0.39461
                       0.12853                      -0.91072                      -0.39251
                       0.10883                      -0.91412                      -0.39056
                       0.08794                      -0.91724                      -0.38849
                       0.06638                      -0.91995                      -0.38638
                       0.04594                      -0.92203                      -0.38439
                       0.02563                      -0.92359                      -0.38252
                       0.00720                      -0.92458                      -0.38092
                      -0.00678                      -0.92504                      -0.37980
                      -0.02055                      -0.92524                      -0.37883
                      -0.03207                      -0.92520                      -0.37812
                      -0.04065                      -0.92506                      -0.37764
                      -0.04524                      -0.92495                      -0.37739
                      -0.04524                      -0.92495                      -0.37739
        </DataArray>
        <DataArray type="Float32" Name="OrientationZ" NumberOfComponents="3" format="ascii">
                      -0.15848                       0.37227                      -0.91449
                      -0.15807                       0.37233                      -0.91454
                      -0.15689                       0.37251                      -0.91467
                      -0.15529                       0.37277                      -0.91484
                      -0.15262                       0.37321                      -0.91511
                      -0.14860                       0.37384                      -0.91551
                      -0.14366                       0.37452                      -0.91602
                      -0.13758                       0.37526                      -0.91665
                      -0.13008                       0.37609                      -0.91741
                      -0.12086                       0.37697                      -0.91831
                      -0.10959                       0.37782                      -0.91937
                      -0.09658                       0.37856                      -0.92052
                      -0.08234                       0.37909                      -0.92169
                      -0.06780                       0.37936                      -0.92276
                      -0.05445                       0.37939                      -0.92363
                      -0.04591                       0.37928                      -0.92414
                      -0.04194                       0.37920                      -0.92436
                      -0.04048                       0.37916                      -0.92444
                      -0.04081                       0.37917                      -0.92443
        </DataArray>
      </PointData>
      <Lines>
        <DataArray type="Int32" Name="connectivity" format="ascii">
      0      1
      1      2
      2      3
      3      4
      4      5
      5      6
      6      7
      7      8
      8      9
      9     10
     10     11
     11     12
     12     13
     13     14
     14     15
     15     16
     16     17
     17     18
        </DataArray>
        <DataArray type="Int32" Name="offsets" format="ascii">
      2
      4
      6
      8
     10
     12
     14
     16
     18
     20
     22
     24
     26
     28
     30
     32
     34
     36
        </DataArray>
      </Lines>
    </Piece>
  </PolyData>
</VTKFile>
