<?xml version="1.0"?>
<VTKFile type="PolyData" version="0.1" byte_order="LittleEndian">
  <PolyData>
    <Piece NumberOfPoints="     19" NumberOfVerts="  0" NumberOfLines="     18"
           NumberOfStrips="  0" NumberOfPolys="      0">
      <Points>
        <DataArray type="Float32" NumberOfComponents="3" format="ascii">
                       3.00168                       3.26998                      90.49844
                       2.89771                       6.86429                      90.89536
                       2.80207                      10.45917                      91.28906
                       2.71790                      14.05477                      91.67885
                       2.64772                      17.65114                      92.06416
                       2.59424                      21.24832                      92.44458
                       2.56092                      24.84628                      92.81987
                       2.55220                      28.44491                      93.18990
                       2.57352                      32.04404                      93.55450
                       2.63105                      35.64334                      93.91331
                       2.73112                      39.24231                      94.26582
                       2.87951                      42.84028                      94.61136
                       3.08034                      46.43643                      94.94927
                       3.33481                      50.02995                      95.27918
                       3.63968                      53.62031                      95.60132
                       3.98542                      57.20763                      95.91689
                       4.35418                      60.79305                      96.22860
                       4.54151                      62.58551                      96.38394
                       3.05530                       1.47296                      90.29929
        </DataArray>
      </Points>
      <PointData>
        <DataArray type="Float32" Name="TranslationalVelocity" NumberOfComponents="3" format="ascii">
                       0.70591                      -0.33685                       3.07557
                       1.11969                      -0.69039                       6.38550
                       1.53375                      -1.04402                       9.71507
                       1.94866                      -1.39790                      13.06913
                       2.36537                      -1.75205                      16.45056
                       2.78456                      -2.10643                      19.86061
                       3.20589                      -2.46121                      23.29932
                       3.62772                      -2.81663                      26.76589
                       4.04716                      -3.17294                      30.25892
                       4.46013                      -3.53019                      33.77666
                       4.86171                      -3.88809                      37.31713
                       5.24657                      -4.24590                      40.87823
                       5.60969                      -4.60246                      44.45766
                       5.94717                      -4.95639                      48.05288
                       6.25729                      -5.30649                      51.66102
                       6.54173                      -5.65228                      55.27883
                       6.80697                      -5.99482                      58.90238
                       6.93595                      -6.16553                      60.71504
                       0.49904                      -0.16008                       1.42477
        </DataArray>
        <DataArray type="Float32" Name="RotationalVelocity" NumberOfComponents="3" format="ascii">
                       0.91827                       0.01207                      -0.11378
                       0.92279                       0.01221                      -0.11379
                       0.92894                       0.01241                      -0.11388
                       0.93612                       0.01266                      -0.11420
                       0.94384                       0.01296                      -0.11480
                       0.95172                       0.01328                      -0.11549
                       0.95950                       0.01356                      -0.11591
                       0.96700                       0.01377                      -0.11572
                       0.97413                       0.01386                      -0.11456
                       0.98085                       0.01379                      -0.11216
                       0.98716                       0.01356                      -0.10834
                       0.99305                       0.01316                      -0.10308
                       0.99847                       0.01260                      -0.09656
                       1.00331                       0.01193                      -0.08923
                       1.00735                       0.01123                      -0.08182
                       1.01024                       0.01061                      -0.07542
                       1.01146                       0.01020                      -0.07146
                       1.01158                       0.01008                      -0.07030
                       0.91650                       0.01201                      -0.11376
        </DataArray>
        <DataArray type="Float32" Name="TranslationalAcceleration" NumberOfComponents="3" format="ascii">
                       0.04744                      -2.73118                      -0.49748
                      -0.01385                      -5.78412                      -1.21540
                      -0.13052                      -8.88598                      -1.83182
                      -0.32231                     -12.04871                      -2.32222
                      -0.60323                     -15.27918                      -2.67121
                      -0.98226                     -18.58005                      -2.87025
                      -1.46542                     -21.95036                      -2.91675
                      -2.05625                     -25.38621                      -2.81250
                      -2.75540                     -28.88142                      -2.56195
                      -3.56058                     -32.42812                      -2.17114
                      -4.46644                     -36.01735                      -1.64718
                      -5.46421                     -39.63978                      -0.99797
                      -6.54138                     -43.28642                      -0.23272
                      -7.68133                     -46.94939                       0.63690
                      -8.86272                     -50.62277                       1.59509
                     -10.05902                     -54.30318                       2.61947
                     -11.23806                     -57.98963                       3.67797
                     -11.81888                     -59.83439                       4.21104
                       0.06703                      -1.21510                      -0.11688
        </DataArray>
        <DataArray type="Float32" Name="RotationalAcceleration" NumberOfComponents="3" format="ascii">
                      -0.12131                       0.04160                       0.01536
                      -0.09668                       0.04099                       0.02761
                      -0.06344                       0.03996                       0.04603
                      -0.02477                       0.03856                       0.06918
                       0.01720                       0.03693                       0.09534
                       0.06067                       0.03513                       0.12342
                       0.10412                       0.03318                       0.15285
                       0.14662                       0.03115                       0.18283
                       0.18753                       0.02909                       0.21254
                       0.22637                       0.02709                       0.24118
                       0.26274                       0.02523                       0.26789
                       0.29618                       0.02360                       0.29170
                       0.32608                       0.02230                       0.31157
                       0.35157                       0.02144                       0.32632
                       0.37148                       0.02112                       0.33458
                       0.38416                       0.02148                       0.33483
                       0.38741                       0.02262                       0.32543
                       0.38636                       0.02341                       0.31810
                      -0.13100                       0.04180                       0.01093
        </DataArray>
        <DataArray type="Float32" Name="OrientationX" NumberOfComponents="3" format="ascii">
                       0.99362                       0.01730                       0.11140
                       0.99367                       0.01560                       0.11122
                       0.99374                       0.01294                       0.11092
                       0.99518                       0.01103                       0.09740
                       0.99775                       0.01030                       0.06625
                       0.99881                       0.00726                       0.04818
                       0.99955                       0.00311                       0.02976
                       0.99995                      -0.00236                       0.01017
                       0.99991                      -0.00948                      -0.00983
                       0.99940                      -0.01849                      -0.02919
                       0.99840                      -0.02926                      -0.04842
                       0.99690                      -0.04158                      -0.06681
                       0.99512                      -0.05502                      -0.08191
                       0.99309                      -0.06842                      -0.09539
                       0.99084                      -0.08015                      -0.10870
                       0.98865                      -0.08829                      -0.12153
                       0.98740                      -0.09070                      -0.12970
                       0.98713                      -0.09017                      -0.13209
                       0.99361                       0.01785                       0.11146
        </DataArray>
        <DataArray type="Float32" Name="OrientationY" NumberOfComponents="3" format="ascii">
                       0.10877                       0.11270                      -0.98766
                       0.10880                       0.11174                      -0.98776
                       0.10883                       0.11043                      -0.98791
                       0.09563                       0.10874                      -0.98946
                       0.06478                       0.10676                      -0.99217
                       0.04716                       0.10492                      -0.99336
                       0.02928                       0.10316                      -0.99423
                       0.01036                       0.10154                      -0.99478
                      -0.00883                       0.10011                      -0.99494
                      -0.02722                       0.09893                      -0.99472
                      -0.04534                       0.09804                      -0.99415
                      -0.06250                       0.09745                      -0.99328
                      -0.07632                       0.09707                      -0.99235
                      -0.08855                       0.09693                      -0.99134
                      -0.10076                       0.09715                      -0.99016
                      -0.11282                       0.09773                      -0.98880
                      -0.12072                       0.09830                      -0.98781
                      -0.12314                       0.09852                      -0.98749
                       0.10876                       0.11308                      -0.98762
        </DataArray>
        <DataArray type="Float32" Name="OrientationZ" NumberOfComponents="3" format="ascii">
                      -0.02964                       0.99348                       0.11010
                      -0.02784                       0.99362                       0.10933
                      -0.02503                       0.99380                       0.10833
                      -0.02150                       0.99401                       0.10716
                      -0.01730                       0.99423                       0.10586
                      -0.01227                       0.99445                       0.10446
                      -0.00616                       0.99466                       0.10302
                       0.00132                       0.99483                       0.10156
                       0.01042                       0.99493                       0.10002
                       0.02128                       0.99492                       0.09837
                       0.03384                       0.99475                       0.09656
                       0.04781                       0.99437                       0.09455
                       0.06255                       0.99376                       0.09239
                       0.07707                       0.99294                       0.09020
                       0.08992                       0.99204                       0.08818
                       0.09918                       0.99129                       0.08666
                       0.10235                       0.99102                       0.08611
                       0.10206                       0.99104                       0.08615
                      -0.03024                       0.99343                       0.11041
        </DataArray>
      </PointData>
      <Lines>
        <DataArray type="Int32" Name="connectivity" format="ascii">
      0      1
      1      2
      2      3
      3      4
      4      5
      5      6
      6      7
      7      8
      8      9
      9     10
     10     11
     11     12
     12     13
     13     14
     14     15
     15     16
     16     17
     18      0
        </DataArray>
        <DataArray type="Int32" Name="offsets" format="ascii">
      2
      4
      6
      8
     10
     12
     14
     16
     18
     20
     22
     24
     26
     28
     30
     32
     34
     36
        </DataArray>
      </Lines>
    </Piece>
  </PolyData>
</VTKFile>
