<?xml version="1.0"?>
<VTKFile type="PolyData" version="0.1" byte_order="LittleEndian">
  <PolyData>
    <Piece NumberOfPoints="     19" NumberOfVerts="  0" NumberOfLines="     18"
           NumberOfStrips="  0" NumberOfPolys="      0">
      <Points>
        <DataArray type="Float32" NumberOfComponents="3" format="ascii">
                       2.67848                       0.85882                      88.94395
                       2.48622                       1.66141                      87.85456
                       2.08734                       3.34236                      85.73384
                       1.68493                       5.05833                      83.63905
                       1.18529                       7.22332                      81.03380
                       0.64147                       9.70364                      77.81155
                       0.13072                      12.07517                      74.50462
                      -0.35997                      14.44073                      71.19045
                      -0.82285                      16.79929                      67.86738
                      -1.25161                      19.15286                      64.53635
                      -1.64413                      21.50506                      61.20008
                      -1.98765                      23.85453                      57.85663
                      -2.27538                      26.20102                      54.50598
                      -2.50354                      28.54406                      51.14847
                      -2.67128                      30.88327                      47.78485
                      -2.77193                      32.82975                      44.97819
                      -2.83334                      34.37880                      42.72669
                      -2.89370                      35.88237                      40.44325
                      -2.92136                      36.66816                      39.32545
        </DataArray>
      </Points>
      <PointData>
        <DataArray type="Float32" Name="Force" NumberOfComponents="3" format="ascii">
                      -0.03645                      -0.41923                      -0.30094
                      63.45306                      -9.39874                     -18.03493
                      82.69709                     -32.85694                     -38.47435
                      74.36404                     -49.54657                     -49.08620
                     796.62187                     281.71479                      72.28682
                     986.22255                     302.67641                      60.79841
                    1167.83033                     303.94047                      39.37170
                    1511.95353                     338.49416                      22.18237
                    1671.93722                     315.26041                      -3.01370
                    1938.69730                     310.76773                     -21.23133
                    2384.98785                     316.94667                     -40.12356
                    2738.82229                     298.03493                     -49.31820
                    3168.69402                     287.32442                     -41.93652
                    3457.93920                     244.78743                     -32.00914
                    3693.44200                     192.12306                     -21.64669
                    3805.59931                     139.65013                     -22.64177
                    3681.78677                      89.57793                     -35.49038
                    2646.84422                      38.35687                     -38.77091
                    1242.83521                     -71.12167                     -82.73475
        </DataArray>
        <DataArray type="Float32" Name="Moment" NumberOfComponents="3" format="ascii">
                       0.00000                       0.00000                       0.00000
                       0.00000                       0.00000                       0.00000
                       0.00000                       0.00000                       0.00000
                       0.00000                       0.00000                       0.00000
                      45.88002                    -199.69322                     272.62929
                      59.07564                    -265.28435                     362.40393
                      72.20393                    -337.13361                     460.90474
                      93.51275                    -458.83965                     627.86858
                     115.78827                    -606.12839                     830.35376
                     119.45747                    -681.36583                     934.72016
                     111.22569                    -712.93682                     979.69765
                     100.62454                    -753.10825                    1036.94309
                      75.21793                    -690.46489                     952.75381
                      57.33815                    -685.93293                     948.60598
                      39.74516                    -660.88606                     915.84477
                      28.15333                    -626.30100                     869.06941
                      20.95180                    -555.53869                     771.36500
                       9.72753                    -279.24306                     387.82612
                       8.49643                    -241.19622                     334.97343
        </DataArray>
        <DataArray type="Float32" Name="TranslationalVelocity" NumberOfComponents="3" format="ascii">
                      -0.52509                       1.14636                       0.76234
                      -0.41864                       2.16968                       1.49747
                      -0.19874                       4.16430                       3.03710
                       0.02302                       6.13485                       4.60867
                       0.29902                       8.58432                       6.59116
                       0.61241                      11.60365                       8.86218
                       0.90677                      14.69456                      11.03311
                       1.19294                      17.78765                      13.19828
                       1.47428                      20.88424                      15.35670
                       1.75755                      23.98369                      17.51002
                       2.05045                      27.08406                      19.66131
                       2.36421                      30.18619                      21.80886
                       2.71040                      33.28930                      23.95217
                       3.09932                      36.39192                      26.09082
                       3.53745                      39.49214                      28.22488
                       3.93921                      42.07297                      30.00018
                       4.28199                      44.13985                      31.41270
                       4.63303                      46.23522                      32.78300
                       4.81368                      47.26061                      33.49928
        </DataArray>
        <DataArray type="Float32" Name="RotationalVelocity" NumberOfComponents="3" format="ascii">
                       0.91979                      -0.01589                      -0.11144
                       0.91970                      -0.01572                      -0.11130
                       0.91950                      -0.01530                      -0.11096
                       0.91924                      -0.01476                      -0.11051
                       0.91883                      -0.01384                      -0.10977
                       0.91826                      -0.01239                      -0.10860
                       0.91771                      -0.01084                      -0.10737
                       0.91724                      -0.00965                      -0.10641
                       0.91689                      -0.00934                      -0.10613
                       0.91666                      -0.01047                      -0.10691
                       0.91650                      -0.01370                      -0.10925
                       0.91631                      -0.01910                      -0.11317
                       0.91601                      -0.02656                      -0.11859
                       0.91555                      -0.03561                      -0.12515
                       0.91496                      -0.04531                      -0.13215
                       0.91442                      -0.05272                      -0.13749
                       0.91406                      -0.05729                      -0.14078
                       0.91379                      -0.06052                      -0.14310
                       0.91371                      -0.06153                      -0.14383
        </DataArray>
        <DataArray type="Float32" Name="TranslationalAcceleration" NumberOfComponents="3" format="ascii">
                       0.18612                      -1.07529                       0.79913
                       0.30600                      -1.81802                       1.69849
                       0.53176                      -3.34613                       3.46400
                       0.74101                      -4.83949                       5.26569
                       0.97984                      -6.61111                       7.61418
                       1.24620                      -8.44280                      10.66785
                       1.48594                      -9.92693                      13.96023
                       1.70002                     -11.14545                      17.43589
                       1.90761                     -12.09726                      21.08976
                       2.13613                     -12.79244                      24.91104
                       2.41097                     -13.27142                      28.87091
                       2.77212                     -13.52636                      32.97230
                       3.25568                     -13.58087                      37.19857
                       3.89065                     -13.46402                      41.53154
                       4.69114                     -13.21097                      45.95096
                       5.47582                     -12.92629                      49.68168
                       6.17084                     -12.65751                      52.68666
                       6.90072                     -12.31801                      55.69120
                       7.26764                     -12.19419                      57.19777
        </DataArray>
        <DataArray type="Float32" Name="OrientationX" NumberOfComponents="3" format="ascii">
                       0.97724                       0.21143                      -0.01719
                       0.97730                       0.21121                      -0.01688
                       0.97745                       0.21055                      -0.01599
                       0.97766                       0.20966                      -0.01477
                       0.97801                       0.20818                      -0.01274
                       0.98310                       0.18080                      -0.02876
                       0.98640                       0.15977                      -0.03868
                       0.98904                       0.14031                      -0.04590
                       0.99150                       0.11900                      -0.05254
                       0.99368                       0.09608                      -0.05804
                       0.99548                       0.07279                      -0.06101
                       0.99688                       0.04852                      -0.06230
                       0.99781                       0.02498                      -0.06131
                       0.99834                       0.00486                      -0.05733
                       0.99843                      -0.01443                      -0.05409
                       0.99815                      -0.02904                      -0.05346
                       0.99775                      -0.03852                      -0.05493
                       0.99748                      -0.04326                      -0.05619
                       0.99748                      -0.04313                      -0.05638
        </DataArray>
        <DataArray type="Float32" Name="OrientationY" NumberOfComponents="3" format="ascii">
                       0.15876                      -0.78270                      -0.60182
                       0.15880                      -0.78289                      -0.60156
                       0.15892                      -0.78336                      -0.60092
                       0.15905                      -0.78393                      -0.60013
                       0.15925                      -0.78481                      -0.59893
                       0.12824                      -0.79220                      -0.59663
                       0.10586                      -0.79737                      -0.59413
                       0.08628                      -0.80164                      -0.59154
                       0.06549                      -0.80562                      -0.58880
                       0.04401                      -0.80912                      -0.58599
                       0.02363                      -0.81194                      -0.58327
                       0.00333                      -0.81415                      -0.58064
                      -0.01511                      -0.81569                      -0.57829
                      -0.02913                      -0.81663                      -0.57642
                      -0.04295                      -0.81714                      -0.57484
                      -0.05451                      -0.81722                      -0.57374
                      -0.06310                      -0.81707                      -0.57307
                      -0.06770                      -0.81694                      -0.57273
                      -0.06770                      -0.81694                      -0.57274
        </DataArray>
        <DataArray type="Float32" Name="OrientationZ" NumberOfComponents="3" format="ascii">
                      -0.14070                       0.58539                      -0.79845
                      -0.14026                       0.58522                      -0.79865
                      -0.13905                       0.58483                      -0.79915
                      -0.13740                       0.58438                      -0.79977
                      -0.13469                       0.58373                      -0.80070
                      -0.13065                       0.58286                      -0.80200
                      -0.12577                       0.58196                      -0.80344
                      -0.11979                       0.58110                      -0.80497
                      -0.11240                       0.58036                      -0.80657
                      -0.10326                       0.57973                      -0.80824
                      -0.09199                       0.57919                      -0.80999
                      -0.07890                       0.57862                      -0.81177
                      -0.06445                       0.57795                      -0.81353
                      -0.04962                       0.57714                      -0.81514
                      -0.03590                       0.57626                      -0.81648
                      -0.02703                       0.57559                      -0.81729
                      -0.02281                       0.57525                      -0.81766
                      -0.02113                       0.57509                      -0.81781
                      -0.02136                       0.57511                      -0.81780
        </DataArray>
      </PointData>
      <Lines>
        <DataArray type="Int32" Name="connectivity" format="ascii">
      0      1
      1      2
      2      3
      3      4
      4      5
      5      6
      6      7
      7      8
      8      9
      9     10
     10     11
     11     12
     12     13
     13     14
     14     15
     15     16
     16     17
     17     18
        </DataArray>
        <DataArray type="Int32" Name="offsets" format="ascii">
      2
      4
      6
      8
     10
     12
     14
     16
     18
     20
     22
     24
     26
     28
     30
     32
     34
     36
        </DataArray>
      </Lines>
    </Piece>
  </PolyData>
</VTKFile>
