<?xml version="1.0"?>
<VTKFile type="PolyData" version="0.1" byte_order="LittleEndian">
  <PolyData>
    <Piece NumberOfPoints="     19" NumberOfVerts="  0" NumberOfLines="     18"
           NumberOfStrips="  0" NumberOfPolys="      0">
      <Points>
        <DataArray type="Float32" NumberOfComponents="3" format="ascii">
                       2.69166                       0.82983                      88.92514
                       2.49677                       1.60660                      87.81765
                       2.09247                       3.23721                      85.65900
                       1.68458                       4.90346                      83.52549
                       1.17811                       7.00665                      80.87141
                       0.62653                       9.41093                      77.59334
                       0.10849                      11.70473                      74.23317
                      -0.38930                      13.99259                      70.86596
                      -0.85917                      16.27345                      67.49006
                      -1.29495                      18.54933                      64.10639
                      -1.69472                      20.82389                      60.71757
                      -2.04598                      23.09575                      57.32171
                      -2.34221                      25.36466                      53.91879
                      -2.57987                      27.63020                      50.50917
                      -2.75827                      29.89201                      47.09357
                      -2.86867                      31.77408                      44.24368
                      -2.93839                      33.27156                      41.95780
                      -3.00725                      34.72286                      39.64103
                      -3.03927                      35.48307                      38.50580
        </DataArray>
      </Points>
      <PointData>
        <DataArray type="Float32" Name="Force" NumberOfComponents="3" format="ascii">
                      -0.03808                      -0.45869                      -0.31343
                      63.20708                      -9.84571                     -17.94105
                      82.41197                     -33.69827                     -37.81434
                      74.28386                     -50.59996                     -48.02759
                     788.04498                     282.05384                      64.39553
                     977.44192                     302.75060                      52.02716
                    1157.44119                     304.01481                      30.77608
                    1497.97806                     338.66047                      12.89716
                    1654.03912                     315.04205                     -11.51734
                    1914.84569                     310.49601                     -29.44938
                    2352.83192                     316.97820                     -48.58016
                    2698.85006                     298.91768                     -57.65834
                    3122.26347                     290.26559                     -50.77789
                    3408.79125                     250.63928                     -40.54648
                    3646.06787                     201.88229                     -29.28745
                    3763.64744                     152.89118                     -28.71622
                    3647.43930                     104.66113                     -39.52628
                    2623.99153                      50.39611                     -40.44508
                    1216.66052                     -67.02164                     -81.11665
        </DataArray>
        <DataArray type="Float32" Name="Moment" NumberOfComponents="3" format="ascii">
                       0.00000                       0.00000                       0.00000
                       0.00000                       0.00000                       0.00000
                       0.00000                       0.00000                       0.00000
                       0.00000                       0.00000                       0.00000
                      45.72087                    -189.93213                     272.39443
                      60.27142                    -258.28505                     370.65524
                      73.30493                    -326.56244                     468.98984
                      94.79794                    -443.59803                     637.65012
                     117.39134                    -585.52597                     842.60457
                     120.98299                    -656.39551                     945.87981
                     112.78052                    -685.49102                     989.45531
                     102.40235                    -722.90378                    1045.46676
                      77.11029                    -661.68704                     958.95432
                      59.59128                    -656.27024                     953.15596
                      42.31630                    -631.02647                     918.31283
                      30.87354                    -596.69524                     869.46230
                      23.55732                    -529.44398                     771.93467
                      11.07280                    -265.63466                     387.38872
                       9.63902                    -228.73621                     333.56514
        </DataArray>
        <DataArray type="Float32" Name="TranslationalVelocity" NumberOfComponents="3" format="ascii">
                      -0.52896                       1.17271                       0.74218
                      -0.42557                       2.21449                       1.45468
                      -0.21139                       4.24710                       2.94989
                       0.00517                       6.25471                       4.47615
                       0.27542                       8.74803                       6.39963
                       0.58278                      11.81243                       8.59406
                       0.87224                      14.93954                      10.68257
                       1.15458                      18.06195                      12.76087
                       1.43252                      21.18096                      14.82810
                       1.71184                      24.29613                      16.88620
                       1.99928                      27.40655                      18.93896
                       2.30455                      30.51283                      20.98464
                       2.63782                      33.61480                      23.02316
                       3.00820                      36.71177                      25.05454
                       3.42154                      39.80280                      27.07935
                       3.79811                      42.37407                      28.76249
                       4.11811                      44.43230                      30.10084
                       4.44504                      46.51726                      31.39703
                       4.61345                      47.53858                      32.07613
        </DataArray>
        <DataArray type="Float32" Name="RotationalVelocity" NumberOfComponents="3" format="ascii">
                       0.92137                      -0.01506                      -0.11193
                       0.92100                      -0.01495                      -0.11180
                       0.92009                      -0.01470                      -0.11146
                       0.91898                      -0.01436                      -0.11103
                       0.91727                      -0.01375                      -0.11030
                       0.91492                      -0.01271                      -0.10916
                       0.91248                      -0.01154                      -0.10792
                       0.91010                      -0.01063                      -0.10687
                       0.90789                      -0.01048                      -0.10637
                       0.90588                      -0.01156                      -0.10677
                       0.90408                      -0.01449                      -0.10850
                       0.90241                      -0.01933                      -0.11159
                       0.90082                      -0.02601                      -0.11597
                       0.89928                      -0.03412                      -0.12136
                       0.89785                      -0.04282                      -0.12718
                       0.89686                      -0.04949                      -0.13166
                       0.89630                      -0.05362                      -0.13444
                       0.89596                      -0.05657                      -0.13644
                       0.89589                      -0.05750                      -0.13708
        </DataArray>
        <DataArray type="Float32" Name="TranslationalAcceleration" NumberOfComponents="3" format="ascii">
                       0.12573                      -1.03066                       0.82769
                       0.24746                      -1.76288                       1.74071
                       0.47522                      -3.26961                       3.53337
                       0.67973                      -4.73772                       5.35974
                       0.89927                      -6.47048                       7.73442
                       1.11646                      -8.24349                      10.80866
                       1.27322                      -9.65572                      14.10751
                       1.37287                     -10.78820                      17.57675
                       1.44597                     -11.63786                      21.21038
                       1.54158                     -12.21258                      24.99662
                       1.71023                     -12.55317                      28.90711
                       2.02879                     -12.64923                      32.94196
                       2.57203                     -12.52588                      37.08397
                       3.40361                     -12.21592                      41.31575
                       4.56000                     -11.76001                      45.61971
                       5.76075                     -11.30317                      49.24616
                       6.86074                     -10.89685                      52.16330
                       8.03696                     -10.42182                      55.07443
                       8.63354                     -10.22936                      56.53610
        </DataArray>
        <DataArray type="Float32" Name="OrientationX" NumberOfComponents="3" format="ascii">
                       0.97664                       0.21370                      -0.02246
                       0.97670                       0.21348                      -0.02214
                       0.97686                       0.21284                      -0.02122
                       0.97707                       0.21197                      -0.01997
                       0.97743                       0.21052                      -0.01788
                       0.98260                       0.18276                      -0.03323
                       0.98595                       0.16150                      -0.04263
                       0.98865                       0.14186                      -0.04937
                       0.99117                       0.12041                      -0.05551
                       0.99341                       0.09739                      -0.06051
                       0.99526                       0.07410                      -0.06303
                       0.99671                       0.04989                      -0.06390
                       0.99769                       0.02651                      -0.06254
                       0.99828                       0.00663                      -0.05832
                       0.99842                      -0.01242                      -0.05487
                       0.99817                      -0.02689                      -0.05409
                       0.99780                      -0.03634                      -0.05546
                       0.99755                      -0.04105                      -0.05669
                       0.99754                      -0.04091                      -0.05690
        </DataArray>
        <DataArray type="Float32" Name="OrientationY" NumberOfComponents="3" format="ascii">
                       0.16073                      -0.79589                      -0.58371
                       0.16078                      -0.79607                      -0.58345
                       0.16089                      -0.79652                      -0.58281
                       0.16103                      -0.79707                      -0.58202
                       0.16123                      -0.79790                      -0.58082
                       0.13023                      -0.80531                      -0.57837
                       0.10786                      -0.81046                      -0.57577
                       0.08829                      -0.81471                      -0.57310
                       0.06751                      -0.81866                      -0.57030
                       0.04604                      -0.82214                      -0.56742
                       0.02566                      -0.82493                      -0.56465
                       0.00537                      -0.82713                      -0.56199
                      -0.01306                      -0.82866                      -0.55961
                      -0.02707                      -0.82958                      -0.55773
                      -0.04089                      -0.83009                      -0.55612
                      -0.05245                      -0.83018                      -0.55502
                      -0.06104                      -0.83005                      -0.55435
                      -0.06563                      -0.82992                      -0.55400
                      -0.06563                      -0.82992                      -0.55401
        </DataArray>
        <DataArray type="Float32" Name="OrientationZ" NumberOfComponents="3" format="ascii">
                      -0.14261                       0.56647                      -0.81165
                      -0.14218                       0.56630                      -0.81185
                      -0.14095                       0.56591                      -0.81233
                      -0.13928                       0.56546                      -0.81293
                      -0.13654                       0.56483                      -0.81383
                      -0.13246                       0.56398                      -0.81510
                      -0.12753                       0.56309                      -0.81650
                      -0.12152                       0.56224                      -0.81799
                      -0.11411                       0.56151                      -0.81956
                      -0.10501                       0.56089                      -0.82120
                      -0.09383                       0.56035                      -0.82292
                      -0.08089                       0.55979                      -0.82468
                      -0.06666                       0.55913                      -0.82640
                      -0.05208                       0.55834                      -0.82797
                      -0.03864                       0.55749                      -0.82929
                      -0.02998                       0.55685                      -0.83007
                      -0.02589                       0.55651                      -0.83044
                      -0.02430                       0.55637                      -0.83058
                      -0.02456                       0.55638                      -0.83056
        </DataArray>
      </PointData>
      <Lines>
        <DataArray type="Int32" Name="connectivity" format="ascii">
      0      1
      1      2
      2      3
      3      4
      4      5
      5      6
      6      7
      7      8
      8      9
      9     10
     10     11
     11     12
     12     13
     13     14
     14     15
     15     16
     16     17
     17     18
        </DataArray>
        <DataArray type="Int32" Name="offsets" format="ascii">
      2
      4
      6
      8
     10
     12
     14
     16
     18
     20
     22
     24
     26
     28
     30
     32
     34
     36
        </DataArray>
      </Lines>
    </Piece>
  </PolyData>
</VTKFile>
