<?xml version="1.0"?>
<VTKFile type="PolyData" version="0.1" byte_order="LittleEndian">
  <PolyData>
    <Piece NumberOfPoints="     19" NumberOfVerts="  0" NumberOfLines="     18"
           NumberOfStrips="  0" NumberOfPolys="      0">
      <Points>
        <DataArray type="Float32" NumberOfComponents="3" format="ascii">
                       3.24424                      -2.93220                      91.74484
                       3.31286                      -6.10403                      93.48328
                       3.38904                      -9.27736                      95.21865
                       3.47577                     -12.45269                      96.94985
                       3.57564                     -15.63031                      98.67615
                       3.69132                     -18.81033                     100.39700
                       3.82587                     -21.99285                     102.11186
                       3.98289                     -25.17789                     103.82009
                       4.16650                     -28.36540                     105.52105
                       4.38114                     -31.55515                     107.21412
                       4.63123                     -34.74676                     108.89879
                       4.92053                     -37.93964                     110.57474
                       5.25142                     -41.13308                     112.24192
                       5.62391                     -44.32633                     113.90070
                       6.03454                     -47.51879                     115.55205
                       6.47506                     -50.71023                     117.19774
                       6.93092                     -53.90101                     118.84059
                       7.16042                     -55.49633                     119.66172
                       3.21140                      -1.34659                      90.87501
        </DataArray>
      </Points>
      <PointData>
        <DataArray type="Float32" Name="TranslationalVelocity" NumberOfComponents="3" format="ascii">
                      -0.43357                      -1.52330                      -2.66430
                      -0.80842                      -3.13701                      -5.59376
                      -1.18061                      -4.74814                      -8.52357
                      -1.54917                      -6.35591                     -11.45406
                      -1.91337                      -7.95985                     -14.38538
                      -2.27255                      -9.55970                     -17.31767
                      -2.62616                     -11.15527                     -20.25106
                      -2.97363                     -12.74635                     -23.18576
                      -3.31443                     -14.33278                     -26.12189
                      -3.64806                     -15.91444                     -29.05948
                      -3.97409                     -17.49125                     -31.99839
                      -4.29228                     -19.06322                     -34.93828
                      -4.60263                     -20.63045                     -37.87869
                      -4.90558                     -22.19322                     -40.81906
                      -5.20215                     -23.75206                     -43.75889
                      -5.49420                     -25.30794                     -46.69790
                      -5.78460                     -26.86236                     -49.63622
                      -5.92982                     -27.63942                     -51.10527
                      -0.24560                      -0.71592                      -1.19963
        </DataArray>
        <DataArray type="Float32" Name="RotationalVelocity" NumberOfComponents="3" format="ascii">
                       0.92374                      -0.00064                      -0.11819
                       0.92345                      -0.00035                      -0.11764
                       0.92308                       0.00010                      -0.11680
                       0.92268                       0.00067                      -0.11576
                       0.92225                       0.00133                      -0.11455
                       0.92182                       0.00206                      -0.11319
                       0.92142                       0.00288                      -0.11169
                       0.92105                       0.00376                      -0.11006
                       0.92073                       0.00472                      -0.10831
                       0.92045                       0.00573                      -0.10645
                       0.92021                       0.00679                      -0.10452
                       0.92000                       0.00786                      -0.10256
                       0.91981                       0.00889                      -0.10068
                       0.91965                       0.00982                      -0.09897
                       0.91950                       0.01056                      -0.09762
                       0.91938                       0.01099                      -0.09683
                       0.91929                       0.01098                      -0.09686
                       0.91926                       0.01083                      -0.09711
                       0.92387                      -0.00075                      -0.11839
        </DataArray>
        <DataArray type="Float32" Name="TranslationalAcceleration" NumberOfComponents="3" format="ascii">
                      -1.42623                       2.72186                      -1.18581
                      -1.62330                       5.50081                      -2.62295
                      -1.85884                       8.25041                      -4.10663
                      -2.14541                      10.96394                      -5.64729
                      -2.49131                      13.63723                      -7.25108
                      -2.89478                      16.26715                      -8.92283
                      -3.34100                      18.85128                     -10.66736
                      -3.80019                      21.38777                     -12.49029
                      -4.22730                      23.87562                     -14.39861
                      -4.56419                      26.31540                     -16.40030
                      -4.74381                      28.71029                     -18.50357
                      -4.69658                      31.06681                     -20.71579
                      -4.35905                      33.39498                     -23.04205
                      -3.68463                      35.70729                     -25.48333
                      -2.65648                      38.01652                     -28.03348
                      -1.30240                      40.33230                     -30.67517
                       0.28788                      42.65689                     -33.37595
                       1.12641                      43.82108                     -34.73600
                      -1.33571                       1.32611                      -0.47718
        </DataArray>
        <DataArray type="Float32" Name="RotationalAcceleration" NumberOfComponents="3" format="ascii">
                      -0.02371                       0.00834                      -0.00208
                      -0.01032                       0.00424                      -0.01004
                       0.00772                      -0.00150                      -0.02117
                       0.02832                      -0.00886                      -0.03532
                       0.05067                      -0.01676                      -0.05053
                       0.07456                      -0.02361                      -0.06389
                       0.10000                      -0.02753                      -0.07195
                       0.12725                      -0.02640                      -0.07091
                       0.15646                      -0.01828                      -0.05717
                       0.18752                      -0.00161                      -0.02795
                       0.21993                       0.02442                       0.01830
                       0.25280                       0.05966                       0.08129
                       0.28494                       0.10263                       0.15839
                       0.31480                       0.15027                       0.24408
                       0.34025                       0.19767                       0.32951
                       0.35867                       0.23777                       0.40188
                       0.36711                       0.26103                       0.44395
                       0.36845                       0.26709                       0.45495
                      -0.02888                       0.01005                       0.00121
        </DataArray>
        <DataArray type="Float32" Name="OrientationX" NumberOfComponents="3" format="ascii">
                       0.94134                      -0.14712                      -0.30372
                       0.94130                      -0.14555                      -0.30457
                       0.94124                      -0.14310                      -0.30591
                       0.94556                      -0.13387                      -0.29664
                       0.95504                      -0.11582                      -0.27291
                       0.95994                      -0.10318                      -0.26050
                       0.96454                      -0.08960                      -0.24825
                       0.96900                      -0.07457                      -0.23554
                       0.97305                      -0.05835                      -0.22308
                       0.97643                      -0.04140                      -0.21181
                       0.97926                      -0.02356                      -0.20123
                       0.98142                      -0.00540                      -0.19179
                       0.98261                       0.01150                      -0.18533
                       0.98329                       0.02727                      -0.17998
                       0.98389                       0.04165                      -0.17384
                       0.98463                       0.05326                      -0.16635
                       0.98535                       0.05852                      -0.16016
                       0.98572                       0.05909                      -0.15771
                       0.94135                      -0.14764                      -0.30343
        </DataArray>
        <DataArray type="Float32" Name="OrientationY" NumberOfComponents="3" format="ascii">
                       0.33698                       0.45818                       0.82250
                       0.33698                       0.45805                       0.82258
                       0.33699                       0.45786                       0.82268
                       0.32444                       0.45949                       0.82681
                       0.29499                       0.46313                       0.83576
                       0.27808                       0.46483                       0.84060
                       0.26087                       0.46632                       0.84528
                       0.24259                       0.46764                       0.84998
                       0.22400                       0.46870                       0.85448
                       0.20615                       0.46942                       0.85857
                       0.18852                       0.46982                       0.86240
                       0.17179                       0.46990                       0.86584
                       0.15832                       0.46971                       0.86851
                       0.14638                       0.46935                       0.87080
                       0.13441                       0.46882                       0.87301
                       0.12252                       0.46818                       0.87510
                       0.11468                       0.46770                       0.87642
                       0.11225                       0.46756                       0.87681
                       0.33698                       0.45824                       0.82247
        </DataArray>
        <DataArray type="Float32" Name="OrientationZ" NumberOfComponents="3" format="ascii">
                       0.01815                      -0.87660                       0.48088
                       0.01978                      -0.87693                       0.48021
                       0.02234                      -0.87743                       0.47918
                       0.02561                      -0.87804                       0.47791
                       0.02960                      -0.87869                       0.47647
                       0.03436                      -0.87937                       0.47490
                       0.04002                      -0.88007                       0.47316
                       0.04676                      -0.88077                       0.47124
                       0.05470                      -0.88143                       0.46914
                       0.06388                      -0.88200                       0.46689
                       0.07422                      -0.88245                       0.46452
                       0.08545                      -0.88270                       0.46210
                       0.09704                      -0.88275                       0.45972
                       0.10822                      -0.88259                       0.45751
                       0.11786                      -0.88231                       0.45568
                       0.12449                      -0.88203                       0.45445
                       0.12619                      -0.88195                       0.45414
                       0.12555                      -0.88199                       0.45424
                       0.01761                      -0.87648                       0.48111
        </DataArray>
      </PointData>
      <Lines>
        <DataArray type="Int32" Name="connectivity" format="ascii">
      0      1
      1      2
      2      3
      3      4
      4      5
      5      6
      6      7
      7      8
      8      9
      9     10
     10     11
     11     12
     12     13
     13     14
     14     15
     15     16
     16     17
     18      0
        </DataArray>
        <DataArray type="Int32" Name="offsets" format="ascii">
      2
      4
      6
      8
     10
     12
     14
     16
     18
     20
     22
     24
     26
     28
     30
     32
     34
     36
        </DataArray>
      </Lines>
    </Piece>
  </PolyData>
</VTKFile>
