<?xml version="1.0"?>
<VTKFile type="PolyData" version="0.1" byte_order="LittleEndian">
  <PolyData>
    <Piece NumberOfPoints="     19" NumberOfVerts="  0" NumberOfLines="     18"
           NumberOfStrips="  0" NumberOfPolys="      0">
      <Points>
        <DataArray type="Float32" NumberOfComponents="3" format="ascii">
                       2.82052                      -1.24172                      89.29055
                       2.66846                      -2.37105                      88.53597
                       2.33285                      -4.57577                      86.95218
                       1.98251                      -6.75489                      85.33287
                       1.53606                      -9.46345                      83.28725
                       1.06765                     -12.79542                      80.94205
                       0.63704                     -16.20076                      78.69960
                       0.20574                     -19.60712                      76.45884
                      -0.22344                     -23.01563                      74.22087
                      -0.65127                     -26.42519                      71.98422
                      -1.07943                     -29.83378                      69.74616
                      -1.50665                     -33.24226                      67.50774
                      -1.93344                     -36.65065                      65.26910
                      -2.36053                     -40.05894                      63.03037
                      -2.78643                     -43.46716                      60.79129
                      -3.14073                     -46.30733                      58.92519
                      -3.42338                     -48.58383                      57.43878
                      -3.70189                     -50.89115                      55.99776
                      -3.84597                     -52.02135                      55.24312
        </DataArray>
      </Points>
      <PointData>
        <DataArray type="Float32" Name="Force" NumberOfComponents="3" format="ascii">
                       0.53374                      -3.00587                       4.41586
                      71.19065                     -21.34145                      17.82372
                      99.16881                     -45.77247                      48.98176
                      92.92424                     -55.75807                      65.27452
                     720.05619                     144.98881                    -362.24076
                     922.67132                     150.07394                    -409.99494
                    1077.65544                     138.02110                    -422.17392
                    1394.69143                     143.76932                    -492.97755
                    1516.58452                     119.74313                    -479.82016
                    1751.18881                     109.83165                    -509.70927
                    2155.08155                     101.53284                    -574.54148
                    2441.96544                      86.24027                    -605.11016
                    2862.55974                      84.60777                    -681.45181
                    3066.33262                      65.32661                    -688.77507
                    3215.32504                      42.61563                    -680.54415
                    3278.29434                      19.53479                    -656.32166
                    3181.98259                      -0.73660                    -606.90845
                    2259.55087                     -15.07314                    -409.16109
                    1411.24269                     -56.24261                    -185.29277
        </DataArray>
        <DataArray type="Float32" Name="Moment" NumberOfComponents="3" format="ascii">
                       0.00000                       0.00000                       0.00000
                       0.00000                       0.00000                       0.00000
                       0.00000                       0.00000                       0.00000
                       0.00000                       0.00000                       0.00000
                      24.77897                     186.31386                     123.82836
                      51.06491                     384.83243                     255.78229
                      65.61544                     495.87043                     329.60686
                      91.08836                     690.65824                     459.11954
                     123.02674                     936.41491                     622.54511
                     135.80644                    1038.22162                     690.30001
                     142.13088                    1091.92606                     726.09205
                     147.48645                    1139.06411                     757.53148
                     123.64922                     960.14046                     638.61979
                     120.32774                     939.18911                     624.75972
                     113.97237                     893.50279                     594.42933
                     107.45275                     844.49334                     561.85674
                      95.75757                     753.21403                     501.13673
                      49.31957                     387.88763                     258.07291
                      49.97049                     392.82378                     261.35425
        </DataArray>
        <DataArray type="Float32" Name="TranslationalVelocity" NumberOfComponents="3" format="ascii">
                      -0.12083                       0.78314                      -1.16871
                      -0.24588                       1.50508                      -2.22399
                      -0.48824                       3.02313                      -4.28569
                      -0.72239                       4.57906                      -6.32837
                      -1.00223                       6.55071                      -8.87655
                      -1.32741                       8.81545                     -12.02646
                      -1.63285                      10.98931                     -15.26565
                      -1.90383                      13.17158                     -18.52777
                      -2.13426                      15.36067                     -21.81468
                      -2.31774                      17.55740                     -25.12566
                      -2.45391                      19.76285                     -28.45627
                      -2.53293                      21.97577                     -31.80893
                      -2.55189                      24.19482                     -35.18229
                      -2.51141                      26.41860                     -38.57427
                      -2.41742                      28.64604                     -41.98172
                      -2.30797                      30.50410                     -44.82993
                      -2.20771                      31.98479                     -47.11652
                      -2.11210                      33.42060                     -49.43388
                      -2.06230                      34.17252                     -50.56953
        </DataArray>
        <DataArray type="Float32" Name="RotationalVelocity" NumberOfComponents="3" format="ascii">
                       0.93338                      -0.00212                      -0.11285
                       0.93409                      -0.00251                      -0.11241
                       0.93592                      -0.00360                      -0.11113
                       0.93824                      -0.00509                      -0.10936
                       0.94190                      -0.00760                      -0.10632
                       0.94704                      -0.01146                      -0.10153
                       0.95259                      -0.01618                      -0.09555
                       0.95835                      -0.02173                      -0.08836
                       0.96417                      -0.02809                      -0.07995
                       0.96992                      -0.03525                      -0.07033
                       0.97542                      -0.04318                      -0.05951
                       0.98055                      -0.05157                      -0.04792
                       0.98517                      -0.06004                      -0.03609
                       0.98913                      -0.06803                      -0.02487
                       0.99222                      -0.07473                      -0.01541
                       0.99391                      -0.07846                      -0.01013
                       0.99457                      -0.07966                      -0.00846
                       0.99470                      -0.07936                      -0.00893
                       0.99455                      -0.07860                      -0.01004
        </DataArray>
        <DataArray type="Float32" Name="TranslationalAcceleration" NumberOfComponents="3" format="ascii">
                       0.46383                       0.78693                       1.03790
                       0.56839                       1.69702                       1.84199
                       0.80129                       3.47923                       3.49048
                       1.10315                       5.29703                       5.09387
                       1.62412                       7.67039                       6.97656
                       2.50505                      10.78406                       8.89317
                       3.75352                      14.17451                      10.39629
                       5.45661                      17.77751                      11.55940
                       7.68344                      21.58988                      12.37493
                      10.49239                      25.59960                      12.84959
                      13.86064                      29.77191                      13.03216
                      17.87412                      34.10977                      12.90971
                      22.52834                      38.59201                      12.51161
                      27.77790                      43.19545                      11.87496
                      33.52333                      47.89751                      11.04805
                      38.56928                      51.87021                      10.25696
                      42.69112                      55.07212                       9.57293
                      46.75244                      58.27867                       8.81971
                      48.76520                      59.88274                       8.49451
        </DataArray>
        <DataArray type="Float32" Name="OrientationX" NumberOfComponents="3" format="ascii">
                       0.93946                       0.09370                      -0.32961
                       0.93946                       0.09373                      -0.32959
                       0.93947                       0.09379                      -0.32955
                       0.93948                       0.09389                      -0.32949
                       0.93950                       0.09404                      -0.32938
                       0.94940                       0.07657                      -0.30459
                       0.95595                       0.06403                      -0.28645
                       0.96127                       0.05313                      -0.27043
                       0.96647                       0.04162                      -0.25337
                       0.97137                       0.02979                      -0.23568
                       0.97559                       0.01865                      -0.21881
                       0.97936                       0.00762                      -0.20196
                       0.98243                      -0.00232                      -0.18659
                       0.98455                      -0.00976                      -0.17483
                       0.98643                      -0.01715                      -0.16327
                       0.98785                      -0.02343                      -0.15366
                       0.98880                      -0.02819                      -0.14655
                       0.98928                      -0.03079                      -0.14277
                       0.98927                      -0.03083                      -0.14280
        </DataArray>
        <DataArray type="Float32" Name="OrientationY" NumberOfComponents="3" format="ascii">
                       0.32438                      -0.55320                       0.76730
                       0.32438                      -0.55322                       0.76729
                       0.32438                      -0.55325                       0.76727
                       0.32437                      -0.55329                       0.76724
                       0.32436                      -0.55334                       0.76720
                       0.29422                      -0.55614                       0.77726
                       0.27229                      -0.55785                       0.78401
                       0.25302                      -0.55911                       0.78954
                       0.23255                      -0.56019                       0.79505
                       0.21139                      -0.56105                       0.80034
                       0.19128                      -0.56162                       0.80498
                       0.17126                      -0.56196                       0.80924
                       0.15305                      -0.56206                       0.81281
                       0.13921                      -0.56203                       0.81532
                       0.12556                      -0.56188                       0.81763
                       0.11414                      -0.56167                       0.81945
                       0.10563                      -0.56146                       0.82073
                       0.10107                      -0.56133                       0.82139
                       0.10107                      -0.56133                       0.82140
        </DataArray>
        <DataArray type="Float32" Name="OrientationZ" NumberOfComponents="3" format="ascii">
                      -0.11044                      -0.82776                      -0.55011
                      -0.11042                      -0.82775                      -0.55013
                      -0.11035                      -0.82772                      -0.55018
                      -0.11027                      -0.82768                      -0.55025
                      -0.11012                      -0.82763                      -0.55037
                      -0.10988                      -0.82755                      -0.55053
                      -0.10959                      -0.82747                      -0.55071
                      -0.10925                      -0.82739                      -0.55090
                      -0.10885                      -0.82732                      -0.55109
                      -0.10839                      -0.82724                      -0.55129
                      -0.10788                      -0.82718                      -0.55148
                      -0.10733                      -0.82713                      -0.55167
                      -0.10676                      -0.82709                      -0.55184
                      -0.10622                      -0.82706                      -0.55199
                      -0.10577                      -0.82704                      -0.55211
                      -0.10551                      -0.82703                      -0.55217
                      -0.10542                      -0.82702                      -0.55220
                      -0.10543                      -0.82702                      -0.55220
                      -0.10548                      -0.82702                      -0.55219
        </DataArray>
      </PointData>
      <Lines>
        <DataArray type="Int32" Name="connectivity" format="ascii">
      0      1
      1      2
      2      3
      3      4
      4      5
      5      6
      6      7
      7      8
      8      9
      9     10
     10     11
     11     12
     12     13
     13     14
     14     15
     15     16
     16     17
     17     18
        </DataArray>
        <DataArray type="Int32" Name="offsets" format="ascii">
      2
      4
      6
      8
     10
     12
     14
     16
     18
     20
     22
     24
     26
     28
     30
     32
     34
     36
        </DataArray>
      </Lines>
    </Piece>
  </PolyData>
</VTKFile>
