<?xml version="1.0"?>
<VTKFile type="PolyData" version="0.1" byte_order="LittleEndian">
  <PolyData>
    <Piece NumberOfPoints="     19" NumberOfVerts="  0" NumberOfLines="     18"
           NumberOfStrips="  0" NumberOfPolys="      0">
      <Points>
        <DataArray type="Float32" NumberOfComponents="3" format="ascii">
                       2.45695                      -1.21702                      89.21704
                       2.30170                      -2.29164                      88.38700
                       1.96158                      -4.38152                      86.65541
                       1.61052                      -6.44242                      84.88830
                       1.17048                      -8.99985                      82.65561
                       0.72083                     -12.15518                      80.07483
                       0.32507                     -15.38751                      77.58433
                      -0.04961                     -18.61725                      75.08718
                      -0.39476                     -21.84533                      72.58355
                      -0.70414                     -25.07031                      70.07119
                      -0.97626                     -28.29020                      67.54795
                      -1.19801                     -31.50522                      65.01353
                      -1.36283                     -34.71521                      62.46833
                      -1.46729                     -37.92009                      59.91343
                      -1.51113                     -41.11991                      57.35032
                      -1.50880                     -43.78321                      55.20987
                      -1.48705                     -45.91716                      53.50173
                      -1.45636                     -48.08541                      51.83560
                      -1.44524                     -49.14326                      50.97042
        </DataArray>
      </Points>
      <PointData>
        <DataArray type="Float32" Name="Force" NumberOfComponents="3" format="ascii">
                       0.44814                      -3.07497                       3.91982
                      71.36354                     -22.91872                      16.54314
                      99.81640                     -49.31436                      45.79240
                      93.30057                     -60.01289                      61.15083
                     754.48242                     176.85103                    -363.51793
                     995.16159                     202.38181                    -432.16561
                    1162.74856                     195.53642                    -441.47298
                    1502.03169                     217.05702                    -507.83263
                    1639.07548                     203.74276                    -489.31279
                    1905.76044                     216.47413                    -511.39945
                    2363.01396                     251.62935                    -565.61191
                    2727.27213                     285.91154                    -585.17239
                    3211.78353                     353.89682                    -632.10303
                    3544.19199                     404.72390                    -627.28933
                    3848.80142                     453.44598                    -611.53612
                    4038.86858                     476.96437                    -584.90021
                    3977.43411                     456.86283                    -533.28450
                    2913.67073                     323.27224                    -369.39877
                    1324.35903                      72.36080                     -73.83626
        </DataArray>
        <DataArray type="Float32" Name="Moment" NumberOfComponents="3" format="ascii">
                       0.00000                       0.00000                       0.00000
                       0.00000                       0.00000                       0.00000
                       0.00000                       0.00000                       0.00000
                       0.00000                       0.00000                       0.00000
                      23.30141                     171.24726                     131.67372
                      45.61987                     348.75587                     268.37163
                      57.83036                     465.30725                     358.40628
                      75.75897                     651.83378                     502.68033
                      93.49309                     879.88090                     679.54812
                      93.20152                     991.16119                     766.87709
                      81.92747                    1035.50425                     802.95166
                      67.84913                    1094.98718                     851.22355
                      42.80281                     990.13749                     771.83599
                      23.99111                     992.97430                     776.21205
                       6.50339                     969.61666                     759.88810
                      -4.09761                     927.95650                     728.41909
                      -7.89321                     827.53668                     650.07707
                      -4.72926                     417.39835                     327.97563
                      -3.82670                     353.23211                     277.53619
        </DataArray>
        <DataArray type="Float32" Name="TranslationalVelocity" NumberOfComponents="3" format="ascii">
                      -0.24072                       0.83820                      -1.10491
                      -0.35058                       1.62496                      -2.10296
                      -0.56371                       3.26847                      -4.04458
                      -0.77372                       4.94761                      -5.96091
                      -1.03421                       7.07156                      -8.34173
                      -1.35627                       9.52471                     -11.28347
                      -1.68643                      11.89288                     -14.30288
                      -2.01575                      14.26985                     -17.32614
                      -2.34509                      16.65439                     -20.35377
                      -2.67584                      19.04759                     -23.38374
                      -3.00952                      21.45047                     -26.41293
                      -3.34922                      23.86182                     -29.44116
                      -3.69799                      26.27991                     -32.46748
                      -4.05864                      28.70262                     -35.49117
                      -4.43294                      31.12771                     -38.51179
                      -4.75508                      33.14903                     -41.02692
                      -5.01955                      34.75995                     -43.04262
                      -5.29172                      36.33004                     -45.09079
                      -5.42528                      37.14590                     -46.09003
        </DataArray>
        <DataArray type="Float32" Name="RotationalVelocity" NumberOfComponents="3" format="ascii">
                       0.92779                      -0.00463                      -0.10579
                       0.92807                      -0.00465                      -0.10582
                       0.92876                      -0.00469                      -0.10590
                       0.92962                      -0.00474                      -0.10599
                       0.93093                      -0.00485                      -0.10609
                       0.93273                      -0.00506                      -0.10616
                       0.93464                      -0.00531                      -0.10618
                       0.93652                      -0.00552                      -0.10626
                       0.93828                      -0.00556                      -0.10654
                       0.93985                      -0.00532                      -0.10715
                       0.94116                      -0.00465                      -0.10827
                       0.94224                      -0.00352                      -0.10994
                       0.94308                      -0.00196                      -0.11213
                       0.94372                      -0.00006                      -0.11472
                       0.94416                       0.00199                      -0.11747
                       0.94437                       0.00357                      -0.11956
                       0.94443                       0.00455                      -0.12086
                       0.94442                       0.00526                      -0.12177
                       0.94438                       0.00548                      -0.12206
        </DataArray>
        <DataArray type="Float32" Name="TranslationalAcceleration" NumberOfComponents="3" format="ascii">
                       1.26008                       1.07010                       1.01442
                       1.31835                       1.99512                       1.76628
                       1.44193                       3.79424                       3.33399
                       1.57950                       5.57416                       4.92986
                       1.77761                       7.79473                       6.93798
                       2.05703                      10.55773                       9.23859
                       2.39545                      13.41515                      11.43512
                       2.80212                      16.29648                      13.61619
                       3.27096                      19.20166                      15.78382
                       3.78456                      22.12718                      17.94478
                       4.31558                      25.06642                      20.10749
                       4.83251                      28.01858                      22.27672
                       5.29474                      30.97967                      24.45678
                       5.66237                      33.94514                      26.64927
                       5.90375                      36.91012                      28.85299
                       6.00076                      39.37784                      30.69561
                       6.00901                      41.35322                      32.16698
                       5.96481                      43.35651                      33.60136
                       5.93758                      44.33484                      34.34894
        </DataArray>
        <DataArray type="Float32" Name="OrientationX" NumberOfComponents="3" format="ascii">
                       0.94233                       0.10796                      -0.31678
                       0.94239                       0.10832                      -0.31651
                       0.94253                       0.10934                      -0.31572
                       0.94273                       0.11073                      -0.31465
                       0.94305                       0.11304                      -0.31287
                       0.95307                       0.09709                      -0.28675
                       0.95991                       0.08725                      -0.26638
                       0.96562                       0.08009                      -0.24733
                       0.97127                       0.07334                      -0.22639
                       0.97668                       0.06755                      -0.20380
                       0.98145                       0.06409                      -0.18070
                       0.98572                       0.06205                      -0.15656
                       0.98916                       0.06212                      -0.13306
                       0.99148                       0.06514                      -0.11279
                       0.99335                       0.06724                      -0.09349
                       0.99463                       0.06683                      -0.07907
                       0.99546                       0.06456                      -0.06990
                       0.99588                       0.06276                      -0.06546
                       0.99588                       0.06246                      -0.06570
        </DataArray>
        <DataArray type="Float32" Name="OrientationY" NumberOfComponents="3" format="ascii">
                       0.31496                      -0.60616                       0.73032
                       0.31495                      -0.60625                       0.73025
                       0.31492                      -0.60647                       0.73008
                       0.31488                      -0.60674                       0.72987
                       0.31482                      -0.60715                       0.72956
                       0.28450                      -0.61106                       0.73869
                       0.26242                      -0.61378                       0.74459
                       0.24301                      -0.61605                       0.74929
                       0.22240                      -0.61825                       0.75386
                       0.20110                      -0.62033                       0.75812
                       0.18087                      -0.62217                       0.76170
                       0.16075                      -0.62390                       0.76479
                       0.14247                      -0.62545                       0.76715
                       0.12861                      -0.62668                       0.76859
                       0.11495                      -0.62788                       0.76978
                       0.10351                      -0.62882                       0.77063
                       0.09498                      -0.62948                       0.77119
                       0.09040                      -0.62981                       0.77147
                       0.09040                      -0.62981                       0.77147
        </DataArray>
        <DataArray type="Float32" Name="OrientationZ" NumberOfComponents="3" format="ascii">
                      -0.11317                      -0.78798                      -0.60521
                      -0.11278                      -0.78786                      -0.60544
                      -0.11165                      -0.78755                      -0.60605
                      -0.11009                      -0.78715                      -0.60686
                      -0.10749                      -0.78650                      -0.60816
                      -0.10350                      -0.78561                      -0.61001
                      -0.09853                      -0.78464                      -0.61207
                      -0.09236                      -0.78363                      -0.61433
                      -0.08468                      -0.78255                      -0.61680
                      -0.07521                      -0.78143                      -0.61945
                      -0.06361                      -0.78025                      -0.62222
                      -0.05022                      -0.77904                      -0.62496
                      -0.03556                      -0.77779                      -0.62752
                      -0.02062                      -0.77655                      -0.62972
                      -0.00694                      -0.77540                      -0.63143
                       0.00178                      -0.77467                      -0.63236
                       0.00579                      -0.77433                      -0.63275
                       0.00719                      -0.77421                      -0.63289
                       0.00680                      -0.77423                      -0.63286
        </DataArray>
      </PointData>
      <Lines>
        <DataArray type="Int32" Name="connectivity" format="ascii">
      0      1
      1      2
      2      3
      3      4
      4      5
      5      6
      6      7
      7      8
      8      9
      9     10
     10     11
     11     12
     12     13
     13     14
     14     15
     15     16
     16     17
     17     18
        </DataArray>
        <DataArray type="Int32" Name="offsets" format="ascii">
      2
      4
      6
      8
     10
     12
     14
     16
     18
     20
     22
     24
     26
     28
     30
     32
     34
     36
        </DataArray>
      </Lines>
    </Piece>
  </PolyData>
</VTKFile>
