<?xml version="1.0"?>
<VTKFile type="PolyData" version="0.1" byte_order="LittleEndian">
  <PolyData>
    <Piece NumberOfPoints="     19" NumberOfVerts="  0" NumberOfLines="     18"
           NumberOfStrips="  0" NumberOfPolys="      0">
      <Points>
        <DataArray type="Float32" NumberOfComponents="3" format="ascii">
                       3.16756                      -0.81212                      91.39801
                       3.25000                      -1.54066                      92.55141
                       3.38744                      -3.07770                      94.80981
                       3.51506                      -4.65365                      97.04442
                       3.67416                      -6.64847                      99.82203
                       3.94059                      -8.92611                     103.22230
                       4.25819                     -11.09906                     106.68445
                       4.59689                     -13.27492                     110.14280
                       4.96484                     -15.45247                     113.59713
                       5.36797                     -17.63341                     117.04542
                       5.80751                     -19.82013                     120.48560
                       6.29589                     -22.01140                     123.91631
                       6.83913                     -24.20624                     127.33650
                       7.44014                     -26.40342                     130.74555
                       8.09896                     -28.60166                     134.14327
                       8.68485                     -30.43354                     136.96741
                       9.17218                     -31.89212                     139.22730
                       9.66690                     -33.30448                     141.51611
                       9.91090                     -34.04565                     142.63809
        </DataArray>
      </Points>
      <PointData>
        <DataArray type="Float32" Name="Force" NumberOfComponents="3" format="ascii">
                       0.25415                       3.29984                       2.05383
                      70.11457                      22.48745                       9.05414
                      89.52320                      52.43252                      26.33434
                      81.31995                      68.41892                      36.83138
                     665.62059                    -247.08192                    -207.79764
                     865.13415                    -278.55801                    -247.69710
                     970.85603                    -250.99221                    -245.26036
                    1209.20019                    -254.86769                    -278.34661
                    1252.88049                    -204.46504                    -262.57379
                    1379.97759                    -175.66541                    -273.71595
                    1638.80296                    -147.65047                    -309.27336
                    1753.49556                    -100.80640                    -322.65219
                    1960.68053                     -69.67788                    -367.56462
                    1973.14554                     -13.55245                    -368.86899
                    1980.20199                      32.22307                    -373.08780
                    1923.94699                      64.07464                    -361.43365
                    2031.68476                      80.35351                    -383.18353
                    1751.49639                      53.59738                    -343.19877
                    1287.58547                      65.73200                    -234.84311
        </DataArray>
        <DataArray type="Float32" Name="Moment" NumberOfComponents="3" format="ascii">
                       0.00000                       0.00000                       0.00000
                       0.00000                       0.00000                       0.00000
                       0.00000                       0.00000                       0.00000
                       0.00000                       0.00000                       0.00000
                     -11.68109                      93.05508                    -148.06426
                     -28.75632                     215.71955                    -343.03383
                     -41.51159                     290.51351                    -461.62540
                     -64.06720                     414.23634                    -657.61726
                     -97.06963                     573.90347                    -910.06738
                    -120.94334                     647.44426                   -1025.26967
                    -146.61398                     704.02419                   -1112.99894
                    -175.11669                     752.06850                   -1186.66374
                    -163.57903                     630.02209                    -992.00195
                    -178.86256                     623.52768                    -979.67627
                    -187.52950                     601.59988                    -943.37285
                    -187.74827                     573.23920                    -897.77925
                    -171.56132                     512.48546                    -802.17047
                     -87.61062                     259.78236                    -406.54584
                     -78.62460                     233.65495                    -365.67942
        </DataArray>
        <DataArray type="Float32" Name="TranslationalVelocity" NumberOfComponents="3" format="ascii">
                       0.23133                      -1.20436                      -0.69744
                       0.15789                      -2.27946                      -1.37127
                       0.00207                      -4.38222                      -2.79294
                      -0.15644                      -6.46317                      -4.25156
                      -0.35352                      -9.05223                      -6.09996
                      -0.56881                     -12.23384                      -8.21480
                      -0.76134                     -15.48368                     -10.23744
                      -0.94218                     -18.73756                     -12.26752
                      -1.11005                     -21.99597                     -14.30422
                      -1.26468                     -25.25721                     -16.34928
                      -1.40784                     -28.51849                     -18.40443
                      -1.53878                     -31.77961                     -20.46909
                      -1.65893                     -35.03945                     -22.54222
                      -1.77044                     -38.29704                     -24.62232
                      -1.87628                     -41.55160                     -26.70749
                      -1.96275                     -44.26155                     -28.44737
                      -2.03166                     -46.43240                     -29.83358
                      -2.09778                     -48.63141                     -31.17617
                      -2.13566                     -49.70955                     -31.88010
        </DataArray>
        <DataArray type="Float32" Name="RotationalVelocity" NumberOfComponents="3" format="ascii">
                       0.92377                       0.00807                      -0.11400
                       0.92398                       0.00827                      -0.11389
                       0.92452                       0.00881                      -0.11359
                       0.92520                       0.00956                      -0.11317
                       0.92628                       0.01081                      -0.11246
                       0.92779                       0.01277                      -0.11134
                       0.92941                       0.01511                      -0.10998
                       0.93104                       0.01775                      -0.10845
                       0.93262                       0.02056                      -0.10679
                       0.93410                       0.02342                      -0.10510
                       0.93541                       0.02618                      -0.10346
                       0.93654                       0.02870                      -0.10197
                       0.93749                       0.03082                      -0.10070
                       0.93823                       0.03240                      -0.09976
                       0.93876                       0.03328                      -0.09925
                       0.93901                       0.03334                      -0.09923
                       0.93909                       0.03289                      -0.09951
                       0.93907                       0.03207                      -0.10003
                       0.93902                       0.03151                      -0.10038
        </DataArray>
        <DataArray type="Float32" Name="TranslationalAcceleration" NumberOfComponents="3" format="ascii">
                       0.18005                       0.93083                      -0.88866
                       0.08412                       1.59711                      -1.86142
                      -0.11275                       2.99650                      -3.76090
                      -0.33458                       4.42603                      -5.64245
                      -0.66451                       6.23086                      -7.98810
                      -1.15479                       8.29013                     -10.88274
                      -1.77062                      10.24883                     -13.84699
                      -2.54017                      12.20039                     -16.81331
                      -3.50843                      14.14664                     -19.77219
                      -4.73588                      16.09210                     -22.70766
                      -6.25615                      18.04042                     -25.60473
                      -8.17416                      19.98785                     -28.43918
                     -10.56060                      21.92636                     -31.18758
                     -13.46271                      23.84433                     -33.82896
                     -16.88251                      25.72968                     -36.35008
                     -20.07457                      27.27237                     -38.36557
                     -22.80731                      28.48270                     -39.93562
                     -25.60524                      29.64600                     -41.51777
                     -27.00869                      30.25876                     -42.28807
        </DataArray>
        <DataArray type="Float32" Name="OrientationX" NumberOfComponents="3" format="ascii">
                       0.95426                      -0.21755                      -0.20510
                       0.95423                      -0.21732                      -0.20547
                       0.95415                      -0.21664                      -0.20654
                       0.95404                      -0.21573                      -0.20800
                       0.95386                      -0.21420                      -0.21042
                       0.96242                      -0.18567                      -0.19820
                       0.96781                      -0.16382                      -0.19108
                       0.97193                      -0.14369                      -0.18631
                       0.97571                      -0.12179                      -0.18207
                       0.97895                      -0.09841                      -0.17883
                       0.98122                      -0.07489                      -0.17778
                       0.98271                      -0.05059                      -0.17811
                       0.98324                      -0.02726                      -0.18029
                       0.98272                      -0.00760                      -0.18492
                       0.98200                       0.01118                      -0.18854
                       0.98159                       0.02543                      -0.18930
                       0.98158                       0.03473                      -0.18786
                       0.98167                       0.03931                      -0.18647
                       0.98175                       0.03910                      -0.18614
        </DataArray>
        <DataArray type="Float32" Name="OrientationY" NumberOfComponents="3" format="ascii">
                       0.29277                       0.81910                       0.49332
                       0.29277                       0.81907                       0.49337
                       0.29278                       0.81900                       0.49347
                       0.29279                       0.81892                       0.49361
                       0.29280                       0.81880                       0.49380
                       0.26225                       0.82501                       0.50059
                       0.24008                       0.82884                       0.50535
                       0.22062                       0.83175                       0.50943
                       0.19999                       0.83439                       0.51361
                       0.17869                       0.83662                       0.51781
                       0.15851                       0.83827                       0.52171
                       0.13846                       0.83942                       0.52556
                       0.12030                       0.84001                       0.52906
                       0.10656                       0.84015                       0.53179
                       0.09306                       0.84003                       0.53450
                       0.08176                       0.83976                       0.53677
                       0.07335                       0.83947                       0.53844
                       0.06884                       0.83928                       0.53932
                       0.06883                       0.83928                       0.53932
        </DataArray>
        <DataArray type="Float32" Name="OrientationZ" NumberOfComponents="3" format="ascii">
                       0.06067                      -0.53080                       0.84532
                       0.06108                      -0.53094                       0.84520
                       0.06225                      -0.53132                       0.84488
                       0.06385                      -0.53182                       0.84445
                       0.06652                      -0.53263                       0.84373
                       0.07057                      -0.53375                       0.84269
                       0.07559                      -0.53496                       0.84149
                       0.08176                      -0.53623                       0.84010
                       0.08937                      -0.53755                       0.83848
                       0.09866                      -0.53886                       0.83659
                       0.10996                      -0.54009                       0.83439
                       0.12292                      -0.54113                       0.83191
                       0.13702                      -0.54188                       0.82921
                       0.15132                      -0.54231                       0.82644
                       0.16435                      -0.54242                       0.82387
                       0.17262                      -0.54236                       0.82222
                       0.17640                      -0.54230                       0.82146
                       0.17770                      -0.54228                       0.82119
                       0.17731                      -0.54229                       0.82127
        </DataArray>
      </PointData>
      <Lines>
        <DataArray type="Int32" Name="connectivity" format="ascii">
      0      1
      1      2
      2      3
      3      4
      4      5
      5      6
      6      7
      7      8
      8      9
      9     10
     10     11
     11     12
     12     13
     13     14
     14     15
     15     16
     16     17
     17     18
        </DataArray>
        <DataArray type="Int32" Name="offsets" format="ascii">
      2
      4
      6
      8
     10
     12
     14
     16
     18
     20
     22
     24
     26
     28
     30
     32
     34
     36
        </DataArray>
      </Lines>
    </Piece>
  </PolyData>
</VTKFile>
