<?xml version="1.0"?>
<VTKFile type="PolyData" version="0.1" byte_order="LittleEndian">
  <PolyData>
    <Piece NumberOfPoints="     17" NumberOfVerts="  0" NumberOfLines="      0"
           NumberOfStrips="  0" NumberOfPolys="      0">
      <Points>
        <DataArray type="Float32" NumberOfComponents="3" format="ascii">
                       2.72891                       3.14212                      89.12305
                       2.44044                       6.58014                      88.03485
                       2.15538                      10.01798                      86.94518
                       1.87503                      13.45562                      85.85368
                       1.60044                      16.89307                      84.76011
                       1.33258                      20.33033                      83.66427
                       1.07247                      23.76743                      82.56606
                       0.82126                      27.20440                      81.46541
                       0.58018                      30.64131                      80.36228
                       0.35054                      34.07818                      79.25660
                       0.13352                      37.51502                      78.14830
                      -0.06990                      40.95183                      77.03731
                      -0.25927                      44.38857                      75.92362
                      -0.43490                      47.82518                      74.80730
                      -0.59824                      51.26163                      73.68862
                      -0.75227                      54.69792                      72.56809
                      -0.90195                      58.13409                      71.44661
        </DataArray>
      </Points>
      <PointData>
        <DataArray type="Float32" Name="Force" NumberOfComponents="3" format="ascii">
                     153.85672                      -8.83914                     -68.91425
                     501.40202                     -33.71704                    -237.97731
                    2020.50956                     288.93207                     392.49767
                    3515.07369                     531.89124                     790.71501
                    2123.27352                     296.46818                     409.10000
                    4460.33698                     552.42621                     662.55183
                    5188.95663                     559.58128                     549.51970
                    5492.98710                     510.86084                     376.02289
                    5598.12340                     449.82537                     218.23217
                    6648.54180                     452.73280                      78.64597
                    7047.61220                     394.99089                     -92.95146
                    7425.67075                     336.15504                    -247.64096
                    3923.36229                     144.39946                    -195.10242
                    7059.81166                     194.56277                    -484.72787
                    5907.28617                      96.21210                    -550.66996
                    7513.57984                      37.22303                    -904.91229
                    3635.84638                       0.90656                    -483.26897
        </DataArray>
        <DataArray type="Float32" Name="Moment" NumberOfComponents="3" format="ascii">
                     -19.06033                      -2.42579                     -16.55535
                      67.37688                     -45.67149                    -361.23745
                     568.32698                    -263.24904                   -2121.42618
                     650.57989                     -69.24167                   -2955.65983
                      -5.51186                     291.36000                    -318.19972
                    -530.13641                    1035.53899                    1985.33488
                    -306.09325                     394.80557                    1449.64715
                     -83.72665                    -670.98481                     473.95667
                     -12.81374                   -1085.62683                     -43.72911
                      -9.73415                   -1360.75661                    -559.55576
                      -8.67005                   -1943.35066                   -2028.07043
                    -106.61969                   -2121.70093                   -3987.86545
                      12.06190                    -255.28885                     439.64484
                     252.75697                     745.37233                    5162.76575
                     325.68407                     355.84353                    4290.73488
                      26.78880                   -1366.34169                     896.36577
                     -72.98848                    -805.76366                    -485.28872
        </DataArray>
      </PointData>
    </Piece>
  </PolyData>
</VTKFile>
