<?xml version="1.0"?>
<VTKFile type="PolyData" version="0.1" byte_order="LittleEndian">
  <PolyData>
    <Piece NumberOfPoints="     19" NumberOfVerts="  0" NumberOfLines="     18"
           NumberOfStrips="  0" NumberOfPolys="      0">
      <Points>
        <DataArray type="Float32" NumberOfComponents="3" format="ascii">
                       2.89019                      -0.06300                      93.42660
                       3.15227                      -0.09744                      97.03458
                       3.42247                      -0.13135                     100.64196
                       3.70382                      -0.16480                     104.24849
                       3.99883                      -0.19781                     107.85393
                       4.31023                      -0.23042                     111.45799
                       4.64156                      -0.26286                     115.06027
                       4.99738                      -0.29555                     118.66020
                       5.38332                      -0.32891                     122.25701
                       5.80578                      -0.36330                     125.84969
                       6.27137                      -0.39890                     129.43700
                       6.78615                      -0.43567                     133.01756
                       7.35451                      -0.47333                     136.59000
                       7.97784                      -0.51154                     140.15328
                       8.65296                      -0.54987                     143.70717
                       9.37026                      -0.58798                     147.25286
                      10.11161                      -0.62579                     150.79368
                      10.48543                      -0.64464                     152.56344
                       2.76074                      -0.04563                      91.62250
        </DataArray>
      </Points>
      <PointData>
        <DataArray type="Float32" Name="TranslationalVelocity" NumberOfComponents="3" format="ascii">
                      -0.30564                      -3.13961                      -0.03770
                      -0.33603                      -6.52999                      -0.06786
                      -0.37269                      -9.91592                      -0.09694
                      -0.41831                     -13.29608                      -0.12472
                      -0.47522                     -16.66971                      -0.15094
                      -0.54539                     -20.03652                      -0.17532
                      -0.63016                     -23.39655                      -0.19776
                      -0.73025                     -26.75003                      -0.21829
                      -0.84568                     -30.09734                      -0.23692
                      -0.97574                     -33.43887                      -0.25358
                      -1.11901                     -36.77488                      -0.26806
                      -1.27337                     -40.10547                      -0.28005
                      -1.43611                     -43.43053                      -0.28924
                      -1.60397                     -46.74996                      -0.29553
                      -1.77336                     -50.06386                      -0.29921
                      -1.94045                     -53.37304                      -0.30114
                      -2.10136                     -56.67942                      -0.30294
                      -2.17979                     -58.33224                      -0.30406
                      -0.29166                      -1.44350                      -0.02238
        </DataArray>
        <DataArray type="Float32" Name="RotationalVelocity" NumberOfComponents="3" format="ascii">
                       0.93243                      -0.00671                      -0.10741
                       0.93135                      -0.00808                      -0.10734
                       0.92980                      -0.01023                      -0.10725
                       0.92794                      -0.01308                      -0.10715
                       0.92594                      -0.01654                      -0.10704
                       0.92391                      -0.02046                      -0.10693
                       0.92193                      -0.02467                      -0.10683
                       0.92005                      -0.02898                      -0.10674
                       0.91834                      -0.03319                      -0.10666
                       0.91681                      -0.03711                      -0.10659
                       0.91548                      -0.04054                      -0.10653
                       0.91436                      -0.04331                      -0.10648
                       0.91343                      -0.04526                      -0.10643
                       0.91268                      -0.04626                      -0.10639
                       0.91213                      -0.04622                      -0.10635
                       0.91179                      -0.04508                      -0.10631
                       0.91168                      -0.04284                      -0.10628
                       0.91169                      -0.04144                      -0.10627
                       0.93285                      -0.00623                      -0.10743
        </DataArray>
        <DataArray type="Float32" Name="TranslationalAcceleration" NumberOfComponents="3" format="ascii">
                       0.90238                       0.16640                      -2.87454
                       0.59411                       0.17441                      -6.03849
                       0.29928                       0.06630                      -9.19611
                       0.02805                      -0.18778                     -12.34614
                      -0.20754                      -0.60593                     -15.48855
                      -0.39849                      -1.19608                     -18.62417
                      -0.54420                      -1.95808                     -21.75391
                      -0.65469                      -2.88585                     -24.87829
                      -0.75075                      -3.96928                     -27.99698
                      -0.86319                      -5.19613                     -31.10813
                      -1.03064                      -6.55341                     -34.20770
                      -1.29595                      -8.02823                     -37.28897
                      -1.70119                      -9.60780                     -40.34276
                      -2.28143                     -11.27852                     -43.35865
                      -3.05716                     -13.02471                     -46.32787
                      -4.02550                     -14.82680                     -49.24774
                      -5.15043                     -16.65859                     -52.12731
                      -5.74513                     -17.57812                     -53.55907
                       1.05882                       0.13786                      -1.29122
        </DataArray>
        <DataArray type="Float32" Name="RotationalAcceleration" NumberOfComponents="3" format="ascii">
                      -0.00620                       0.01407                       0.01175
                       0.02081                       0.01644                       0.00985
                       0.05781                       0.02103                       0.00727
                       0.10138                       0.02889                       0.00424
                       0.14838                       0.04008                       0.00101
                       0.19628                       0.05292                      -0.00228
                       0.24318                       0.06450                      -0.00550
                       0.28767                       0.07183                      -0.00860
                       0.32886                       0.07196                      -0.01153
                       0.36631                       0.06226                      -0.01429
                       0.39990                       0.04094                      -0.01689
                       0.42970                       0.00739                      -0.01933
                       0.45569                      -0.03746                      -0.02162
                       0.47763                      -0.09074                      -0.02370
                       0.49497                      -0.14721                      -0.02548
                       0.50661                      -0.19899                      -0.02681
                       0.51063                      -0.23519                      -0.02745
                       0.51043                      -0.24784                      -0.02756
                      -0.01676                       0.01325                       0.01250
        </DataArray>
        <DataArray type="Float32" Name="OrientationX" NumberOfComponents="3" format="ascii">
                       0.97038                      -0.23067                      -0.07185
                       0.97025                      -0.23065                      -0.07352
                       0.97006                      -0.23063                      -0.07615
                       0.97278                      -0.21762                      -0.07958
                       0.97873                      -0.18724                      -0.08382
                       0.98147                      -0.16980                      -0.08879
                       0.98380                      -0.15208                      -0.09487
                       0.98578                      -0.13329                      -0.10238
                       0.98718                      -0.11418                      -0.11157
                       0.98782                      -0.09582                      -0.12258
                       0.98775                      -0.07768                      -0.13535
                       0.98690                      -0.06045                      -0.14958
                       0.98526                      -0.04654                      -0.16464
                       0.98317                      -0.03418                      -0.17948
                       0.98103                      -0.02182                      -0.19264
                       0.97931                      -0.00960                      -0.20214
                       0.97867                      -0.00160                      -0.20544
                       0.97872                       0.00085                      -0.20520
                       0.97042                      -0.23067                      -0.07130
        </DataArray>
        <DataArray type="Float32" Name="OrientationY" NumberOfComponents="3" format="ascii">
                       0.23076                       0.97299                      -0.00719
                       0.23071                       0.97299                      -0.00775
                       0.23066                       0.97300                      -0.00851
                       0.21766                       0.97599                      -0.00836
                       0.18734                       0.98227                      -0.00679
                       0.16993                       0.98544                      -0.00624
                       0.15225                       0.98833                      -0.00556
                       0.13352                       0.99104                      -0.00463
                       0.11451                       0.99342                      -0.00348
                       0.09628                       0.99535                      -0.00216
                       0.07832                       0.99693                      -0.00060
                       0.06132                       0.99812                       0.00115
                       0.04763                       0.99886                       0.00271
                       0.03553                       0.99936                       0.00430
                       0.02345                       0.99971                       0.00618
                       0.01152                       0.99990                       0.00832
                       0.00371                       0.99994                       0.00987
                       0.00130                       0.99995                       0.01037
                       0.23077                       0.97298                      -0.00697
        </DataArray>
        <DataArray type="Float32" Name="OrientationZ" NumberOfComponents="3" format="ascii">
                       0.07157                      -0.00960                       0.99739
                       0.07332                      -0.00944                       0.99726
                       0.07606                      -0.00931                       0.99706
                       0.07949                      -0.00919                       0.99679
                       0.08360                      -0.00906                       0.99646
                       0.08855                      -0.00896                       0.99603
                       0.09461                      -0.00897                       0.99547
                       0.10208                      -0.00910                       0.99473
                       0.11124                      -0.00934                       0.99375
                       0.12222                      -0.00967                       0.99246
                       0.13498                      -0.01001                       0.99080
                       0.14923                      -0.01031                       0.98875
                       0.16432                      -0.01051                       0.98635
                       0.17922                      -0.01060                       0.98375
                       0.19245                      -0.01058                       0.98125
                       0.20204                      -0.01047                       0.97932
                       0.20542                      -0.01042                       0.97862
                       0.20520                      -0.01042                       0.97867
                       0.07099                      -0.00969                       0.99743
        </DataArray>
      </PointData>
      <Lines>
        <DataArray type="Int32" Name="connectivity" format="ascii">
      0      1
      1      2
      2      3
      3      4
      4      5
      5      6
      6      7
      7      8
      8      9
      9     10
     10     11
     11     12
     12     13
     13     14
     14     15
     15     16
     16     17
     18      0
        </DataArray>
        <DataArray type="Int32" Name="offsets" format="ascii">
      2
      4
      6
      8
     10
     12
     14
     16
     18
     20
     22
     24
     26
     28
     30
     32
     34
     36
        </DataArray>
      </Lines>
    </Piece>
  </PolyData>
</VTKFile>
