<?xml version="1.0"?>
<VTKFile type="PolyData" version="0.1" byte_order="LittleEndian">
  <PolyData>
    <Piece NumberOfPoints="     17" NumberOfVerts="  0" NumberOfLines="      0"
           NumberOfStrips="  0" NumberOfPolys="      0">
      <Points>
        <DataArray type="Float32" NumberOfComponents="3" format="ascii">
                       2.44963                       1.75692                      87.39496
                       1.92891                       3.69960                      84.38793
                       1.41619                       5.64036                      81.37830
                       0.91443                       7.57891                      78.36540
                       0.42604                       9.51502                      75.34873
                      -0.04651                      11.44859                      72.32792
                      -0.50021                      13.37976                      69.30269
                      -0.93130                      15.30879                      66.27281
                      -1.33523                      17.23601                      63.23804
                      -1.70694                      19.16164                      60.19816
                      -2.04123                      21.08575                      57.15300
                      -2.33345                      23.00820                      54.10246
                      -2.58037                      24.92866                      51.04668
                      -2.78124                      26.84680                      47.98605
                      -2.93916                      28.76241                      44.92127
                      -3.06258                      30.67566                      41.85339
                      -3.16707                      32.58745                      38.78384
        </DataArray>
      </Points>
      <PointData>
        <DataArray type="Float32" Name="Force" NumberOfComponents="3" format="ascii">
                     153.05304                     -37.49827                     -50.89042
                     545.75879                    -130.48702                    -177.44371
                    2179.46547                     714.53140                      98.15848
                    3547.53164                    1146.69088                     162.42302
                    2152.97276                     620.64796                      58.84065
                    4706.97354                    1205.82046                      54.31576
                    5733.41895                    1274.12653                     -18.71393
                    6412.01415                    1218.53802                     -97.41924
                    6892.63444                    1126.83510                    -151.58612
                    8693.24568                    1208.94981                    -223.73339
                   10004.48425                    1169.37879                    -259.69873
                   11411.72514                    1132.11333                    -249.67533
                    6549.90287                     564.33734                    -119.40880
                   13078.06701                     952.58615                    -193.15782
                   12614.63756                     725.93983                    -144.24561
                   17831.45589                     725.10434                    -210.20587
                    7230.03807                     141.45725                    -153.15214
        </DataArray>
        <DataArray type="Float32" Name="Moment" NumberOfComponents="3" format="ascii">
                     -18.37485                     -16.04928                     -12.25489
                     101.66031                    -311.98159                    -269.31931
                     751.89414                   -1765.78570                   -1406.65735
                     686.84813                   -2091.10619                   -1922.10372
                      14.77764                     -90.75534                    -308.69484
                    -607.50017                    1978.15891                    1056.11821
                    -364.82605                    1194.35857                     937.08114
                     -36.36443                    -335.75201                     670.19091
                      81.34027                   -1052.15556                     353.62363
                     135.43247                   -1755.14859                    -229.61463
                     315.69587                   -3737.92659                   -1631.08261
                     482.86682                   -6236.65741                   -3762.23259
                     -40.66721                     349.85183                     203.56703
                    -537.97651                    7433.14877                    4610.10207
                    -408.80093                    6924.00824                    4223.40108
                    -196.55301                    1117.92130                     580.11970
                    -111.57168                    -228.92742                      23.91048
        </DataArray>
      </PointData>
    </Piece>
  </PolyData>
</VTKFile>
