<?xml version="1.0"?>
<VTKFile type="PolyData" version="0.1" byte_order="LittleEndian">
  <PolyData>
    <Piece NumberOfPoints="     17" NumberOfVerts="  0" NumberOfLines="      0"
           NumberOfStrips="  0" NumberOfPolys="      0">
      <Points>
        <DataArray type="Float32" NumberOfComponents="3" format="ascii">
                       2.59621                       0.57208                      86.94990
                       1.99563                       1.23888                      83.44533
                       1.40249                       1.90887                      79.94010
                       0.81974                       2.58305                      76.43393
                       0.24992                       3.26200                      72.92656
                      -0.30430                       3.94602                      69.41768
                      -0.83982                       4.63529                      65.90692
                      -1.35294                       5.32997                      62.39390
                      -1.83936                       6.03010                      58.87817
                      -2.29441                       6.73556                      55.35931
                      -2.71341                       7.44601                      51.83700
                      -3.09231                       8.16093                      48.31105
                      -3.42845                       8.87958                      44.78152
                      -3.72157                       9.60112                      41.24874
                      -3.97503                      10.32465                      37.71326
                      -4.19716                      11.04932                      34.17586
                      -4.40287                      11.77445                      30.63754
        </DataArray>
      </Points>
      <PointData>
        <DataArray type="Float32" Name="Force" NumberOfComponents="3" format="ascii">
                     137.30492                     -55.95208                     -34.22683
                     459.85160                    -191.51604                    -114.19816
                    1660.04330                     580.81584                    -166.15191
                    2813.75592                     987.94383                    -272.19941
                    1756.78849                     544.82014                    -177.56809
                    3929.78402                    1075.74780                    -407.78530
                    4927.67952                    1166.23372                    -516.24638
                    5644.34880                    1142.11031                    -585.64560
                    6253.24109                    1103.68998                    -625.03013
                    8138.42144                    1252.40931                    -767.17869
                    9645.38949                    1308.43653                    -830.99201
                   11341.41618                    1410.06991                    -858.92176
                    6619.06250                     769.80367                    -447.43211
                   13368.21045                    1441.78762                    -797.01917
                   13014.14062                    1272.78644                    -665.92779
                   18525.75989                    1558.30153                    -846.83684
                    7594.44016                     451.47591                    -360.50911
        </DataArray>
        <DataArray type="Float32" Name="Moment" NumberOfComponents="3" format="ascii">
                     -16.96786                     -16.91538                      -4.02176
                      80.91242                    -286.08228                    -112.88656
                     622.47947                   -1636.95106                    -579.97188
                     625.24580                   -2176.67142                    -759.44217
                      28.71742                    -182.19002                    -109.86878
                    -511.72946                    1776.28697                     473.47542
                    -285.09661                    1159.39191                     749.07731
                      63.93472                    -194.09595                    1142.91906
                     187.18273                    -917.53421                    1086.77513
                     262.92863                   -1759.98354                     833.46349
                     505.55267                   -4054.13441                     175.15073
                     775.95313                   -7202.96042                   -1148.03067
                     -49.56141                     425.94459                     145.73548
                    -881.66289                    8798.80148                    1901.08897
                    -769.09926                    8277.97683                    1697.44650
                    -256.34027                    1329.59242                     218.72242
                    -110.72017                    -213.01423                     132.48118
        </DataArray>
      </PointData>
    </Piece>
  </PolyData>
</VTKFile>
