<?xml version="1.0"?>
<VTKFile type="PolyData" version="0.1" byte_order="LittleEndian">
  <PolyData>
    <Piece NumberOfPoints="     17" NumberOfVerts="  0" NumberOfLines="      0"
           NumberOfStrips="  0" NumberOfPolys="      0">
      <Points>
        <DataArray type="Float32" NumberOfComponents="3" format="ascii">
                       3.16685                       3.09776                      91.24956
                       3.16528                       6.50841                      92.45574
                       3.17099                       9.91889                      93.66236
                       3.18677                      13.32912                      94.86960
                       3.21497                      16.73905                      96.07744
                       3.25815                      20.14867                      97.28573
                       3.31957                      23.55790                      98.49430
                       3.40340                      26.96664                      99.70288
                       3.51468                      30.37472                     100.91108
                       3.65912                      33.78191                     102.11825
                       3.84256                      37.18788                     103.32351
                       4.07028                      40.59222                     104.52581
                       4.34608                      43.99444                     105.72402
                       4.67101                      47.39409                     106.91725
                       5.04208                      50.79094                     108.10511
                       5.45054                      54.18525                     109.28811
                       5.88004                      57.57804                     110.46817
        </DataArray>
      </Points>
      <PointData>
        <DataArray type="Float32" Name="Force" NumberOfComponents="3" format="ascii">
                     152.26274                      23.60677                     -66.30501
                     487.97925                      81.54277                    -232.89115
                    1957.53715                    -150.44845                     402.51186
                    3428.46288                    -306.59049                     799.03939
                    2084.25071                    -167.25827                     413.07834
                    4422.87049                    -300.79140                     672.77613
                    5257.87043                    -305.28848                     562.97771
                    5781.05955                    -299.38705                     390.58699
                    6220.59320                    -314.23956                     235.33851
                    7943.17715                    -416.82428                      98.51038
                    9286.13612                    -541.13345                     -75.77034
                   10848.51377                    -740.73987                    -228.05425
                    6345.74015                    -485.85399                    -190.21449
                   12944.94757                   -1099.45681                    -506.09429
                   12875.65432                   -1212.05764                    -633.34426
                   18946.35942                   -1903.05263                   -1150.89374
                    7926.32761                    -781.88135                    -620.13742
        </DataArray>
        <DataArray type="Float32" Name="Moment" NumberOfComponents="3" format="ascii">
                     -19.40958                       9.19899                     -13.68973
                      66.78656                     170.30299                    -301.99228
                     564.81610                    1004.73522                   -1800.04622
                     666.51783                    1601.25644                   -2369.88974
                      21.88806                     372.85976                     -91.40556
                    -461.66414                    -447.10557                    2129.33420
                    -292.49474                    -720.10570                    1289.62622
                    -150.30336                   -1029.64586                    -231.10431
                    -105.47518                    -968.95474                    -999.97963
                    -107.46701                    -709.58686                   -1817.52789
                     -84.56936                     133.96584                   -3945.52100
                     -46.13067                    1816.57281                   -6765.99497
                     -17.63647                    -251.20573                     336.34929
                      23.59043                   -2989.59056                    8040.70624
                      86.52933                   -2753.22367                    7735.53809
                     -71.98138                    -252.51751                     916.89715
                    -137.96939                     -46.74018                    -166.64773
        </DataArray>
      </PointData>
    </Piece>
  </PolyData>
</VTKFile>
