<?xml version="1.0"?>
<VTKFile type="PolyData" version="0.1" byte_order="LittleEndian">
  <PolyData>
    <Piece NumberOfPoints="     19" NumberOfVerts="  0" NumberOfLines="     18"
           NumberOfStrips="  0" NumberOfPolys="      0">
      <Points>
        <DataArray type="Float32" NumberOfComponents="3" format="ascii">
                       3.22017                       1.21878                      90.97881
                       3.25618                       2.35794                      91.73307
                       3.31701                       4.58362                      93.32200
                       3.37559                       6.78510                      94.94815
                       3.45266                       9.52350                      97.00199
                       3.59526                      12.89168                      99.33931
                       3.76524                      16.33383                     101.56204
                       3.95366                      19.77920                     103.77823
                       4.16752                      23.22856                     105.98582
                       4.41215                      26.68045                     108.18609
                       4.68897                      30.13236                     110.38231
                       5.00875                      33.58475                     112.57177
                       5.37670                      37.03712                     114.75352
                       5.79531                      40.48895                     116.92681
                       6.26492                      43.93972                     119.09124
                       6.68886                      46.81449                     120.88893
                       7.04321                      49.11805                     122.31733
                       7.39501                      51.45149                     123.69919
                       7.57481                      52.59549                     124.42484
        </DataArray>
      </Points>
      <PointData>
        <DataArray type="Float32" Name="Force" NumberOfComponents="3" format="ascii">
                      -0.03685                       0.19097                      -0.28816
                      70.63741                      11.69858                     -21.19134
                      82.31306                      29.12242                     -48.39937
                      69.50845                      38.55118                     -62.29073
                     711.90397                    -125.68576                     149.59314
                     973.72846                    -169.90871                     194.93228
                    1095.76807                    -152.90292                     151.99477
                    1379.90430                    -162.76566                     132.10607
                    1487.87337                    -149.68048                      84.66217
                    1706.84886                    -157.00348                      48.92668
                    2103.06240                    -182.68494                       5.21250
                    2418.17275                    -209.58491                     -45.86004
                    2840.76746                    -263.68896                     -92.77025
                    3145.23045                    -309.22699                    -150.53704
                    3431.92533                    -355.91868                    -210.42703
                    3600.53637                    -378.76507                    -262.79258
                    3515.68886                    -362.74108                    -290.48827
                    2524.87880                    -249.46617                    -231.71922
                    1124.71669                     -50.75519                    -196.52318
        </DataArray>
        <DataArray type="Float32" Name="Moment" NumberOfComponents="3" format="ascii">
                       0.00000                       0.00000                       0.00000
                       0.00000                       0.00000                       0.00000
                       0.00000                       0.00000                       0.00000
                       0.00000                       0.00000                       0.00000
                      -6.81780                    -177.91191                    -117.03330
                     -13.51094                    -314.78313                    -206.88418
                     -21.47258                    -442.97606                    -290.82158
                     -34.17438                    -619.27689                    -406.03468
                     -53.09462                    -838.09249                    -548.62775
                     -68.36037                    -933.16798                    -609.68353
                     -83.28786                    -976.97665                    -636.80718
                    -101.24113                   -1022.64883                    -664.77884
                    -103.99558                    -912.32800                    -591.31509
                    -117.13691                    -906.32371                    -585.65528
                    -124.32563                    -868.07874                    -559.39031
                    -124.06776                    -815.44981                    -524.54521
                    -112.63255                    -720.69078                    -463.20926
                     -57.77199                    -366.17422                    -235.28132
                     -49.95756                    -317.37838                    -203.94289
        </DataArray>
        <DataArray type="Float32" Name="TranslationalVelocity" NumberOfComponents="3" format="ascii">
                       0.01043                      -0.80308                       1.17259
                       0.14480                      -1.50189                       2.22158
                       0.40735                      -2.97071                       4.26926
                       0.66722                      -4.46860                       6.28876
                       0.99068                      -6.35186                       8.79040
                       1.38838                      -8.48779                      11.84986
                       1.79361                     -10.50784                      14.95405
                       2.19716                     -12.50923                      18.03780
                       2.59913                     -14.49137                      21.10210
                       3.00008                     -16.45691                      24.14665
                       3.40105                     -18.41123                      27.17253
                       3.80398                     -20.35296                      30.17947
                       4.21120                     -22.28326                      33.16862
                       4.62498                     -24.20333                      36.14123
                       5.04709                     -26.11469                      39.09895
                       5.40555                     -27.70237                      41.55448
                       5.69715                     -28.96436                      43.51785
                       5.99528                     -30.18596                      45.50507
                       6.14217                     -30.82688                      46.47912
        </DataArray>
        <DataArray type="Float32" Name="RotationalVelocity" NumberOfComponents="3" format="ascii">
                       0.92183                      -0.00051                      -0.11826
                       0.92083                      -0.00047                      -0.11827
                       0.91837                      -0.00039                      -0.11828
                       0.91535                      -0.00029                      -0.11828
                       0.91077                      -0.00019                      -0.11822
                       0.90451                      -0.00015                      -0.11799
                       0.89791                      -0.00022                      -0.11755
                       0.89128                      -0.00036                      -0.11703
                       0.88486                      -0.00045                      -0.11658
                       0.87878                      -0.00043                      -0.11633
                       0.87319                      -0.00016                      -0.11646
                       0.86806                       0.00038                      -0.11704
                       0.86346                       0.00122                      -0.11810
                       0.85944                       0.00233                      -0.11959
                       0.85615                       0.00359                      -0.12134
                       0.85417                       0.00462                      -0.12281
                       0.85320                       0.00531                      -0.12381
                       0.85275                       0.00586                      -0.12463
                       0.85273                       0.00607                      -0.12494
        </DataArray>
        <DataArray type="Float32" Name="TranslationalAcceleration" NumberOfComponents="3" format="ascii">
                      -1.39687                      -0.76699                      -0.76337
                      -1.49288                      -1.69333                      -1.48998
                      -1.69847                      -3.49946                      -2.99391
                      -1.92326                      -5.29718                      -4.48696
                      -2.23489                      -7.55976                      -6.29913
                      -2.64968                     -10.38598                      -8.25749
                      -3.11723                     -13.31004                      -9.97666
                      -3.62696                     -16.27186                     -11.53742
                      -4.12018                     -19.27396                     -12.93941
                      -4.49906                     -22.31902                     -14.19258
                      -4.66741                     -25.40541                     -15.32839
                      -4.46101                     -28.54501                     -16.35666
                      -3.72627                     -31.74622                     -17.31303
                      -2.33394                     -35.01830                     -18.23978
                      -0.21413                     -38.36892                     -19.17961
                       2.07703                     -41.21809                     -19.99507
                       4.21589                     -43.53043                     -20.66993
                       6.52257                     -45.86193                     -21.32063
                       7.69223                     -47.02307                     -21.68173
        </DataArray>
        <DataArray type="Float32" Name="OrientationX" NumberOfComponents="3" format="ascii">
                       0.99173                      -0.09091                       0.09063
                       0.99172                      -0.09123                       0.09042
                       0.99169                      -0.09212                       0.08984
                       0.99165                      -0.09333                       0.08904
                       0.99157                      -0.09535                       0.08771
                       0.99495                      -0.08112                       0.05913
                       0.99667                      -0.07237                       0.03745
                       0.99766                      -0.06604                       0.01764
                       0.99818                      -0.06014                      -0.00383
                       0.99812                      -0.05517                      -0.02664
                       0.99741                      -0.05235                      -0.04942
                       0.99605                      -0.05087                      -0.07284
                       0.99414                      -0.05132                      -0.09519
                       0.99201                      -0.05440                      -0.11386
                       0.98967                      -0.05669                      -0.13171
                       0.98775                      -0.05667                      -0.14537
                       0.98648                      -0.05490                      -0.15439
                       0.98585                      -0.05343                      -0.15889
                       0.98589                      -0.05318                      -0.15873
        </DataArray>
        <DataArray type="Float32" Name="OrientationY" NumberOfComponents="3" format="ascii">
                       0.12565                       0.54296                      -0.83031
                       0.12564                       0.54277                      -0.83043
                       0.12563                       0.54230                      -0.83074
                       0.12561                       0.54172                      -0.83112
                       0.12558                       0.54083                      -0.83171
                       0.09383                       0.54244                      -0.83484
                       0.07087                       0.54294                      -0.83678
                       0.05077                       0.54305                      -0.83816
                       0.02951                       0.54315                      -0.83912
                       0.00762                       0.54323                      -0.83955
                      -0.01308                       0.54325                      -0.83947
                      -0.03360                       0.54331                      -0.83886
                      -0.05217                       0.54338                      -0.83787
                      -0.06625                       0.54338                      -0.83687
                      -0.08006                       0.54356                      -0.83554
                      -0.09156                       0.54388                      -0.83415
                      -0.10008                       0.54421                      -0.83296
                      -0.10463                       0.54440                      -0.83227
                      -0.10463                       0.54441                      -0.83227
        </DataArray>
        <DataArray type="Float32" Name="OrientationZ" NumberOfComponents="3" format="ascii">
                       0.02628                       0.83482                       0.54989
                       0.02668                       0.83491                       0.54973
                       0.02781                       0.83512                       0.54936
                       0.02934                       0.83536                       0.54891
                       0.03187                       0.83571                       0.54825
                       0.03565                       0.83617                       0.54731
                       0.04022                       0.83665                       0.54626
                       0.04577                       0.83710                       0.54513
                       0.05255                       0.83748                       0.54393
                       0.06079                       0.83777                       0.54263
                       0.07079                       0.83794                       0.54115
                       0.08225                       0.83799                       0.53945
                       0.09472                       0.83792                       0.53751
                       0.10739                       0.83772                       0.53543
                       0.11896                       0.83745                       0.53340
                       0.12634                       0.83725                       0.53203
                       0.12975                       0.83715                       0.53136
                       0.13097                       0.83712                       0.53111
                       0.13067                       0.83713                       0.53116
        </DataArray>
      </PointData>
      <Lines>
        <DataArray type="Int32" Name="connectivity" format="ascii">
      0      1
      1      2
      2      3
      3      4
      4      5
      5      6
      6      7
      7      8
      8      9
      9     10
     10     11
     11     12
     12     13
     13     14
     14     15
     15     16
     16     17
     17     18
        </DataArray>
        <DataArray type="Int32" Name="offsets" format="ascii">
      2
      4
      6
      8
     10
     12
     14
     16
     18
     20
     22
     24
     26
     28
     30
     32
     34
     36
        </DataArray>
      </Lines>
    </Piece>
  </PolyData>
</VTKFile>
