<?xml version="1.0"?>
<VTKFile type="PolyData" version="0.1" byte_order="LittleEndian">
  <PolyData>
    <Piece NumberOfPoints="     19" NumberOfVerts="  0" NumberOfLines="     18"
           NumberOfStrips="  0" NumberOfPolys="      0">
      <Points>
        <DataArray type="Float32" NumberOfComponents="3" format="ascii">
                       2.55220                       1.01870                      87.06153
                       1.97219                       2.17008                      83.68141
                       1.39954                       3.32374                      80.30080
                       0.83713                       4.48042                      76.91951
                       0.28741                       5.64058                      73.53733
                      -0.24698                       6.80443                      70.15396
                      -0.76279                       7.97220                      66.76907
                      -1.25600                       9.14411                      63.38224
                      -1.72177                      10.32030                      59.99303
                      -2.15471                      11.50075                      56.60095
                      -2.54933                      12.68521                      53.20562
                      -2.90070                      13.87320                      49.80677
                      -3.20536                      15.06398                      46.40440
                      -3.46245                      16.25673                      42.99877
                      -3.67512                      17.45058                      39.59043
                      -3.85207                      18.64481                      36.18012
                      -4.00939                      19.83904                      32.76881
                      -4.08568                      20.43615                      31.06304
                       2.84364                       0.44346                      88.75151
        </DataArray>
      </Points>
      <PointData>
        <DataArray type="Float32" Name="TranslationalVelocity" NumberOfComponents="3" format="ascii">
                      -0.34893                       2.94750                       0.94900
                      -0.17911                       6.11967                       2.00040
                      -0.00544                       9.27685                       3.04839
                       0.17307                      12.41529                       4.09231
                       0.35678                      15.53272                       5.13179
                       0.54552                      18.62800                       6.16673
                       0.73889                      21.70078                       7.19736
                       0.93635                      24.75134                       8.22416
                       1.13722                      27.78031                       9.24773
                       1.34066                      30.78853                      10.26863
                       1.54580                      33.77703                      11.28732
                       1.75170                      36.74690                      12.30408
                       1.95749                      39.69942                      13.31899
                       2.16238                      42.63619                      14.33205
                       2.36580                      45.55942                      15.34327
                       2.56742                      48.47234                      16.35286
                       2.76739                      51.37966                      17.36142
                       2.86700                      52.83261                      17.86557
                      -0.43304                       1.35823                       0.42254
        </DataArray>
        <DataArray type="Float32" Name="RotationalVelocity" NumberOfComponents="3" format="ascii">
                       0.92042                      -0.01032                      -0.11590
                       0.91681                      -0.01130                      -0.11561
                       0.91191                      -0.01267                      -0.11523
                       0.90620                      -0.01424                      -0.11478
                       0.90003                      -0.01583                      -0.11425
                       0.89368                      -0.01733                      -0.11366
                       0.88737                      -0.01871                      -0.11304
                       0.88125                      -0.01989                      -0.11238
                       0.87542                      -0.02086                      -0.11170
                       0.86993                      -0.02158                      -0.11100
                       0.86486                      -0.02204                      -0.11028
                       0.86025                      -0.02225                      -0.10955
                       0.85616                      -0.02223                      -0.10884
                       0.85269                      -0.02202                      -0.10816
                       0.84996                      -0.02168                      -0.10757
                       0.84816                      -0.02127                      -0.10713
                       0.84755                      -0.02092                      -0.10690
                       0.84757                      -0.02077                      -0.10685
                       0.92184                      -0.00993                      -0.11602
        </DataArray>
        <DataArray type="Float32" Name="TranslationalAcceleration" NumberOfComponents="3" format="ascii">
                      -0.59825                      -0.71165                       2.53420
                      -0.10969                      -1.74146                       5.41219
                       0.41699                      -2.84223                       8.22968
                       0.99562                      -4.03083                      10.97166
                       1.63562                      -5.31758                      13.62920
                       2.33444                      -6.70959                      16.19889
                       3.07368                      -8.21208                      18.68225
                       3.81655                      -9.82907                      21.08503
                       4.50738                     -11.56329                      23.41609
                       5.07403                     -13.41534                      25.68610
                       5.43312                     -15.38238                      27.90585
                       5.49778                     -17.45703                      30.08463
                       5.18839                     -19.62693                      32.22899
                       4.44613                     -21.87534                      34.34262
                       3.24956                     -24.18203                      36.42820
                       1.63413                     -26.52498                      38.49113
                      -0.28534                     -28.88328                      40.54360
                      -1.30103                     -30.06383                      41.56927
                      -0.83470                      -0.21181                       1.08237
        </DataArray>
        <DataArray type="Float32" Name="RotationalAcceleration" NumberOfComponents="3" format="ascii">
                      -0.00175                      -0.03709                       0.00891
                      -0.02149                      -0.04720                       0.00889
                      -0.04817                      -0.06151                       0.00864
                      -0.07897                      -0.07994                       0.00769
                      -0.11237                      -0.09981                       0.00671
                      -0.14734                      -0.11718                       0.00685
                      -0.18305                      -0.12740                       0.00955
                      -0.21894                      -0.12528                       0.01648
                      -0.25439                      -0.10599                       0.02918
                      -0.28864                      -0.06572                       0.04881
                      -0.32075                      -0.00245                       0.07589
                      -0.34967                       0.08343                       0.11011
                      -0.37447                       0.18835                       0.15009
                      -0.39439                       0.30485                       0.19318
                      -0.40864                       0.42098                       0.23515
                      -0.41663                       0.51953                       0.27006
                      -0.41827                       0.57728                       0.28999
                      -0.41754                       0.59265                       0.29509
                       0.00593                      -0.03291                       0.00900
        </DataArray>
        <DataArray type="Float32" Name="OrientationX" NumberOfComponents="3" format="ascii">
                       0.96881                       0.23158                      -0.08825
                       0.96907                       0.23105                      -0.08670
                       0.96948                       0.23022                      -0.08427
                       0.97242                       0.21691                      -0.08577
                       0.97798                       0.18696                      -0.09270
                       0.98110                       0.16899                      -0.09429
                       0.98405                       0.15044                      -0.09498
                       0.98690                       0.13048                      -0.09485
                       0.98955                       0.10978                      -0.09343
                       0.99190                       0.08931                      -0.09027
                       0.99396                       0.06860                      -0.08562
                       0.99566                       0.04837                      -0.07949
                       0.99695                       0.03108                      -0.07164
                       0.99786                       0.01535                      -0.06351
                       0.99838                       0.00011                      -0.05682
                       0.99849                      -0.01397                      -0.05318
                       0.99832                      -0.02233                      -0.05337
                       0.99821                      -0.02451                      -0.05456
                       0.96872                       0.23175                      -0.08876
        </DataArray>
        <DataArray type="Float32" Name="OrientationY" NumberOfComponents="3" format="ascii">
                       0.18830                      -0.91937                      -0.34541
                       0.18828                      -0.91933                      -0.34553
                       0.18825                      -0.91927                      -0.34569
                       0.17530                      -0.92219                      -0.34474
                       0.14504                      -0.92838                      -0.34217
                       0.12770                      -0.93145                      -0.34072
                       0.11008                      -0.93424                      -0.33922
                       0.09141                      -0.93683                      -0.33762
                       0.07246                      -0.93907                      -0.33600
                       0.05427                      -0.94084                      -0.33448
                       0.03634                      -0.94221                      -0.33305
                       0.01933                      -0.94316                      -0.33178
                       0.00564                      -0.94366                      -0.33087
                      -0.00649                      -0.94391                      -0.33015
                      -0.01865                      -0.94397                      -0.32951
                      -0.03072                      -0.94386                      -0.32891
                      -0.03867                      -0.94371                      -0.32851
                      -0.04112                      -0.94365                      -0.32838
                       0.18831                      -0.91938                      -0.34536
        </DataArray>
        <DataArray type="Float32" Name="OrientationZ" NumberOfComponents="3" format="ascii">
                      -0.16112                       0.31802                      -0.93429
                      -0.15954                       0.31852                      -0.93440
                      -0.15705                       0.31927                      -0.93456
                      -0.15388                       0.32019                      -0.93477
                      -0.15004                       0.32119                      -0.93505
                      -0.14540                       0.32224                      -0.93543
                      -0.13977                       0.32336                      -0.93590
                      -0.13291                       0.32453                      -0.93649
                      -0.12463                       0.32572                      -0.93722
                      -0.11481                       0.32687                      -0.93807
                      -0.10351                       0.32793                      -0.93902
                      -0.09102                       0.32880                      -0.94000
                      -0.07789                       0.32945                      -0.94095
                      -0.06501                       0.32986                      -0.94179
                      -0.05367                       0.33004                      -0.94244
                      -0.04560                       0.33004                      -0.94286
                      -0.04303                       0.33003                      -0.94299
                      -0.04344                       0.33004                      -0.94297
                      -0.16164                       0.31785                      -0.93426
        </DataArray>
      </PointData>
      <Lines>
        <DataArray type="Int32" Name="connectivity" format="ascii">
      0      1
      1      2
      2      3
      3      4
      4      5
      5      6
      6      7
      7      8
      8      9
      9     10
     10     11
     11     12
     12     13
     13     14
     14     15
     15     16
     16     17
     18      0
        </DataArray>
        <DataArray type="Int32" Name="offsets" format="ascii">
      2
      4
      6
      8
     10
     12
     14
     16
     18
     20
     22
     24
     26
     28
     30
     32
     34
     36
        </DataArray>
      </Lines>
    </Piece>
  </PolyData>
</VTKFile>
