<?xml version="1.0"?>
<VTKFile type="PolyData" version="0.1" byte_order="LittleEndian">
  <PolyData>
    <Piece NumberOfPoints="     17" NumberOfVerts="  0" NumberOfLines="      0"
           NumberOfStrips="  0" NumberOfPolys="      0">
      <Points>
        <DataArray type="Float32" NumberOfComponents="3" format="ascii">
                       3.25988                       2.21128                      92.57811
                       3.44048                       4.66746                      95.22800
                       3.62887                       7.12544                      97.87568
                       3.82796                       9.58553                     100.52060
                       4.04009                      12.04795                     103.16235
                       4.26774                      14.51276                     105.80057
                       4.51401                      16.97985                     108.43497
                       4.78292                      19.44890                     111.06531
                       5.07933                      21.91953                     113.69120
                       5.40870                      24.39127                     116.31209
                       5.77667                      26.86367                     118.92720
                       6.18833                      29.33627                     121.53558
                       6.64726                      31.80866                     124.13627
                       7.15444                      34.28045                     126.72858
                       7.70681                      36.75138                     129.31251
                       8.29573                      39.22148                     131.88923
                       8.90513                      41.69111                     134.46171
        </DataArray>
      </Points>
      <PointData>
        <DataArray type="Float32" Name="Force" NumberOfComponents="3" format="ascii">
                     183.42032                      48.42484                     -57.17160
                     579.23669                     162.63900                    -191.74301
                    2223.63042                    -505.05704                     301.09440
                    3832.94964                    -959.87998                     586.07390
                    2331.94847                    -530.28203                     296.54417
                    4983.87285                    -984.49220                     468.44284
                    5972.82682                   -1018.96597                     364.37697
                    6622.08573                    -988.74795                     206.33029
                    7073.87808                    -957.72226                      44.25034
                    8863.17328                   -1110.88765                    -152.48654
                   10104.61858                   -1204.54572                    -401.34466
                   11438.62999                   -1352.44656                    -679.08744
                    6506.82694                    -765.56785                    -485.71032
                   12832.92430                   -1491.75416                   -1166.05204
                   12162.42983                   -1376.88323                   -1340.67723
                   16782.23674                   -1763.56962                   -2203.09033
                    6828.19463                    -611.31389                   -1033.93160
        </DataArray>
        <DataArray type="Float32" Name="Moment" NumberOfComponents="3" format="ascii">
                     -20.23399                      18.36262                      -8.93250
                     100.87636                     322.61970                    -218.99794
                     740.66423                    1878.73254                   -1356.40563
                     895.56283                    2728.57482                   -1599.40200
                      56.40855                     419.95173                      89.89616
                    -584.46581                   -1454.36051                    1963.79996
                    -383.23757                   -1171.02355                    1087.43687
                    -191.28894                    -567.50854                    -452.83542
                    -113.03903                    -108.23048                   -1126.85516
                     -63.22458                     606.09300                   -1692.30215
                      68.92805                    2417.62525                   -3326.12617
                     227.70975                    5093.55226                   -5240.62285
                     -38.30517                    -336.32569                     259.51226
                    -287.31369                   -6390.00754                    5977.04293
                    -149.59111                   -5881.89592                    5429.19643
                    -238.97516                   -1253.04877                     745.80004
                    -161.94151                      50.25156                    -431.28455
        </DataArray>
      </PointData>
    </Piece>
  </PolyData>
</VTKFile>
