<?xml version="1.0"?>
<VTKFile type="PolyData" version="0.1" byte_order="LittleEndian">
  <PolyData>
    <Piece NumberOfPoints="     19" NumberOfVerts="  0" NumberOfLines="     18"
           NumberOfStrips="  0" NumberOfPolys="      0">
      <Points>
        <DataArray type="Float32" NumberOfComponents="3" format="ascii">
                       3.02821                       0.90117                      93.30476
                       3.28661                       1.90639                      96.77033
                       3.55412                       2.90929                     100.23586
                       3.83427                       3.90907                     103.70130
                       4.13007                       4.90526                     107.16647
                       4.44475                       5.89763                     110.63107
                       4.78229                       6.88588                     114.09469
                       5.14764                       7.86970                     117.55673
                       5.54671                       8.84880                     121.01638
                       5.98609                       9.82300                     124.47250
                       6.47249                      10.79226                     127.92369
                       7.01185                      11.75673                     131.36834
                       7.60829                      12.71676                     134.80482
                       8.26273                      13.67284                     138.23187
                       8.97122                      14.62565                     141.64915
                       9.72312                      15.57617                     145.05788
                      10.49891                      16.52556                     148.46164
                      10.88971                      17.00012                     150.16291
                       2.90078                       0.39810                      91.57198
        </DataArray>
      </Points>
      <PointData>
        <DataArray type="Float32" Name="TranslationalVelocity" NumberOfComponents="3" format="ascii">
                      -0.53161                      -2.96832                       0.81724
                      -0.46960                      -6.18876                       1.74673
                      -0.40921                      -9.40636                       2.67322
                      -0.35120                     -12.62044                       3.59579
                      -0.29629                     -15.83056                       4.51399
                      -0.24510                     -19.03653                       5.42763
                      -0.19800                     -22.23837                       6.33661
                      -0.15505                     -25.43623                       7.24083
                      -0.11606                     -28.63027                       8.14028
                      -0.08049                     -31.82056                       9.03503
                      -0.04754                     -35.00694                       9.92528
                      -0.01619                     -38.18903                      10.81132
                       0.01475                     -41.36626                      11.69353
                       0.04650                     -44.53810                      12.57232
                       0.08018                     -47.70440                      13.44813
                       0.11669                     -50.86584                      14.32159
                       0.15651                     -54.02445                      15.19348
                       0.17728                     -55.60340                      15.62914
                      -0.56292                      -1.35750                       0.35188
        </DataArray>
        <DataArray type="Float32" Name="RotationalVelocity" NumberOfComponents="3" format="ascii">
                       0.92156                      -0.01373                      -0.10955
                       0.92065                      -0.01399                      -0.10941
                       0.91939                      -0.01442                      -0.10919
                       0.91791                      -0.01502                      -0.10891
                       0.91632                      -0.01581                      -0.10856
                       0.91470                      -0.01672                      -0.10818
                       0.91310                      -0.01769                      -0.10778
                       0.91158                      -0.01864                      -0.10739
                       0.91016                      -0.01949                      -0.10704
                       0.90886                      -0.02017                      -0.10675
                       0.90768                      -0.02061                      -0.10654
                       0.90663                      -0.02076                      -0.10642
                       0.90571                      -0.02061                      -0.10639
                       0.90492                      -0.02015                      -0.10647
                       0.90430                      -0.01944                      -0.10663
                       0.90387                      -0.01855                      -0.10686
                       0.90370                      -0.01762                      -0.10712
                       0.90370                      -0.01717                      -0.10725
                       0.92192                      -0.01365                      -0.10960
        </DataArray>
        <DataArray type="Float32" Name="TranslationalAcceleration" NumberOfComponents="3" format="ascii">
                       0.41293                      -1.19041                      -2.50348
                       0.17475                      -2.18813                      -5.43936
                      -0.08490                      -3.07902                      -8.39761
                      -0.37801                      -3.83521                     -11.38321
                      -0.71765                      -4.43993                     -14.39828
                      -1.11842                      -4.88507                     -17.44257
                      -1.59493                      -5.16850                     -20.51410
                      -2.16136                      -5.29235                     -23.60942
                      -2.83154                      -5.26195                     -26.72352
                      -3.61802                      -5.08494                     -29.84996
                      -4.53085                      -4.77059                     -32.98106
                      -5.57605                      -4.32963                     -36.10830
                      -6.75372                      -3.77430                     -39.22329
                      -8.05573                      -3.11873                     -42.31923
                      -9.46321                      -2.38021                     -45.39299
                     -10.94369                      -1.58087                     -48.44749
                     -12.44749                      -0.74931                     -51.49397
                     -13.19782                      -0.32950                     -53.01718
                       0.52814                      -0.66908                      -1.04032
        </DataArray>
        <DataArray type="Float32" Name="RotationalAcceleration" NumberOfComponents="3" format="ascii">
                       0.05148                       0.03936                       0.00119
                       0.02671                       0.03555                       0.00410
                      -0.00727                       0.02865                       0.00858
                      -0.04713                       0.01864                       0.01439
                      -0.09009                       0.00486                       0.02153
                      -0.13410                      -0.01291                       0.02989
                      -0.17779                      -0.03449                       0.03935
                      -0.22006                      -0.05990                       0.04981
                      -0.26011                      -0.08897                       0.06117
                      -0.29740                      -0.12125                       0.07327
                      -0.33148                      -0.15591                       0.08582
                      -0.36198                      -0.19168                       0.09843
                      -0.38856                      -0.22669                       0.11054
                      -0.41078                      -0.25838                       0.12136
                      -0.42797                      -0.28350                       0.12991
                      -0.43919                      -0.29784                       0.13490
                      -0.44322                      -0.29619                       0.13471
                      -0.44325                      -0.29064                       0.13310
                       0.06110                       0.04045                       0.00017
        </DataArray>
        <DataArray type="Float32" Name="OrientationX" NumberOfComponents="3" format="ascii">
                       0.97777                      -0.20941                      -0.01111
                       0.97762                      -0.20997                      -0.01304
                       0.97739                      -0.21085                      -0.01608
                       0.97962                      -0.19946                      -0.02375
                       0.98447                      -0.17157                      -0.03724
                       0.98653                      -0.15641                      -0.04783
                       0.98816                      -0.14133                      -0.05964
                       0.98938                      -0.12563                      -0.07315
                       0.98998                      -0.11011                      -0.08837
                       0.98983                      -0.09584                      -0.10511
                       0.98894                      -0.08228                      -0.12343
                       0.98727                      -0.07000                      -0.14281
                       0.98491                      -0.06110                      -0.16192
                       0.98217                      -0.05360                      -0.18021
                       0.97942                      -0.04557                      -0.19664
                       0.97719                      -0.03654                      -0.20920
                       0.97632                      -0.02971                      -0.21430
                       0.97635                      -0.02722                      -0.21449
                       0.97781                      -0.20922                      -0.01047
        </DataArray>
        <DataArray type="Float32" Name="OrientationY" NumberOfComponents="3" format="ascii">
                       0.19752                       0.93744                      -0.28669
                       0.19752                       0.93747                      -0.28660
                       0.19753                       0.93750                      -0.28649
                       0.18452                       0.94027                      -0.28610
                       0.15409                       0.94605                      -0.28502
                       0.13669                       0.94899                      -0.28413
                       0.11903                       0.95169                      -0.28304
                       0.10034                       0.95426                      -0.28165
                       0.08140                       0.95655                      -0.27998
                       0.06327                       0.95847                      -0.27810
                       0.04544                       0.96010                      -0.27594
                       0.02859                       0.96143                      -0.27357
                       0.01508                       0.96235                      -0.27140
                       0.00316                       0.96306                      -0.26926
                      -0.00875                       0.96368                      -0.26691
                      -0.02055                       0.96419                      -0.26441
                      -0.02831                       0.96446                      -0.26270
                      -0.03071                       0.96453                      -0.26218
                       0.19751                       0.93743                      -0.28672
        </DataArray>
        <DataArray type="Float32" Name="OrientationZ" NumberOfComponents="3" format="ascii">
                       0.07045                       0.27812                       0.95796
                       0.07241                       0.27761                       0.95796
                       0.07548                       0.27684                       0.95795
                       0.07940                       0.27589                       0.95791
                       0.08413                       0.27486                       0.95780
                       0.08983                       0.27377                       0.95759
                       0.09676                       0.27259                       0.95725
                       0.10519                       0.27132                       0.95672
                       0.11536                       0.26999                       0.95593
                       0.12740                       0.26862                       0.95478
                       0.14121                       0.26728                       0.95322
                       0.15645                       0.26601                       0.95119
                       0.17240                       0.26486                       0.94875
                       0.18799                       0.26388                       0.94606
                       0.20166                       0.26313                       0.94345
                       0.21137                       0.26268                       0.94145
                       0.21448                       0.26255                       0.94078
                       0.21402                       0.26256                       0.94088
                       0.06980                       0.27829                       0.95796
        </DataArray>
      </PointData>
      <Lines>
        <DataArray type="Int32" Name="connectivity" format="ascii">
      0      1
      1      2
      2      3
      3      4
      4      5
      5      6
      6      7
      7      8
      8      9
      9     10
     10     11
     11     12
     12     13
     13     14
     14     15
     15     16
     16     17
     18      0
        </DataArray>
        <DataArray type="Int32" Name="offsets" format="ascii">
      2
      4
      6
      8
     10
     12
     14
     16
     18
     20
     22
     24
     26
     28
     30
     32
     34
     36
        </DataArray>
      </Lines>
    </Piece>
  </PolyData>
</VTKFile>
