<?xml version="1.0"?>
<VTKFile type="PolyData" version="0.1" byte_order="LittleEndian">
  <PolyData>
    <Piece NumberOfPoints="     17" NumberOfVerts="  0" NumberOfLines="      0"
           NumberOfStrips="  0" NumberOfPolys="      0">
      <Points>
        <DataArray type="Float32" NumberOfComponents="3" format="ascii">
                       2.51495                       1.30927                      87.16836
                       1.95454                       2.77227                      83.90754
                       1.40191                       4.23584                      80.64565
                       0.86005                       5.70028                      77.38235
                       0.33144                       7.16578                      74.11735
                      -0.18132                       8.63242                      70.85035
                      -0.67508                      10.10039                      67.58102
                      -1.14597                      11.56993                      64.30903
                      -1.58940                      13.04123                      61.03400
                      -2.00023                      14.51435                      57.75555
                      -2.37328                      15.98918                      54.47337
                      -2.70391                      17.46535                      51.18726
                      -2.98896                      18.94233                      47.89724
                      -3.22777                      20.41947                      44.60360
                      -3.42356                      21.89622                      41.30690
                      -3.58493                      23.37222                      38.00795
                      -3.72761                      24.84763                      34.70784
        </DataArray>
      </Points>
      <PointData>
        <DataArray type="Float32" Name="Force" NumberOfComponents="3" format="ascii">
                     147.45270                     -45.01306                     -45.64225
                     511.74360                    -155.17310                    -156.36591
                    1959.30507                     669.16833                     -25.80680
                    3233.76661                    1092.12927                     -37.16820
                    1982.59892                     594.70172                     -48.89907
                    4366.70120                    1163.31911                    -153.51245
                    5362.07300                    1241.60346                    -237.00129
                    6023.25009                    1197.25890                    -305.24058
                    6493.17375                    1121.72295                    -342.37765
                    8200.22241                    1222.58957                    -427.89362
                    9422.70982                    1205.47835                    -457.88962
                   10734.30690                    1196.80790                    -446.69283
                    6152.13860                     609.46038                    -221.67839
                   12271.01311                    1056.13453                    -377.01455
                   11849.83763                     841.43468                    -300.00207
                   16875.53596                     919.57260                    -389.54191
                    6913.20630                     240.86476                    -194.61895
        </DataArray>
        <DataArray type="Float32" Name="Moment" NumberOfComponents="3" format="ascii">
                     -17.60045                     -16.82367                      -8.95022
                      91.87535                    -308.03633                    -201.40005
                     690.68118                   -1747.53054                   -1042.12812
                     650.73893                   -2191.76171                   -1406.75468
                      21.29597                    -148.85396                    -213.92959
                    -557.94847                    1901.81300                     815.72152
                    -329.13673                    1177.77010                     842.32982
                      -2.45573                    -273.98322                     826.42005
                     110.57008                    -961.80924                     595.66553
                     164.46562                   -1670.92975                     125.81387
                     355.43568                   -3681.39592                    -937.94796
                     541.80106                   -6273.18144                   -2627.54804
                     -43.14460                     366.05639                     187.59040
                    -604.03603                    7517.14735                    3442.69773
                    -471.04433                    6971.95936                    3164.65643
                    -180.83925                    1020.97504                     507.31654
                     -93.67633                    -195.24530                      80.60328
        </DataArray>
      </PointData>
    </Piece>
  </PolyData>
</VTKFile>
