<?xml version="1.0"?>
<VTKFile type="PolyData" version="0.1" byte_order="LittleEndian">
  <PolyData>
    <Piece NumberOfPoints="     19" NumberOfVerts="  0" NumberOfLines="     18"
           NumberOfStrips="  0" NumberOfPolys="      0">
      <Points>
        <DataArray type="Float32" NumberOfComponents="3" format="ascii">
                       2.58039                      -1.46065                      87.19823
                       2.03014                      -3.03809                      83.98945
                       1.49021                      -4.61292                      80.77764
                       0.96467                      -6.18423                      77.56173
                       0.45698                      -7.75150                      74.34098
                      -0.02916                      -9.31444                      71.11483
                      -0.48941                     -10.87278                      67.88266
                      -0.91850                     -12.42617                      64.64384
                      -1.31023                     -13.97432                      61.39781
                      -1.65777                     -15.51701                      58.14417
                      -1.95423                     -17.05412                      54.88286
                      -2.19351                     -18.58566                      51.61425
                      -2.37149                     -20.11181                      48.33920
                      -2.48748                     -21.63292                      45.05895
                      -2.54598                     -23.14964                      41.77504
                      -2.55877                     -24.66307                      38.48899
                      -2.54720                     -26.17484                      35.20206
                      -2.53868                     -26.93054                      33.55852
                       2.85753                      -0.67142                      88.80202
        </DataArray>
      </Points>
      <PointData>
        <DataArray type="Float32" Name="TranslationalVelocity" NumberOfComponents="3" format="ascii">
                       0.12852                       2.74135                      -1.27572
                      -0.07914                       5.74890                      -2.71863
                      -0.28074                       8.74353                      -4.15308
                      -0.47463                      11.72223                      -5.57680
                      -0.65999                      14.68312                      -6.98840
                      -0.83698                      17.62519                      -8.38704
                      -1.00653                      20.54818                      -9.77216
                      -1.17035                      23.45230                     -11.14333
                      -1.33092                      26.33799                     -12.50026
                      -1.49141                      29.20572                     -13.84285
                      -1.65540                      32.05585                     -15.17129
                      -1.82663                      34.88862                     -16.48613
                      -2.00857                      37.70425                     -17.78836
                      -2.20394                      40.50329                     -19.07945
                      -2.41413                      43.28708                     -20.36142
                      -2.63852                      46.05857                     -21.63691
                      -2.87364                      48.82306                     -22.90905
                      -2.99325                      50.20438                     -23.54471
                       0.23361                       1.23482                      -0.55251
        </DataArray>
        <DataArray type="Float32" Name="RotationalVelocity" NumberOfComponents="3" format="ascii">
                       0.91972                       0.00960                      -0.11365
                       0.91607                       0.00863                      -0.11254
                       0.91112                       0.00729                      -0.11102
                       0.90536                       0.00568                      -0.10923
                       0.89914                       0.00404                      -0.10734
                       0.89269                       0.00257                      -0.10550
                       0.88622                       0.00144                      -0.10382
                       0.87984                       0.00083                      -0.10241
                       0.87365                       0.00094                      -0.10139
                       0.86773                       0.00189                      -0.10083
                       0.86213                       0.00374                      -0.10077
                       0.85694                       0.00648                      -0.10121
                       0.85225                       0.00996                      -0.10212
                       0.84821                       0.01392                      -0.10336
                       0.84498                       0.01793                      -0.10478
                       0.84282                       0.02139                      -0.10610
                       0.84202                       0.02346                      -0.10699
                       0.84201                       0.02403                      -0.10727
                       0.92115                       0.00999                      -0.11409
        </DataArray>
        <DataArray type="Float32" Name="TranslationalAcceleration" NumberOfComponents="3" format="ascii">
                       0.34846                       1.06132                       3.01836
                       0.45108                       2.09346                       5.97455
                       0.48931                       3.13996                       8.90042
                       0.44114                       4.20305                      11.78977
                       0.28955                       5.28417                      14.63881
                       0.01333                       6.38290                      17.44704
                      -0.41955                       7.49566                      20.21772
                      -1.05549                       8.61591                      22.95694
                      -1.95560                       9.73520                      25.67143
                      -3.19324                      10.84403                      28.36622
                      -4.84839                      11.93258                      31.04228
                      -6.99880                      12.99159                      33.69488
                      -9.70778                      14.01303                      36.31374
                     -13.00845                      14.99098                      38.88585
                     -16.88452                      15.92412                      41.40115
                     -21.24758                      16.81903                      43.86087
                     -25.91134                      17.69214                      46.28689
                     -28.28813                      18.12595                      47.49577
                       0.28442                       0.54852                       1.53359
        </DataArray>
        <DataArray type="Float32" Name="RotationalAcceleration" NumberOfComponents="3" format="ascii">
                      -0.10217                       0.06341                       0.00168
                      -0.09534                       0.07503                      -0.00523
                      -0.08677                       0.09306                      -0.01560
                      -0.07697                       0.11511                      -0.02815
                      -0.06658                       0.14127                      -0.04284
                      -0.05673                       0.17371                      -0.06053
                      -0.04875                       0.21588                      -0.08268
                      -0.04345                       0.27157                      -0.11102
                      -0.04118                       0.34425                      -0.14721
                      -0.04187                       0.43631                      -0.19243
                      -0.04500                       0.54826                      -0.24701
                      -0.04973                       0.67802                      -0.31009
                      -0.05523                       0.82011                      -0.37911
                      -0.06073                       0.96496                      -0.44949
                      -0.06535                       1.09813                      -0.51426
                      -0.06837                       1.19959                      -0.56370
                      -0.06969                       1.24300                      -0.58485
                      -0.06997                       1.24649                      -0.58652
                      -0.10511                       0.05967                       0.00403
        </DataArray>
        <DataArray type="Float32" Name="OrientationX" NumberOfComponents="3" format="ascii">
                       0.94785                       0.18887                      -0.25673
                       0.94821                       0.18991                      -0.25462
                       0.94877                       0.19153                      -0.25131
                       0.95309                       0.18187                      -0.24194
                       0.96170                       0.15691                      -0.22475
                       0.96665                       0.14413                      -0.21169
                       0.97146                       0.13166                      -0.19729
                       0.97627                       0.11891                      -0.18099
                       0.98086                       0.10665                      -0.16290
                       0.98501                       0.09589                      -0.14337
                       0.98875                       0.08609                      -0.12229
                       0.99192                       0.07771                      -0.10029
                       0.99422                       0.07258                      -0.07906
                       0.99590                       0.06862                      -0.05892
                       0.99714                       0.06370                      -0.04072
                       0.99802                       0.05701                      -0.02650
                       0.99849                       0.05102                      -0.02053
                       0.99862                       0.04849                      -0.02016
                       0.94773                       0.18852                      -0.25744
        </DataArray>
        <DataArray type="Float32" Name="OrientationY" NumberOfComponents="3" format="ascii">
                       0.27948                      -0.87974                       0.38463
                       0.27946                      -0.87980                       0.38451
                       0.27943                      -0.87988                       0.38435
                       0.26674                      -0.88246                       0.38745
                       0.23704                      -0.88780                       0.39448
                       0.21997                      -0.89056                       0.39813
                       0.20260                      -0.89313                       0.40159
                       0.18416                      -0.89559                       0.40497
                       0.16540                      -0.89784                       0.40808
                       0.14737                      -0.89977                       0.41072
                       0.12957                      -0.90149                       0.41296
                       0.11267                      -0.90295                       0.41471
                       0.09906                      -0.90404                       0.41582
                       0.08700                      -0.90494                       0.41655
                       0.07490                      -0.90578                       0.41707
                       0.06287                      -0.90654                       0.41741
                       0.05493                      -0.90699                       0.41756
                       0.05247                      -0.90711                       0.41761
                       0.27949                      -0.87972                       0.38468
        </DataArray>
        <DataArray type="Float32" Name="OrientationZ" NumberOfComponents="3" format="ascii">
                      -0.15321                      -0.43633                      -0.88665
                      -0.15099                      -0.43576                      -0.88731
                      -0.14750                      -0.43488                      -0.88832
                      -0.14304                      -0.43381                      -0.88958
                      -0.13763                      -0.43265                      -0.89100
                      -0.13114                      -0.43142                      -0.89257
                      -0.12333                      -0.43010                      -0.89432
                      -0.11394                      -0.42869                      -0.89624
                      -0.10274                      -0.42722                      -0.89829
                      -0.08962                      -0.42569                      -0.90042
                      -0.07469                      -0.42416                      -0.90250
                      -0.05833                      -0.42266                      -0.90441
                      -0.04129                      -0.42125                      -0.90601
                      -0.02473                      -0.41997                      -0.90720
                      -0.01031                      -0.41892                      -0.90796
                      -0.00023                      -0.41825                      -0.90833
                       0.00269                      -0.41806                      -0.90842
                       0.00196                      -0.41809                      -0.90840
                      -0.15395                      -0.43652                      -0.88642
        </DataArray>
      </PointData>
      <Lines>
        <DataArray type="Int32" Name="connectivity" format="ascii">
      0      1
      1      2
      2      3
      3      4
      4      5
      5      6
      6      7
      7      8
      8      9
      9     10
     10     11
     11     12
     12     13
     13     14
     14     15
     15     16
     16     17
     18      0
        </DataArray>
        <DataArray type="Int32" Name="offsets" format="ascii">
      2
      4
      6
      8
     10
     12
     14
     16
     18
     20
     22
     24
     26
     28
     30
     32
     34
     36
        </DataArray>
      </Lines>
    </Piece>
  </PolyData>
</VTKFile>
