<?xml version="1.0"?>
<VTKFile type="PolyData" version="0.1" byte_order="LittleEndian">
  <PolyData>
    <Piece NumberOfPoints="     19" NumberOfVerts="  0" NumberOfLines="     18"
           NumberOfStrips="  0" NumberOfPolys="      0">
      <Points>
        <DataArray type="Float32" NumberOfComponents="3" format="ascii">
                       2.46336                      -1.23764                      89.24497
                       2.31088                      -2.33164                      88.44012
                       1.97613                      -4.46204                      86.75755
                       1.63036                      -6.56436                      85.03885
                       1.19690                      -9.17419                      82.86630
                       0.75539                     -12.38998                      80.35978
                       0.36799                     -15.68062                      77.94545
                       0.00168                     -18.96888                      75.52455
                      -0.33510                     -22.25565                      73.09727
                      -0.63606                     -25.53954                      70.66132
                      -0.89966                     -28.81857                      68.21447
                      -1.11277                     -32.09293                      65.75641
                      -1.26872                     -35.36244                      63.28754
                      -1.36406                     -38.62694                      60.80889
                      -1.39847                     -41.88644                      58.32196
                      -1.38806                     -44.59948                      56.24494
                      -1.35971                     -46.77309                      54.58763
                      -1.32224                     -48.97995                      52.97314
                      -1.30779                     -50.05788                      52.13317
        </DataArray>
      </Points>
      <PointData>
        <DataArray type="Float32" Name="Force" NumberOfComponents="3" format="ascii">
                       0.46359                      -3.02720                       4.05050
                      72.41352                     -22.50787                      17.10222
                     100.80876                     -48.23957                      47.11052
                      94.08025                     -58.57080                      62.72644
                     758.66582                     171.54535                    -370.09198
                     999.56345                     195.92058                    -439.10675
                    1168.02277                     189.39892                    -448.50797
                    1508.99726                     210.53782                    -515.97069
                    1647.33930                     198.18394                    -497.44850
                    1915.80170                     211.36037                    -520.23558
                    2376.81641                     247.18356                    -576.34553
                    2744.25867                     282.70611                    -597.43244
                    3229.25347                     351.49281                    -646.03226
                    3563.05545                     404.10424                    -642.59600
                    3867.25213                     454.49779                    -627.64916
                    4054.88307                     478.99567                    -600.67316
                    3988.98009                     459.08595                    -547.22727
                    2917.08106                     324.32190                    -377.87655
                    1323.63649                      74.52411                     -75.33295
        </DataArray>
        <DataArray type="Float32" Name="Moment" NumberOfComponents="3" format="ascii">
                       0.00000                       0.00000                       0.00000
                       0.00000                       0.00000                       0.00000
                       0.00000                       0.00000                       0.00000
                       0.00000                       0.00000                       0.00000
                      23.07587                     175.96032                     128.86538
                      44.94396                     356.76605                     261.49028
                      56.84150                     475.37743                     348.77450
                      74.30150                     665.45800                     488.83560
                      91.39835                     897.32460                     660.16767
                      90.83732                    1011.21349                     745.34838
                      79.32880                    1055.71199                     779.92216
                      65.00128                    1116.19095                     826.76181
                      40.17803                    1010.56219                     750.65972
                      21.21311                    1013.05981                     754.69694
                       3.66072                     988.69051                     738.49311
                      -6.89707                     945.70209                     707.57347
                     -10.42455                     842.90759                     631.15224
                      -6.01570                     424.91742                     318.25667
                      -4.91536                     359.35672                     269.13299
        </DataArray>
        <DataArray type="Float32" Name="TranslationalVelocity" NumberOfComponents="3" format="ascii">
                      -0.27231                       0.81095                      -1.12918
                      -0.38382                       1.57453                      -2.14595
                      -0.60044                       3.17291                      -4.12659
                      -0.81425                       4.80734                      -6.08257
                      -1.08008                       6.87540                      -8.51318
                      -1.40942                       9.25886                     -11.51172
                      -1.74814                      11.55481                     -14.58505
                      -2.08756                      13.85876                     -17.66158
                      -2.42837                      16.16950                     -20.74185
                      -2.77157                      18.48820                     -23.82403
                      -3.11799                      20.81608                     -26.90526
                      -3.46997                      23.15195                     -29.98545
                      -3.82956                      25.49419                     -33.06378
                      -4.19860                      27.84080                     -36.13961
                      -4.57812                      30.18971                     -39.21250
                      -4.90200                      32.14757                     -41.77125
                      -5.16615                      33.70767                     -43.82173
                      -5.43673                      35.22628                     -45.90370
                      -5.56936                      36.01696                     -46.92063
        </DataArray>
        <DataArray type="Float32" Name="RotationalVelocity" NumberOfComponents="3" format="ascii">
                       0.92838                      -0.00561                      -0.10600
                       0.92862                      -0.00560                      -0.10605
                       0.92923                      -0.00558                      -0.10619
                       0.92997                      -0.00556                      -0.10637
                       0.93110                      -0.00554                      -0.10661
                       0.93266                      -0.00554                      -0.10690
                       0.93430                      -0.00556                      -0.10718
                       0.93593                      -0.00554                      -0.10753
                       0.93746                      -0.00539                      -0.10802
                       0.93884                      -0.00504                      -0.10876
                       0.94002                      -0.00440                      -0.10986
                       0.94101                      -0.00345                      -0.11134
                       0.94182                      -0.00222                      -0.11318
                       0.94245                      -0.00078                      -0.11527
                       0.94291                       0.00073                      -0.11741
                       0.94315                       0.00185                      -0.11899
                       0.94324                       0.00252                      -0.11993
                       0.94325                       0.00298                      -0.12056
                       0.94323                       0.00311                      -0.12073
        </DataArray>
        <DataArray type="Float32" Name="TranslationalAcceleration" NumberOfComponents="3" format="ascii">
                       1.26499                       1.10916                       0.92275
                       1.33963                       2.03956                       1.66832
                       1.49597                       3.85120                       3.22162
                       1.66318                       5.64872                       4.79757
                       1.89181                       7.90045                       6.77134
                       2.19433                      10.71289                       9.01461
                       2.53944                      13.63266                      11.13219
                       2.93789                      16.59111                      13.21248
                       3.38421                      19.58791                      15.25752
                       3.86256                      22.61910                      17.27480
                       4.34880                      25.67614                      19.27576
                       4.81297                      28.75872                      21.26437
                       5.21765                      31.86164                      23.24654
                       5.52626                      34.97882                      25.22586
                       5.71028                      38.10343                      27.20370
                       5.76248                      40.70850                      28.85080
                       5.73754                      42.79518                      30.16203
                       5.66207                      44.90703                      31.43279
                       5.62051                      45.94217                      32.10015
        </DataArray>
        <DataArray type="Float32" Name="OrientationX" NumberOfComponents="3" format="ascii">
                       0.94201                       0.10308                      -0.31935
                       0.94206                       0.10344                      -0.31909
                       0.94221                       0.10448                      -0.31833
                       0.94240                       0.10589                      -0.31729
                       0.94271                       0.10824                      -0.31557
                       0.95278                       0.09291                      -0.28909
                       0.95965                       0.08356                      -0.26851
                       0.96537                       0.07685                      -0.24930
                       0.97105                       0.07061                      -0.22821
                       0.97647                       0.06538                      -0.20548
                       0.98126                       0.06249                      -0.18230
                       0.98553                       0.06107                      -0.15809
                       0.98898                       0.06175                      -0.13456
                       0.99129                       0.06530                      -0.11433
                       0.99315                       0.06792                      -0.09504
                       0.99443                       0.06789                      -0.08057
                       0.99528                       0.06587                      -0.07133
                       0.99570                       0.06420                      -0.06683
                       0.99570                       0.06389                      -0.06707
        </DataArray>
        <DataArray type="Float32" Name="OrientationY" NumberOfComponents="3" format="ascii">
                       0.31664                      -0.58822                       0.74414
                       0.31662                      -0.58830                       0.74408
                       0.31659                      -0.58852                       0.74392
                       0.31656                      -0.58878                       0.74373
                       0.31651                      -0.58917                       0.74344
                       0.28620                      -0.59291                       0.75269
                       0.26413                      -0.59551                       0.75868
                       0.24474                      -0.59769                       0.76346
                       0.22414                      -0.59980                       0.76811
                       0.20284                      -0.60181                       0.77245
                       0.18262                      -0.60359                       0.77609
                       0.16251                      -0.60528                       0.77925
                       0.14423                      -0.60679                       0.78166
                       0.13037                      -0.60802                       0.78315
                       0.11672                      -0.60921                       0.78438
                       0.10528                      -0.61015                       0.78526
                       0.09675                      -0.61082                       0.78584
                       0.09217                      -0.61116                       0.78612
                       0.09217                      -0.61116                       0.78613
        </DataArray>
        <DataArray type="Float32" Name="OrientationZ" NumberOfComponents="3" format="ascii">
                      -0.11114                      -0.80211                      -0.58675
                      -0.11075                      -0.80200                      -0.58697
                      -0.10962                      -0.80171                      -0.58758
                      -0.10806                      -0.80133                      -0.58838
                      -0.10546                      -0.80073                      -0.58967
                      -0.10147                      -0.79989                      -0.59151
                      -0.09650                      -0.79899                      -0.59355
                      -0.09033                      -0.79804                      -0.59580
                      -0.08264                      -0.79702                      -0.59827
                      -0.07316                      -0.79596                      -0.60092
                      -0.06153                      -0.79484                      -0.60369
                      -0.04810                      -0.79367                      -0.60645
                      -0.03338                      -0.79246                      -0.60901
                      -0.01837                      -0.79123                      -0.61124
                      -0.00462                      -0.79010                      -0.61296
                       0.00415                      -0.78937                      -0.61391
                       0.00819                      -0.78903                      -0.61431
                       0.00962                      -0.78890                      -0.61444
                       0.00924                      -0.78893                      -0.61442
        </DataArray>
      </PointData>
      <Lines>
        <DataArray type="Int32" Name="connectivity" format="ascii">
      0      1
      1      2
      2      3
      3      4
      4      5
      5      6
      6      7
      7      8
      8      9
      9     10
     10     11
     11     12
     12     13
     13     14
     14     15
     15     16
     16     17
     17     18
        </DataArray>
        <DataArray type="Int32" Name="offsets" format="ascii">
      2
      4
      6
      8
     10
     12
     14
     16
     18
     20
     22
     24
     26
     28
     30
     32
     34
     36
        </DataArray>
      </Lines>
    </Piece>
  </PolyData>
</VTKFile>
