<?xml version="1.0"?>
<VTKFile type="PolyData" version="0.1" byte_order="LittleEndian">
  <PolyData>
    <Piece NumberOfPoints="     19" NumberOfVerts="  0" NumberOfLines="     18"
           NumberOfStrips="  0" NumberOfPolys="      0">
      <Points>
        <DataArray type="Float32" NumberOfComponents="3" format="ascii">
                       2.88034                       1.43282                      89.70037
                       2.77402                       2.74206                      89.32294
                       2.55069                       5.38662                      88.66081
                       2.32397                       8.04357                      88.04174
                       2.04135                      11.37236                      87.29242
                       1.74509                      15.32789                      86.24743
                       1.46712                      19.24671                      85.07220
                       1.19780                      23.16436                      83.89115
                       0.94131                      27.08044                      82.70214
                       0.69929                      30.99555                      81.50703
                       0.47125                      34.91075                      80.30977
                       0.26163                      38.82564                      79.10835
                       0.07152                      42.74017                      77.90271
                      -0.09922                      46.65427                      76.69300
                      -0.25015                      50.56793                      75.47940
                      -0.36381                      53.82898                      74.46564
                      -0.45016                      56.43526                      73.64601
                      -0.54315                      59.02542                      72.77400
                      -0.58564                      60.33260                      72.37768
        </DataArray>
      </Points>
      <PointData>
        <DataArray type="Float32" Name="Force" NumberOfComponents="3" format="ascii">
                      -0.03066                      -0.07603                      -0.25275
                      64.98201                      -1.53525                     -23.35283
                      76.25698                      -9.30297                     -52.99176
                      65.58238                     -14.94897                     -69.21453
                     711.46517                     103.69452                     165.82435
                     981.09560                     140.26725                     226.64969
                    1093.30909                     131.77472                     178.21608
                    1346.93783                     139.57079                     155.69871
                    1389.99042                     121.67257                     101.23029
                    1506.98529                     111.62202                      61.82013
                    1721.11046                     103.15247                      15.77059
                    1769.01881                      81.88505                     -34.11477
                    1873.41883                      64.81739                     -75.06896
                    1751.72253                      36.80751                    -118.21251
                    1588.83180                      12.37637                    -152.08163
                    1394.67819                      -4.42001                    -171.12313
                    1489.88151                      -9.24975                    -191.91192
                    1145.15166                      -8.60349                    -151.63951
                    1161.06783                      -8.82558                    -155.23901
        </DataArray>
        <DataArray type="Float32" Name="Moment" NumberOfComponents="3" format="ascii">
                       0.00000                       0.00000                       0.00000
                       0.00000                       0.00000                       0.00000
                       0.00000                       0.00000                       0.00000
                       0.00000                       0.00000                       0.00000
                      15.29732                    -196.51551                      57.25378
                      24.99791                    -330.65315                      96.42399
                      34.30565                    -470.32441                     137.30631
                      45.73964                    -655.00889                     191.47015
                      58.03335                    -876.45132                     256.58606
                      60.34142                    -972.63007                     285.23553
                      57.91866                   -1011.83563                     297.32205
                      54.68861                   -1052.36391                     309.90438
                      39.61415                    -853.28369                     251.85213
                      33.93062                    -828.08064                     244.96087
                      28.27306                    -781.86768                     231.74690
                      24.54428                    -738.35329                     219.11064
                      22.42985                    -700.15289                     207.87692
                      11.50170                    -361.61906                     107.37555
                      11.99515                    -373.74259                     110.96231
        </DataArray>
        <DataArray type="Float32" Name="TranslationalVelocity" NumberOfComponents="3" format="ascii">
                       0.26912                       0.37273                       1.34612
                       0.41656                       0.73257                       2.55280
                       0.71791                       1.36790                       4.98789
                       1.03190                       1.96369                       7.42693
                       1.44799                       2.68587                      10.46954
                       1.98211                       3.67934                      14.06413
                       2.56535                       4.78541                      17.59983
                       3.21301                       5.89160                      21.10750
                       3.93896                       6.99931                      24.58651
                       4.76033                       8.10687                      28.03729
                       5.68344                       9.21123                      31.46341
                       6.73777                      10.31290                      34.86119
                       7.93973                      11.41087                      38.22993
                       9.29808                      12.50394                      41.56954
                      10.80806                      13.59054                      44.88187
                      12.16292                      14.49117                      47.62485
                      13.29450                      15.21566                      49.80833
                      14.43668                      15.98627                      51.97502
                      15.00938                      16.33653                      53.06881
        </DataArray>
        <DataArray type="Float32" Name="RotationalVelocity" NumberOfComponents="3" format="ascii">
                       0.92235                       0.00395                      -0.11243
                       0.92138                       0.00352                      -0.11363
                       0.91904                       0.00235                      -0.11700
                       0.91622                       0.00079                      -0.12157
                       0.91199                      -0.00174                      -0.12910
                       0.90618                      -0.00548                      -0.14032
                       0.89986                      -0.00991                      -0.15379
                       0.89334                      -0.01515                      -0.16998
                       0.88679                      -0.02138                      -0.18957
                       0.88022                      -0.02879                      -0.21319
                       0.87355                      -0.03760                      -0.24162
                       0.86669                      -0.04759                      -0.27404
                       0.85967                      -0.05839                      -0.30922
                       0.85276                      -0.06933                      -0.34488
                       0.84649                      -0.07930                      -0.37739
                       0.84243                      -0.08562                      -0.39801
                       0.84051                      -0.08852                      -0.40742
                       0.83977                      -0.08951                      -0.41061
                       0.83990                      -0.08920                      -0.40960
        </DataArray>
        <DataArray type="Float32" Name="TranslationalAcceleration" NumberOfComponents="3" format="ascii">
                       0.66040                      -1.40985                       0.34205
                       0.73324                      -2.49656                       0.81047
                       0.85828                      -4.70196                       1.65798
                       0.95175                      -6.92147                       2.42465
                       1.01309                      -9.70315                       3.28123
                       1.00816                     -13.00517                       4.29193
                       0.89113                     -16.29379                       5.24693
                       0.64819                     -19.60840                       6.04541
                       0.33183                     -22.95055                       6.69597
                       0.04317                     -26.32223                       7.20720
                      -0.10265                     -29.72385                       7.59783
                       0.07206                     -33.16473                       7.85896
                       0.75029                     -36.65709                       7.98985
                       2.09539                     -40.21667                       7.98767
                       4.21138                     -43.85769                       7.85322
                       6.55093                     -46.95365                       7.64982
                       8.77396                     -49.46506                       7.44072
                      11.22462                     -51.98629                       7.24535
                      12.45994                     -53.24610                       7.11164
        </DataArray>
        <DataArray type="Float32" Name="OrientationX" NumberOfComponents="3" format="ascii">
                       0.99025                       0.10653                       0.08981
                       0.99026                       0.10633                       0.08987
                       0.99031                       0.10577                       0.09003
                       0.99037                       0.10501                       0.09025
                       0.99047                       0.10374                       0.09062
                       0.99380                       0.09314                       0.06065
                       0.99565                       0.08447                       0.03929
                       0.99688                       0.07613                       0.02083
                       0.99776                       0.06692                       0.00143
                       0.99821                       0.05696                      -0.01839
                       0.99823                       0.04669                      -0.03688
                       0.99784                       0.03598                      -0.05504
                       0.99713                       0.02553                      -0.07126
                       0.99640                       0.01643                      -0.08319
                       0.99544                       0.00797                      -0.09505
                       0.99444                       0.00191                      -0.10525
                       0.99358                      -0.00171                      -0.11310
                       0.99308                      -0.00327                      -0.11741
                       0.99307                      -0.00300                      -0.11749
        </DataArray>
        <DataArray type="Float32" Name="OrientationY" NumberOfComponents="3" format="ascii">
                       0.11564                      -0.26881                      -0.95622
                       0.11565                      -0.26896                      -0.95618
                       0.11568                      -0.26933                      -0.95608
                       0.11572                      -0.26978                      -0.95594
                       0.11577                      -0.27046                      -0.95574
                       0.08419                      -0.27453                      -0.95789
                       0.06138                      -0.27755                      -0.95875
                       0.04143                      -0.28015                      -0.95906
                       0.02033                      -0.28263                      -0.95901
                      -0.00141                      -0.28489                      -0.95856
                      -0.02197                      -0.28680                      -0.95774
                      -0.04237                      -0.28841                      -0.95657
                      -0.06085                      -0.28966                      -0.95519
                      -0.07485                      -0.29053                      -0.95393
                      -0.08862                      -0.29116                      -0.95256
                      -0.10013                      -0.29149                      -0.95132
                      -0.10868                      -0.29160                      -0.95035
                      -0.11325                      -0.29164                      -0.94980
                      -0.11325                      -0.29164                      -0.94980
        </DataArray>
        <DataArray type="Float32" Name="OrientationZ" NumberOfComponents="3" format="ascii">
                      -0.07772                       0.95728                      -0.27851
                      -0.07750                       0.95726                      -0.27864
                      -0.07687                       0.95722                      -0.27895
                      -0.07603                       0.95718                      -0.27933
                      -0.07464                       0.95712                      -0.27989
                      -0.07256                       0.95706                      -0.28067
                      -0.07009                       0.95699                      -0.28153
                      -0.06718                       0.95693                      -0.28243
                      -0.06378                       0.95689                      -0.28335
                      -0.05984                       0.95687                      -0.28430
                      -0.05529                       0.95685                      -0.28526
                      -0.05029                       0.95683                      -0.28626
                      -0.04502                       0.95679                      -0.28728
                      -0.03984                       0.95672                      -0.28826
                      -0.03527                       0.95664                      -0.28913
                      -0.03250                       0.95657                      -0.28967
                      -0.03135                       0.95654                      -0.28992
                      -0.03114                       0.95652                      -0.28999
                      -0.03142                       0.95652                      -0.28996
        </DataArray>
      </PointData>
      <Lines>
        <DataArray type="Int32" Name="connectivity" format="ascii">
      0      1
      1      2
      2      3
      3      4
      4      5
      5      6
      6      7
      7      8
      8      9
      9     10
     10     11
     11     12
     12     13
     13     14
     14     15
     15     16
     16     17
     17     18
        </DataArray>
        <DataArray type="Int32" Name="offsets" format="ascii">
      2
      4
      6
      8
     10
     12
     14
     16
     18
     20
     22
     24
     26
     28
     30
     32
     34
     36
        </DataArray>
      </Lines>
    </Piece>
  </PolyData>
</VTKFile>
