<?xml version="1.0"?>
<VTKFile type="PolyData" version="0.1" byte_order="LittleEndian">
  <PolyData>
    <Piece NumberOfPoints="     19" NumberOfVerts="  0" NumberOfLines="     18"
           NumberOfStrips="  0" NumberOfPolys="      0">
      <Points>
        <DataArray type="Float32" NumberOfComponents="3" format="ascii">
                       2.70670                      -3.30760                      89.82259
                       2.51083                      -6.90279                      89.47102
                       2.32301                     -10.49789                      89.11426
                       2.14647                     -14.09288                      88.75062
                       1.98407                     -17.68771                      88.37901
                       1.83893                     -21.28236                      87.99867
                       1.71480                     -24.87678                      87.60887
                       1.61622                     -28.47087                      87.20887
                       1.54858                     -32.06442                      86.79795
                       1.51782                     -35.65713                      86.37553
                       1.52995                     -39.24853                      85.94126
                       1.59030                     -42.83798                      85.49514
                       1.70250                     -46.42476                      85.03765
                       1.86726                     -50.00819                      84.56975
                       2.08084                     -53.58795                      84.09303
                       2.33336                     -57.16438                      83.60986
                       2.60675                     -60.73889                      83.12342
                       2.74583                     -62.52591                      82.87983
                       2.80618                      -1.50998                      89.99733
        </DataArray>
      </Points>
      <PointData>
        <DataArray type="Float32" Name="TranslationalVelocity" NumberOfComponents="3" format="ascii">
                      -1.00361                       0.33503                      -3.06900
                      -1.39988                       0.68010                      -6.37696
                      -1.79789                       1.02887                      -9.68205
                      -2.19845                       1.38247                     -12.98338
                      -2.60237                       1.74153                     -16.28037
                      -3.01016                       2.10635                     -19.57275
                      -3.42178                       2.47709                     -22.86053
                      -3.83655                       2.85388                     -26.14385
                      -4.25312                       3.23668                     -29.42302
                      -4.66951                       3.62535                     -32.69831
                      -5.08322                       4.01957                     -35.96991
                      -5.49149                       4.41889                     -39.23785
                      -5.89152                       4.82276                     -42.50201
                      -6.28095                       5.23061                     -45.76227
                      -6.65829                       5.64179                     -49.01874
                      -7.02356                       6.05553                     -52.27211
                      -7.37892                       6.47087                     -55.52405
                      -7.55455                       6.67881                     -57.14994
                      -0.80580                       0.16324                      -1.41442
        </DataArray>
        <DataArray type="Float32" Name="RotationalVelocity" NumberOfComponents="3" format="ascii">
                       0.91955                      -0.01587                      -0.11158
                       0.91894                      -0.01579                      -0.11196
                       0.91807                      -0.01569                      -0.11257
                       0.91702                      -0.01554                      -0.11343
                       0.91587                      -0.01538                      -0.11449
                       0.91472                      -0.01520                      -0.11563
                       0.91362                      -0.01504                      -0.11668
                       0.91264                      -0.01491                      -0.11746
                       0.91184                      -0.01483                      -0.11778
                       0.91123                      -0.01483                      -0.11749
                       0.91082                      -0.01490                      -0.11648
                       0.91060                      -0.01506                      -0.11470
                       0.91054                      -0.01530                      -0.11221
                       0.91062                      -0.01560                      -0.10918
                       0.91078                      -0.01592                      -0.10590
                       0.91099                      -0.01623                      -0.10283
                       0.91120                      -0.01646                      -0.10063
                       0.91130                      -0.01654                      -0.09983
                       0.91979                      -0.01589                      -0.11144
        </DataArray>
        <DataArray type="Float32" Name="TranslationalAcceleration" NumberOfComponents="3" format="ascii">
                       0.21123                       2.55371                       0.28203
                       0.38381                       5.61707                       0.77012
                       0.55250                       8.67905                       1.22937
                       0.71800                      11.73924                       1.65234
                       0.88215                      14.79744                       2.03428
                       1.04408                      17.85383                       2.37380
                       1.19701                      20.90877                       2.67303
                       1.32662                      23.96258                       2.93719
                       1.41083                      27.01518                       3.17375
                       1.42063                      30.06549                       3.39137
                       1.32215                      33.11089                       3.59889
                       1.08009                      36.14688                       3.80433
                       0.66239                      39.16717                       4.01430
                       0.04626                      42.16482                       4.23367
                      -0.77454                      45.13451                       4.46519
                      -1.78115                      48.07595                       4.70910
                      -2.91977                      50.99777                       4.96335
                      -3.51285                      52.45552                       5.09268
                       0.12406                       1.02175                       0.03185
        </DataArray>
        <DataArray type="Float32" Name="RotationalAcceleration" NumberOfComponents="3" format="ascii">
                      -0.05489                      -0.03347                       0.01997
                      -0.04731                      -0.03379                       0.01885
                      -0.03697                      -0.03423                       0.01745
                      -0.02466                      -0.03484                       0.01663
                      -0.01135                      -0.03554                       0.01617
                       0.00191                      -0.03615                       0.01483
                       0.01418                      -0.03643                       0.01062
                       0.02468                      -0.03612                       0.00138
                       0.03289                      -0.03500                      -0.01495
                       0.03858                      -0.03289                      -0.04008
                       0.04177                      -0.02969                      -0.07491
                       0.04277                      -0.02546                      -0.11927
                       0.04197                      -0.02036                      -0.17151
                       0.03987                      -0.01476                      -0.22815
                       0.03710                      -0.00923                      -0.28360
                       0.03439                      -0.00461                      -0.32978
                       0.03228                      -0.00198                      -0.35579
                       0.03144                      -0.00131                      -0.36221
                      -0.05791                      -0.03333                       0.02027
        </DataArray>
        <DataArray type="Float32" Name="OrientationX" NumberOfComponents="3" format="ascii">
                       0.93714                      -0.01799                      -0.34850
                       0.93725                      -0.01599                      -0.34830
                       0.93741                      -0.01286                      -0.34799
                       0.94211                      -0.01035                      -0.33515
                       0.95216                      -0.00902                      -0.30547
                       0.95759                      -0.00530                      -0.28810
                       0.96278                      -0.00049                      -0.27029
                       0.96791                       0.00554                      -0.25124
                       0.97270                       0.01308                      -0.23168
                       0.97688                       0.02233                      -0.21262
                       0.98053                       0.03313                      -0.19355
                       0.98350                       0.04524                      -0.17518
                       0.98541                       0.05831                      -0.15992
                       0.98670                       0.07112                      -0.14619
                       0.98776                       0.08209                      -0.13263
                       0.98880                       0.08933                      -0.11960
                       0.98960                       0.09092                      -0.11143
                       0.98995                       0.09002                      -0.10908
                       0.93710                      -0.01865                      -0.34856
        </DataArray>
        <DataArray type="Float32" Name="OrientationY" NumberOfComponents="3" format="ascii">
                       0.34460                      -0.10970                       0.93232
                       0.34457                      -0.11018                       0.93227
                       0.34454                      -0.11084                       0.93221
                       0.33199                      -0.11145                       0.93667
                       0.30260                      -0.11197                       0.94652
                       0.28570                      -0.11268                       0.95167
                       0.26849                      -0.11346                       0.95658
                       0.25021                      -0.11430                       0.96142
                       0.23162                      -0.11524                       0.96596
                       0.21377                      -0.11627                       0.96994
                       0.19613                      -0.11742                       0.97352
                       0.17941                      -0.11868                       0.97659
                       0.16594                      -0.11991                       0.97882
                       0.15402                      -0.12113                       0.98061
                       0.14206                      -0.12241                       0.98226
                       0.13017                      -0.12368                       0.98375
                       0.12231                      -0.12449                       0.98465
                       0.11987                      -0.12471                       0.98493
                       0.34461                      -0.10951                       0.93234
        </DataArray>
        <DataArray type="Float32" Name="OrientationZ" NumberOfComponents="3" format="ascii">
                      -0.05500                      -0.99380                      -0.09660
                      -0.05328                      -0.99378                      -0.09776
                      -0.05056                      -0.99376                      -0.09947
                      -0.04705                      -0.99372                      -0.10156
                      -0.04274                      -0.99367                      -0.10388
                      -0.03750                      -0.99362                      -0.10639
                      -0.03114                      -0.99354                      -0.10910
                      -0.02339                      -0.99343                      -0.11202
                      -0.01407                      -0.99325                      -0.11512
                      -0.00307                      -0.99297                      -0.11836
                       0.00953                      -0.99253                      -0.12163
                       0.02339                      -0.99190                      -0.12484
                       0.03790                      -0.99107                      -0.12783
                       0.05204                      -0.99009                      -0.13047
                       0.06440                      -0.98908                      -0.13257
                       0.07308                      -0.98829                      -0.13392
                       0.07565                      -0.98805                      -0.13431
                       0.07506                      -0.98810                      -0.13424
                      -0.05556                      -0.99381                      -0.09619
        </DataArray>
      </PointData>
      <Lines>
        <DataArray type="Int32" Name="connectivity" format="ascii">
      0      1
      1      2
      2      3
      3      4
      4      5
      5      6
      6      7
      7      8
      8      9
      9     10
     10     11
     11     12
     12     13
     13     14
     14     15
     15     16
     16     17
     18      0
        </DataArray>
        <DataArray type="Int32" Name="offsets" format="ascii">
      2
      4
      6
      8
     10
     12
     14
     16
     18
     20
     22
     24
     26
     28
     30
     32
     34
     36
        </DataArray>
      </Lines>
    </Piece>
  </PolyData>
</VTKFile>
