<?xml version="1.0"?>
<VTKFile type="PolyData" version="0.1" byte_order="LittleEndian">
  <PolyData>
    <Piece NumberOfPoints="     19" NumberOfVerts="  0" NumberOfLines="     18"
           NumberOfStrips="  0" NumberOfPolys="      0">
      <Points>
        <DataArray type="Float32" NumberOfComponents="3" format="ascii">
                       2.87807                       0.32421                      88.71920
                       2.65203                       0.65582                      87.41274
                       2.18176                       1.41115                      84.82623
                       1.70590                       2.21148                      82.25208
                       1.11294                       3.24092                      79.04150
                       0.46214                       4.34308                      75.14524
                      -0.15099                       5.32572                      71.21255
                      -0.74418                       6.31261                      67.27784
                      -1.30954                       7.30232                      63.33969
                      -1.84100                       8.29685                      59.39799
                      -2.33686                       9.29890                      55.45353
                      -2.78487                      10.30731                      51.50492
                      -3.17891                      11.32118                      47.55192
                      -3.51583                      12.33934                      43.59470
                      -3.79527                      13.36052                      39.63370
                      -3.99132                      14.21280                      36.33072
                      -4.13021                      14.88737                      33.68542
                      -4.26702                      15.50889                      31.02588
                      -4.33461                      15.85994                      29.70684
        </DataArray>
      </Points>
      <PointData>
        <DataArray type="Float32" Name="Force" NumberOfComponents="3" format="ascii">
                      -0.03816                      -1.22667                      -0.30116
                      57.78498                     -16.60160                     -14.12416
                      73.66576                     -44.21207                     -23.69959
                      67.29973                     -61.56919                     -26.85182
                     606.09631                     241.86208                     -40.49492
                     798.91977                     269.35778                     -62.52922
                     969.37277                     274.39378                     -84.12119
                    1294.86811                     315.15261                    -117.15892
                    1457.71101                     298.03978                    -134.83736
                    1732.47724                     307.12054                    -155.61331
                    2187.98708                     331.55052                    -185.30005
                    2557.66548                     336.34573                    -195.40475
                    3013.83193                     361.69861                    -195.23234
                    3305.93259                     349.42505                    -177.27901
                    3527.08921                     322.89440                    -154.10349
                    3620.54236                     283.12900                    -139.15155
                    3505.09988                     229.84059                    -131.80614
                    2531.57896                     132.99414                     -99.80631
                    1200.44313                     -34.68405                     -71.92437
        </DataArray>
        <DataArray type="Float32" Name="Moment" NumberOfComponents="3" format="ascii">
                       0.00000                       0.00000                       0.00000
                       0.00000                       0.00000                       0.00000
                       0.00000                       0.00000                       0.00000
                       0.00000                       0.00000                       0.00000
                      37.59499                     -56.48716                     225.31420
                      66.73123                    -102.74225                     410.02394
                      83.75716                    -133.03237                     531.24129
                     112.16566                    -185.40339                     740.95406
                     144.81100                    -252.07172                    1008.36437
                     151.53205                    -282.17646                    1130.13242
                     146.47334                    -298.18834                    1195.99147
                     137.32414                    -313.20789                    1258.32698
                     106.79740                    -280.50086                    1128.97605
                      89.63811                    -278.44234                    1122.76578
                      71.90302                    -268.27212                    1083.58872
                      59.28463                    -253.77799                    1026.15158
                      48.92882                    -224.75216                     909.23860
                      23.97293                    -113.05058                     457.42889
                      20.76687                     -97.25707                     393.50658
        </DataArray>
        <DataArray type="Float32" Name="TranslationalVelocity" NumberOfComponents="3" format="ascii">
                      -0.35149                       1.36234                       0.31236
                      -0.30071                       2.58721                       0.61448
                      -0.18904                       5.01417                       1.30286
                      -0.07330                       7.42822                       2.03184
                       0.07258                      10.43506                       2.96853
                       0.22829                      14.06940                       3.96964
                       0.36469                      17.72439                       4.86058
                       0.49656                      21.37071                       5.75424
                       0.62752                      25.00959                       6.64901
                       0.76471                      28.64170                       7.54611
                       0.91585                      32.26789                       8.44763
                       1.09305                      35.88861                       9.35161
                       1.30833                      39.50409                      10.25697
                       1.57227                      43.11405                      11.16291
                       1.89121                      46.71797                      12.06919
                       2.19742                      49.71684                      12.82456
                       2.46551                      52.11522                      13.42190
                       2.74120                      54.52565                      13.97086
                       2.88521                      55.72107                      14.28156
        </DataArray>
        <DataArray type="Float32" Name="RotationalVelocity" NumberOfComponents="3" format="ascii">
                       0.91775                      -0.00950                      -0.11629
                       0.91745                      -0.00937                      -0.11620
                       0.91672                      -0.00908                      -0.11600
                       0.91581                      -0.00869                      -0.11575
                       0.91442                      -0.00799                      -0.11533
                       0.91250                      -0.00681                      -0.11470
                       0.91051                      -0.00556                      -0.11405
                       0.90861                      -0.00479                      -0.11352
                       0.90692                      -0.00517                      -0.11333
                       0.90549                      -0.00738                      -0.11364
                       0.90433                      -0.01226                      -0.11466
                       0.90335                      -0.01984                      -0.11639
                       0.90247                      -0.02999                      -0.11879
                       0.90163                      -0.04207                      -0.12167
                       0.90084                      -0.05482                      -0.12473
                       0.90026                      -0.06443                      -0.12705
                       0.89994                      -0.07026                      -0.12845
                       0.89975                      -0.07428                      -0.12943
                       0.89972                      -0.07548                      -0.12972
        </DataArray>
        <DataArray type="Float32" Name="TranslationalAcceleration" NumberOfComponents="3" format="ascii">
                      -1.02193                       0.11065                       1.30773
                      -0.87596                      -0.07905                       2.45455
                      -0.57782                      -0.56290                       4.72212
                      -0.25098                      -1.16377                       6.94290
                       0.21287                      -2.07688                       9.63890
                       0.87720                      -3.28464                      12.79858
                       1.67397                      -4.67612                      15.88386
                       2.58409                      -6.36867                      18.86412
                       3.57015                      -8.36432                      21.75000
                       4.56642                     -10.66101                      24.55532
                       5.49809                     -13.22343                      27.30118
                       6.26108                     -16.06664                      29.99672
                       6.74671                     -19.16909                      32.65643
                       6.85884                     -22.50126                      35.29043
                       6.53648                     -26.02445                      37.90453
                       5.94294                     -29.06915                      40.07182
                       5.27410                     -31.54934                      41.80863
                       4.50465                     -34.01207                      43.59818
                       4.09604                     -35.27039                      44.45699
        </DataArray>
        <DataArray type="Float32" Name="OrientationX" NumberOfComponents="3" format="ascii">
                       0.96627                       0.23366                      -0.10831
                       0.96634                       0.23356                      -0.10791
                       0.96653                       0.23327                      -0.10676
                       0.96680                       0.23288                      -0.10519
                       0.96724                       0.23222                      -0.10258
                       0.97369                       0.20105                      -0.10727
                       0.97803                       0.17795                      -0.10861
                       0.98163                       0.15726                      -0.10807
                       0.98510                       0.13507                      -0.10644
                       0.98834                       0.11182                      -0.10333
                       0.99119                       0.08915                      -0.09796
                       0.99366                       0.06620                      -0.09090
                       0.99561                       0.04477                      -0.08219
                       0.99702                       0.02760                      -0.07207
                       0.99795                       0.01096                      -0.06303
                       0.99832                      -0.00230                      -0.05797
                       0.99834                      -0.01158                      -0.05647
                       0.99828                      -0.01637                      -0.05633
                       0.99826                      -0.01629                      -0.05667
        </DataArray>
        <DataArray type="Float32" Name="OrientationY" NumberOfComponents="3" format="ascii">
                       0.19753                      -0.94223                      -0.27052
                       0.19751                      -0.94221                      -0.27062
                       0.19747                      -0.94215                      -0.27086
                       0.19742                      -0.94207                      -0.27115
                       0.19734                      -0.94196                      -0.27159
                       0.16628                      -0.94872                      -0.26884
                       0.14373                      -0.95292                      -0.26699
                       0.12395                      -0.95612                      -0.26545
                       0.10300                      -0.95906                      -0.26380
                       0.08139                      -0.96160                      -0.26210
                       0.06091                      -0.96354                      -0.26055
                       0.04058                      -0.96500                      -0.25911
                       0.02214                      -0.96591                      -0.25795
                       0.00816                      -0.96631                      -0.25725
                      -0.00559                      -0.96650                      -0.25662
                      -0.01710                      -0.96650                      -0.25611
                      -0.02567                      -0.96641                      -0.25572
                      -0.03027                      -0.96633                      -0.25550
                      -0.03027                      -0.96633                      -0.25550
        </DataArray>
        <DataArray type="Float32" Name="OrientationZ" NumberOfComponents="3" format="ascii">
                      -0.16526                       0.24000                      -0.95660
                      -0.16488                       0.24019                      -0.95662
                      -0.16376                       0.24071                      -0.95668
                      -0.16224                       0.24138                      -0.95677
                      -0.15969                       0.24245                      -0.95693
                      -0.15582                       0.24393                      -0.95719
                      -0.15101                       0.24552                      -0.95756
                      -0.14507                       0.24718                      -0.95805
                      -0.13771                       0.24890                      -0.95869
                      -0.12867                       0.25063                      -0.95949
                      -0.11761                       0.25229                      -0.96048
                      -0.10487                       0.25378                      -0.96156
                      -0.09094                       0.25500                      -0.96266
                      -0.07674                       0.25589                      -0.96365
                      -0.06374                       0.25645                      -0.96445
                      -0.05544                       0.25667                      -0.96491
                      -0.05161                       0.25674                      -0.96510
                      -0.05025                       0.25677                      -0.96517
                      -0.05060                       0.25677                      -0.96515
        </DataArray>
      </PointData>
      <Lines>
        <DataArray type="Int32" Name="connectivity" format="ascii">
      0      1
      1      2
      2      3
      3      4
      4      5
      5      6
      6      7
      7      8
      8      9
      9     10
     10     11
     11     12
     12     13
     13     14
     14     15
     15     16
     16     17
     17     18
        </DataArray>
        <DataArray type="Int32" Name="offsets" format="ascii">
      2
      4
      6
      8
     10
     12
     14
     16
     18
     20
     22
     24
     26
     28
     30
     32
     34
     36
        </DataArray>
      </Lines>
    </Piece>
  </PolyData>
</VTKFile>
