<?xml version="1.0"?>
<VTKFile type="PolyData" version="0.1" byte_order="LittleEndian">
  <PolyData>
    <Piece NumberOfPoints="     19" NumberOfVerts="  0" NumberOfLines="     18"
           NumberOfStrips="  0" NumberOfPolys="      0">
      <Points>
        <DataArray type="Float32" NumberOfComponents="3" format="ascii">
                       2.59650                      -1.14679                      87.07310
                       2.02391                      -2.38011                      83.72073
                       1.46173                      -3.61201                      80.36607
                       0.91399                      -4.84187                      77.00829
                       0.38410                      -6.06936                      73.64678
                      -0.12441                      -7.29427                      70.28103
                      -0.60739                      -8.51638                      66.91052
                      -1.05985                      -9.73532                      63.53464
                      -1.47594                     -10.95079                      60.15286
                      -1.84923                     -12.16253                      56.76476
                      -2.17325                     -13.37040                      53.37023
                      -2.44228                     -14.57443                      49.96955
                      -2.65253                     -15.77481                      46.56341
                      -2.80347                     -16.97184                      43.15291
                      -2.89952                     -18.16605                      39.73934
                      -2.95202                     -19.35824                      36.32401
                      -2.98146                     -20.54948                      32.90798
                      -2.99363                     -21.14500                      31.19991
                       2.88482                      -0.52987                      88.74885
        </DataArray>
      </Points>
      <PointData>
        <DataArray type="Float32" Name="TranslationalVelocity" NumberOfComponents="3" format="ascii">
                       0.15173                       2.83844                      -0.96319
                      -0.03193                       5.95076                      -2.07683
                      -0.22166                       9.05471                      -3.18488
                      -0.42029                      12.14805                      -4.28550
                      -0.63051                      15.22941                      -5.37757
                      -0.85482                      18.29813                      -6.46053
                      -1.09528                      21.35408                      -7.53416
                      -1.35345                      24.39744                      -8.59849
                      -1.63030                      27.42857                      -9.65391
                      -1.92624                      30.44783                     -10.70119
                      -2.24096                      33.45545                     -11.74140
                      -2.57337                      36.45150                     -12.77588
                      -2.92149                      39.43597                     -13.80612
                      -3.28234                      42.40910                     -14.83354
                      -3.65183                      45.37175                     -15.85935
                      -4.02462                      48.32602                     -16.88451
                      -4.39403                      51.27587                     -17.90959
                      -4.57696                      52.75030                     -18.42215
                       0.24240                       1.28051                      -0.40524
        </DataArray>
        <DataArray type="Float32" Name="RotationalVelocity" NumberOfComponents="3" format="ascii">
                       0.91011                       0.01222                      -0.11378
                       0.90779                       0.01359                      -0.11389
                       0.90453                       0.01579                      -0.11413
                       0.90066                       0.01875                      -0.11455
                       0.89645                       0.02243                      -0.11518
                       0.89213                       0.02671                      -0.11601
                       0.88784                       0.03146                      -0.11702
                       0.88369                       0.03653                      -0.11817
                       0.87978                       0.04175                      -0.11941
                       0.87617                       0.04694                      -0.12070
                       0.87291                       0.05192                      -0.12197
                       0.87003                       0.05644                      -0.12314
                       0.86756                       0.06028                      -0.12413
                       0.86554                       0.06317                      -0.12484
                       0.86403                       0.06482                      -0.12519
                       0.86310                       0.06491                      -0.12506
                       0.86287                       0.06309                      -0.12435
                       0.86295                       0.06166                      -0.12384
                       0.91100                       0.01175                      -0.11376
        </DataArray>
        <DataArray type="Float32" Name="TranslationalAcceleration" NumberOfComponents="3" format="ascii">
                       0.04899                       1.01723                       2.35357
                       0.42581                       2.13093                       5.14889
                       0.66573                       3.26028                       7.94252
                       0.71495                       4.40489                      10.73726
                       0.52930                       5.56453                      13.53522
                       0.08545                       6.74216                      16.33460
                      -0.61140                       7.94269                      19.12860
                      -1.52311                       9.17285                      21.90514
                      -2.57778                      10.44140                      24.64771
                      -3.67249                      11.75801                      27.33787
                      -4.68005                      13.13198                      29.95880
                      -5.45939                      14.57120                      32.49926
                      -5.87030                      16.08131                      34.95688
                      -5.79228                      17.66486                      37.33945
                      -5.14775                      19.31923                      39.66351
                      -3.92969                      21.03354                      41.94974
                      -2.23365                      22.78608                      44.21606
                      -1.28555                      23.66845                      45.34608
                      -0.16674                       0.46414                       0.95524
        </DataArray>
        <DataArray type="Float32" Name="RotationalAcceleration" NumberOfComponents="3" format="ascii">
                       0.01726                      -0.03476                      -0.02115
                       0.02180                      -0.00671                      -0.03226
                       0.02670                       0.03566                      -0.04872
                       0.03091                       0.09163                      -0.07006
                       0.03548                       0.15689                      -0.09488
                       0.04154                       0.22467                      -0.12089
                       0.04983                       0.28666                      -0.14516
                       0.06143                       0.33384                      -0.16454
                       0.07698                       0.35750                      -0.17594
                       0.09648                       0.35030                      -0.17667
                       0.11928                       0.30727                      -0.16476
                       0.14412                       0.22679                      -0.13941
                       0.16946                       0.11166                      -0.10139
                       0.19355                      -0.02991                      -0.05342
                       0.21429                      -0.18336                      -0.00048
                       0.22942                      -0.32677                       0.04972
                       0.23700                      -0.42981                       0.08636
                       0.23870                      -0.46688                       0.09972
                       0.01536                      -0.04537                      -0.01691
        </DataArray>
        <DataArray type="Float32" Name="OrientationX" NumberOfComponents="3" format="ascii">
                       0.95001                       0.20218                      -0.23789
                       0.95038                       0.20297                      -0.23575
                       0.95094                       0.20420                      -0.23240
                       0.95513                       0.19353                      -0.22421
                       0.96341                       0.16680                      -0.20980
                       0.96818                       0.15264                      -0.19830
                       0.97282                       0.13865                      -0.18548
                       0.97744                       0.12416                      -0.17085
                       0.98186                       0.10997                      -0.15447
                       0.98586                       0.09710                      -0.13660
                       0.98947                       0.08502                      -0.11716
                       0.99254                       0.07424                      -0.09674
                       0.99481                       0.06677                      -0.07681
                       0.99649                       0.06059                      -0.05785
                       0.99772                       0.05368                      -0.04083
                       0.99858                       0.04546                      -0.02778
                       0.99899                       0.03885                      -0.02258
                       0.99909                       0.03629                      -0.02247
                       0.94989                       0.20192                      -0.23861
        </DataArray>
        <DataArray type="Float32" Name="OrientationY" NumberOfComponents="3" format="ascii">
                       0.26845                      -0.91804                       0.29179
                       0.26848                      -0.91797                       0.29197
                       0.26852                      -0.91788                       0.29221
                       0.25588                      -0.92043                       0.29554
                       0.22620                      -0.92590                       0.30258
                       0.20918                      -0.92860                       0.30650
                       0.19185                      -0.93109                       0.31026
                       0.17345                      -0.93347                       0.31394
                       0.15471                      -0.93560                       0.31735
                       0.13670                      -0.93740                       0.32029
                       0.11890                      -0.93895                       0.32284
                       0.10199                      -0.94023                       0.32490
                       0.08836                      -0.94113                       0.32630
                       0.07626                      -0.94184                       0.32729
                       0.06413                      -0.94249                       0.32802
                       0.05207                      -0.94306                       0.32851
                       0.04412                      -0.94339                       0.32873
                       0.04167                      -0.94349                       0.32878
                       0.26843                      -0.91807                       0.29171
        </DataArray>
        <DataArray type="Float32" Name="OrientationZ" NumberOfComponents="3" format="ascii">
                      -0.15940                      -0.34106                      -0.92643
                      -0.15715                      -0.34077                      -0.92692
                      -0.15364                      -0.34028                      -0.92769
                      -0.14917                      -0.33965                      -0.92865
                      -0.14378                      -0.33896                      -0.92975
                      -0.13735                      -0.33823                      -0.93099
                      -0.12968                      -0.33741                      -0.93238
                      -0.12051                      -0.33649                      -0.93395
                      -0.10963                      -0.33549                      -0.93564
                      -0.09694                      -0.33444                      -0.93742
                      -0.08256                      -0.33337                      -0.93917
                      -0.06684                      -0.33234                      -0.94079
                      -0.05050                      -0.33139                      -0.94214
                      -0.03465                      -0.33055                      -0.94315
                      -0.02088                      -0.32989                      -0.94379
                      -0.01127                      -0.32949                      -0.94409
                      -0.00853                      -0.32939                      -0.94415
                      -0.00926                      -0.32942                      -0.94414
                      -0.16015                      -0.34115                      -0.92627
        </DataArray>
      </PointData>
      <Lines>
        <DataArray type="Int32" Name="connectivity" format="ascii">
      0      1
      1      2
      2      3
      3      4
      4      5
      5      6
      6      7
      7      8
      8      9
      9     10
     10     11
     11     12
     12     13
     13     14
     14     15
     15     16
     16     17
     18      0
        </DataArray>
        <DataArray type="Int32" Name="offsets" format="ascii">
      2
      4
      6
      8
     10
     12
     14
     16
     18
     20
     22
     24
     26
     28
     30
     32
     34
     36
        </DataArray>
      </Lines>
    </Piece>
  </PolyData>
</VTKFile>
