<?xml version="1.0"?>
<VTKFile type="PolyData" version="0.1" byte_order="LittleEndian">
  <PolyData>
    <Piece NumberOfPoints="     19" NumberOfVerts="  0" NumberOfLines="     18"
           NumberOfStrips="  0" NumberOfPolys="      0">
      <Points>
        <DataArray type="Float32" NumberOfComponents="3" format="ascii">
                       3.10350                      -0.26344                      91.58931
                       3.20514                      -0.50532                      92.93060
                       3.38443                      -1.08226                      95.59833
                       3.55332                      -1.70373                      98.25892
                       3.75989                      -2.50782                     101.58018
                       4.06766                      -3.33380                     105.58570
                       4.40789                      -4.03386                     109.61113
                       4.75283                      -4.73336                     113.63627
                       5.10615                      -5.43058                     117.66111
                       5.46834                      -6.12735                     121.68527
                       5.83815                      -6.82701                     125.70823
                       6.21857                      -7.52811                     129.72996
                       6.60982                      -8.23042                     133.75044
                       7.01135                      -8.93371                     137.76974
                       7.42393                      -9.63779                     141.78780
                       7.77433                     -10.22492                     145.13547
                       8.05756                     -10.68699                     147.81465
                       8.34095                     -11.09497                     150.50372
                       8.48097                     -11.33997                     151.84087
        </DataArray>
      </Points>
      <PointData>
        <DataArray type="Float32" Name="Force" NumberOfComponents="3" format="ascii">
                       0.05590                       2.62561                       0.46225
                      72.04659                      24.81543                      -1.09571
                      89.54283                      58.71356                       3.55772
                      79.53911                      76.79969                       7.50013
                     699.47761                    -286.80146                    -105.61796
                     913.41447                    -330.32771                    -131.25522
                    1045.18944                    -309.81357                    -139.72523
                    1320.65641                    -329.29770                    -167.96625
                    1384.50114                    -282.22718                    -167.90146
                    1532.95990                    -262.58777                    -180.86939
                    1790.45516                    -246.34932                    -205.61975
                    1877.21768                    -203.78820                    -211.70252
                    2068.89615                    -185.98368                    -233.10056
                    1974.67996                    -122.95388                    -218.92832
                    1807.69392                     -58.85193                    -195.73801
                    1484.81863                      -1.42110                    -154.77800
                    1278.74020                      28.39845                    -128.79166
                     993.26889                      28.84034                     -98.86553
                    1360.91015                      14.45951                    -139.63028
        </DataArray>
        <DataArray type="Float32" Name="Moment" NumberOfComponents="3" format="ascii">
                       0.00000                       0.00000                       0.00000
                       0.00000                       0.00000                       0.00000
                       0.00000                       0.00000                       0.00000
                       0.00000                       0.00000                       0.00000
                     -14.70689                      33.45349                    -188.24115
                     -30.96966                      69.31244                    -389.95747
                     -42.05026                      92.30499                    -519.21780
                     -60.26324                     129.34540                    -727.40909
                     -83.91963                     175.57051                    -987.11229
                     -95.51147                     194.18140                   -1091.42248
                    -102.98551                     202.85681                   -1139.79600
                    -110.41555                     210.37291                   -1181.58978
                     -91.75969                     169.08496                    -949.32553
                     -92.02314                     164.33621                    -922.32026
                     -89.39005                     155.47160                    -872.28670
                     -80.16818                     137.32576                    -770.33141
                     -77.19700                     131.47871                    -737.47880
                     -43.19931                      73.55086                    -412.55328
                     -46.65348                      79.59497                    -446.46682
        </DataArray>
        <DataArray type="Float32" Name="TranslationalVelocity" NumberOfComponents="3" format="ascii">
                       0.05238                      -1.38509                      -0.21616
                       0.03314                      -2.62990                      -0.43918
                      -0.01320                      -5.10492                      -0.97141
                      -0.05546                      -7.57797                      -1.54667
                      -0.09244                     -10.67556                      -2.29512
                      -0.08728                     -14.43604                      -3.07255
                      -0.02058                     -18.24118                      -3.74173
                       0.10401                     -22.07008                      -4.41952
                       0.29809                     -25.92345                      -5.10566
                       0.57404                     -29.80055                      -5.80325
                       0.93395                     -33.69745                      -6.51530
                       1.39877                     -37.61497                      -7.24326
                       1.97752                     -41.55055                      -7.98793
                       2.67292                     -45.50100                      -8.74933
                       3.47735                     -49.46278                      -9.52665
                       4.21429                     -52.77010                     -10.18410
                       4.83576                     -55.41963                     -10.70687
                       5.46773                     -58.07955                     -11.17707
                       5.77810                     -59.40218                     -11.45190
        </DataArray>
        <DataArray type="Float32" Name="RotationalVelocity" NumberOfComponents="3" format="ascii">
                       0.91890                       0.00467                      -0.11126
                       0.91965                       0.00570                      -0.11114
                       0.92158                       0.00858                      -0.11077
                       0.92406                       0.01254                      -0.11026
                       0.92796                       0.01918                      -0.10938
                       0.93341                       0.02939                      -0.10798
                       0.93923                       0.04194                      -0.10619
                       0.94524                       0.05698                      -0.10398
                       0.95130                       0.07477                      -0.10128
                       0.95725                       0.09553                      -0.09805
                       0.96290                       0.11953                      -0.09421
                       0.96806                       0.14595                      -0.08991
                       0.97258                       0.17367                      -0.08533
                       0.97631                       0.20085                      -0.08079
                       0.97912                       0.22470                      -0.07676
                       0.98062                       0.23899                      -0.07434
                       0.98124                       0.24469                      -0.07337
                       0.98144                       0.24543                      -0.07326
                       0.98140                       0.24377                      -0.07355
        </DataArray>
        <DataArray type="Float32" Name="TranslationalAcceleration" NumberOfComponents="3" format="ascii">
                       0.43930                       0.24182                      -1.11510
                       0.33631                       0.47892                      -2.25716
                       0.13621                       1.03249                      -4.52715
                      -0.04211                       1.62272                      -6.80147
                      -0.22052                       2.38015                      -9.66429
                      -0.35095                       3.16035                     -13.17346
                      -0.36394                       3.81816                     -16.76594
                      -0.24358                       4.46268                     -20.42325
                       0.02339                       5.09346                     -24.15193
                       0.44498                       5.71457                     -27.95685
                       1.00736                       6.33242                     -31.83352
                       1.72387                       6.95003                     -35.79460
                       2.58416                       7.57223                     -39.84286
                       3.56903                       8.20333                     -43.97776
                       4.64862                       8.84660                     -48.19323
                       5.59125                       9.39168                     -51.75468
                       6.35590                       9.82495                     -54.62697
                       7.11289                      10.20646                     -57.51079
                       7.47594                      10.43664                     -58.94332
        </DataArray>
        <DataArray type="Float32" Name="OrientationX" NumberOfComponents="3" format="ascii">
                       0.96537                      -0.23404                      -0.11522
                       0.96536                      -0.23402                      -0.11536
                       0.96533                      -0.23395                      -0.11574
                       0.96529                      -0.23386                      -0.11625
                       0.96523                      -0.23371                      -0.11711
                       0.97261                      -0.20285                      -0.11353
                       0.97726                      -0.18036                      -0.11150
                       0.98086                      -0.16055                      -0.11015
                       0.98422                      -0.13952                      -0.10885
                       0.98718                      -0.11778                      -0.10770
                       0.98951                      -0.09709                      -0.10702
                       0.99136                      -0.07648                      -0.10655
                       0.99264                      -0.05771                      -0.10646
                       0.99331                      -0.04335                      -0.10701
                       0.99381                      -0.02927                      -0.10719
                       0.99414                      -0.01762                      -0.10667
                       0.99435                      -0.00905                      -0.10573
                       0.99447                      -0.00451                      -0.10495
                       0.99449                      -0.00455                      -0.10474
        </DataArray>
        <DataArray type="Float32" Name="OrientationY" NumberOfComponents="3" format="ascii">
                       0.24989                       0.95645                       0.15088
                       0.24989                       0.95644                       0.15090
                       0.24989                       0.95643                       0.15097
                       0.24990                       0.95642                       0.15104
                       0.24991                       0.95640                       0.15116
                       0.21901                       0.96333                       0.15500
                       0.19659                       0.96771                       0.15775
                       0.17694                       0.97111                       0.16015
                       0.15610                       0.97426                       0.16264
                       0.13459                       0.97704                       0.16516
                       0.11420                       0.97923                       0.16751
                       0.09393                       0.98099                       0.16983
                       0.07554                       0.98221                       0.17192
                       0.06159                       0.98290                       0.17352
                       0.04785                       0.98339                       0.17509
                       0.03636                       0.98365                       0.17638
                       0.02780                       0.98376                       0.17732
                       0.02322                       0.98379                       0.17781
                       0.02322                       0.98379                       0.17781
        </DataArray>
        <DataArray type="Float32" Name="OrientationZ" NumberOfComponents="3" format="ascii">
                       0.07489                      -0.17445                       0.98181
                       0.07502                      -0.17450                       0.98179
                       0.07537                      -0.17466                       0.98174
                       0.07586                      -0.17485                       0.98167
                       0.07668                      -0.17517                       0.98155
                       0.07793                      -0.17562                       0.98137
                       0.07945                      -0.17609                       0.98116
                       0.08125                      -0.17657                       0.98093
                       0.08336                      -0.17706                       0.98066
                       0.08578                      -0.17754                       0.98037
                       0.08853                      -0.17798                       0.98004
                       0.09153                      -0.17837                       0.97970
                       0.09464                      -0.17870                       0.97934
                       0.09766                      -0.17895                       0.97900
                       0.10028                      -0.17913                       0.97870
                       0.10182                      -0.17922                       0.97853
                       0.10241                      -0.17926                       0.97846
                       0.10244                      -0.17927                       0.97845
                       0.10223                      -0.17927                       0.97847
        </DataArray>
      </PointData>
      <Lines>
        <DataArray type="Int32" Name="connectivity" format="ascii">
      0      1
      1      2
      2      3
      3      4
      4      5
      5      6
      6      7
      7      8
      8      9
      9     10
     10     11
     11     12
     12     13
     13     14
     14     15
     15     16
     16     17
     17     18
        </DataArray>
        <DataArray type="Int32" Name="offsets" format="ascii">
      2
      4
      6
      8
     10
     12
     14
     16
     18
     20
     22
     24
     26
     28
     30
     32
     34
     36
        </DataArray>
      </Lines>
    </Piece>
  </PolyData>
</VTKFile>
