<?xml version="1.0"?>
<VTKFile type="PolyData" version="0.1" byte_order="LittleEndian">
  <PolyData>
    <Piece NumberOfPoints="     19" NumberOfVerts="  0" NumberOfLines="     18"
           NumberOfStrips="  0" NumberOfPolys="      0">
      <Points>
        <DataArray type="Float32" NumberOfComponents="3" format="ascii">
                       2.87360                       0.34125                      88.72320
                       2.64821                       0.68816                      87.42062
                       2.17935                       1.47379                      84.84289
                       1.70496                       2.30424                      82.27802
                       1.11387                       3.37120                      79.07936
                       0.46507                       4.51868                      75.19586
                      -0.14630                       5.54691                      71.27455
                      -0.73776                       6.57924                      67.35124
                      -1.30141                       7.61428                      63.42450
                      -1.83107                       8.65403                      59.49423
                      -2.32497                       9.70121                      55.56125
                      -2.77071                      10.75466                      51.62415
                      -3.16202                      11.81348                      47.68268
                      -3.49563                      12.87651                      43.73698
                      -3.77113                      13.94246                      39.78752
                      -3.96340                      14.83199                      36.49414
                      -4.09900                      15.53635                      33.85644
                      -4.23244                      16.18780                      31.20391
                      -4.29826                      16.55370                      29.88881
        </DataArray>
      </Points>
      <PointData>
        <DataArray type="Float32" Name="Force" NumberOfComponents="3" format="ascii">
                      -0.03922                      -1.20197                      -0.30979
                      58.00611                     -16.42301                     -14.32329
                      73.99920                     -43.94596                     -24.23942
                      67.62010                     -61.33034                     -27.61244
                     611.74949                     243.64359                     -37.96040
                     804.66894                     270.84153                     -59.72813
                     975.61818                     275.83023                     -81.32323
                    1301.65418                     316.54350                    -113.90267
                    1464.58648                     299.32975                    -131.74305
                    1738.10590                     308.01851                    -152.17522
                    2190.85072                     331.88754                    -181.05923
                    2555.38111                     335.58699                    -190.38816
                    3002.35266                     358.73698                    -188.99894
                    3285.72338                     344.01181                    -170.54461
                    3497.67685                     314.69852                    -147.25708
                    3585.62387                     273.03199                    -132.63609
                    3468.38784                     219.35573                    -125.91944
                    2505.63162                     126.52104                     -95.60690
                    1188.39642                     -35.52191                     -70.54513
        </DataArray>
        <DataArray type="Float32" Name="Moment" NumberOfComponents="3" format="ascii">
                       0.00000                       0.00000                       0.00000
                       0.00000                       0.00000                       0.00000
                       0.00000                       0.00000                       0.00000
                       0.00000                       0.00000                       0.00000
                      38.03109                     -59.98087                     227.90981
                      66.96151                    -108.21678                     411.40157
                      83.83828                    -139.77430                     531.70749
                     111.99755                    -194.33131                     739.82257
                     144.26413                    -263.65953                    1004.72966
                     150.60958                    -294.59115                    1123.94029
                     145.10758                    -310.55418                    1186.57297
                     135.63844                    -325.68261                    1246.46964
                     105.25409                    -291.67961                    1118.38532
                      88.00252                    -289.39634                    1111.71022
                      70.31398                    -279.04260                    1073.77722
                      57.75836                    -264.16272                    1017.63310
                      47.51201                    -233.85049                     901.31949
                      23.22801                    -117.55794                     453.18144
                      20.05199                    -100.79615                     388.54815
        </DataArray>
        <DataArray type="Float32" Name="TranslationalVelocity" NumberOfComponents="3" format="ascii">
                      -0.36411                       1.36351                       0.32886
                      -0.31155                       2.58589                       0.64531
                      -0.19623                       5.00656                       1.36202
                      -0.07646                       7.41288                       2.11872
                       0.07519                      10.40807                       3.08903
                       0.23926                      14.02709                       4.12950
                       0.38580                      17.66454                       5.05881
                       0.52935                      21.28964                       5.98947
                       0.67300                      24.90356                       6.91999
                       0.82298                      28.50700                       7.85179
                       0.98596                      32.10122                       8.78723
                       1.17255                      35.68648                       9.72449
                       1.39325                      39.26325                      10.66267
                       1.65723                      42.83164                      11.60110
                       1.96998                      46.39163                      12.53963
                       2.26636                      49.35255                      13.32172
                       2.52379                      51.72001                      13.94046
                       2.78730                      54.09976                      14.51149
                       2.92493                      55.27951                      14.83278
        </DataArray>
        <DataArray type="Float32" Name="RotationalVelocity" NumberOfComponents="3" format="ascii">
                       0.91875                      -0.00947                      -0.11631
                       0.91831                      -0.00940                      -0.11622
                       0.91724                      -0.00926                      -0.11599
                       0.91593                      -0.00906                      -0.11572
                       0.91392                      -0.00866                      -0.11526
                       0.91115                      -0.00792                      -0.11459
                       0.90826                      -0.00710                      -0.11388
                       0.90544                      -0.00669                      -0.11328
                       0.90283                      -0.00727                      -0.11298
                       0.90051                      -0.00943                      -0.11315
                       0.89850                      -0.01390                      -0.11398
                       0.89672                      -0.02072                      -0.11547
                       0.89513                      -0.02976                      -0.11757
                       0.89368                      -0.04047                      -0.12015
                       0.89241                      -0.05174                      -0.12289
                       0.89157                      -0.06021                      -0.12498
                       0.89113                      -0.06534                      -0.12625
                       0.89090                      -0.06886                      -0.12714
                       0.89087                      -0.06990                      -0.12741
        </DataArray>
        <DataArray type="Float32" Name="TranslationalAcceleration" NumberOfComponents="3" format="ascii">
                      -0.99730                       0.07545                       1.32977
                      -0.85763                      -0.13539                       2.47556
                      -0.57103                      -0.66013                       4.73894
                      -0.25233                      -1.29791                       6.95250
                       0.20824                      -2.24985                       9.63492
                       0.88242                      -3.49307                      12.77275
                       1.70764                      -4.90710                      15.82772
                       2.66340                      -6.60931                      18.76763
                       3.70402                      -8.60376                      21.60406
                       4.74795                     -10.89123                      24.35264
                       5.70272                     -13.43965                      27.03711
                       6.43642                     -16.26562                      29.66839
                       6.81186                     -19.34856                      32.26274
                       6.70745                     -22.65859                      34.83084
                       6.04596                     -26.15567                      37.37770
                       5.07837                     -29.17480                      39.48731
                       4.05517                     -31.63202                      41.17687
                       2.89885                     -34.07182                      42.91924
                       2.29295                     -35.31756                      43.75484
        </DataArray>
        <DataArray type="Float32" Name="OrientationX" NumberOfComponents="3" format="ascii">
                       0.96662                       0.23348                      -0.10551
                       0.96669                       0.23338                      -0.10511
                       0.96688                       0.23308                      -0.10397
                       0.96715                       0.23266                      -0.10242
                       0.96758                       0.23198                      -0.09983
                       0.97399                       0.20087                      -0.10489
                       0.97829                       0.17778                      -0.10652
                       0.98186                       0.15709                      -0.10621
                       0.98530                       0.13487                      -0.10483
                       0.98851                       0.11157                      -0.10197
                       0.99133                       0.08883                      -0.09679
                       0.99378                       0.06576                      -0.08991
                       0.99571                       0.04421                      -0.08132
                       0.99710                       0.02689                      -0.07125
                       0.99801                       0.01010                      -0.06226
                       0.99836                      -0.00325                      -0.05724
                       0.99836                      -0.01256                      -0.05577
                       0.99830                      -0.01737                      -0.05564
                       0.99828                      -0.01728                      -0.05597
        </DataArray>
        <DataArray type="Float32" Name="OrientationY" NumberOfComponents="3" format="ascii">
                       0.19619                      -0.93935                      -0.28129
                       0.19618                      -0.93933                      -0.28139
                       0.19614                      -0.93927                      -0.28162
                       0.19609                      -0.93919                      -0.28190
                       0.19602                      -0.93908                      -0.28231
                       0.16495                      -0.94584                      -0.27962
                       0.14240                      -0.95003                      -0.27780
                       0.12262                      -0.95323                      -0.27627
                       0.10167                      -0.95616                      -0.27462
                       0.08005                      -0.95870                      -0.27293
                       0.05958                      -0.96063                      -0.27138
                       0.03924                      -0.96208                      -0.26994
                       0.02080                      -0.96298                      -0.26877
                       0.00682                      -0.96338                      -0.26807
                      -0.00693                      -0.96355                      -0.26744
                      -0.01844                      -0.96354                      -0.26693
                      -0.02701                      -0.96345                      -0.26654
                      -0.03160                      -0.96336                      -0.26633
                      -0.03161                      -0.96336                      -0.26633
        </DataArray>
        <DataArray type="Float32" Name="OrientationZ" NumberOfComponents="3" format="ascii">
                      -0.16479                       0.25120                      -0.95380
                      -0.16441                       0.25139                      -0.95382
                      -0.16330                       0.25190                      -0.95388
                      -0.16178                       0.25255                      -0.95396
                      -0.15924                       0.25359                      -0.95411
                      -0.15537                       0.25504                      -0.95436
                      -0.15058                       0.25660                      -0.95472
                      -0.14464                       0.25823                      -0.95519
                      -0.13728                       0.25993                      -0.95582
                      -0.12821                       0.26163                      -0.95662
                      -0.11709                       0.26327                      -0.95759
                      -0.10425                       0.26473                      -0.95867
                      -0.09019                       0.26593                      -0.95976
                      -0.07585                       0.26680                      -0.96076
                      -0.06269                       0.26734                      -0.96156
                      -0.05428                       0.26755                      -0.96201
                      -0.05038                       0.26761                      -0.96221
                      -0.04898                       0.26763                      -0.96228
                      -0.04932                       0.26764                      -0.96226
        </DataArray>
      </PointData>
      <Lines>
        <DataArray type="Int32" Name="connectivity" format="ascii">
      0      1
      1      2
      2      3
      3      4
      4      5
      5      6
      6      7
      7      8
      8      9
      9     10
     10     11
     11     12
     12     13
     13     14
     14     15
     15     16
     16     17
     17     18
        </DataArray>
        <DataArray type="Int32" Name="offsets" format="ascii">
      2
      4
      6
      8
     10
     12
     14
     16
     18
     20
     22
     24
     26
     28
     30
     32
     34
     36
        </DataArray>
      </Lines>
    </Piece>
  </PolyData>
</VTKFile>
