<?xml version="1.0"?>
<VTKFile type="PolyData" version="0.1" byte_order="LittleEndian">
  <PolyData>
    <Piece NumberOfPoints="     17" NumberOfVerts="  0" NumberOfLines="      0"
           NumberOfStrips="  0" NumberOfPolys="      0">
      <Points>
        <DataArray type="Float32" NumberOfComponents="3" format="ascii">
                       2.73184                      -3.31517                      89.89940
                       2.54594                      -6.91803                      89.63068
                       2.36811                     -10.52089                      89.35668
                       2.20164                     -14.12376                      89.07571
                       2.04938                     -17.72661                      88.78664
                       1.91448                     -21.32943                      88.48871
                       1.80068                     -24.93217                      88.18120
                       1.71251                     -28.53471                      87.86336
                       1.65531                     -32.13689                      87.53448
                       1.63496                     -35.73836                      87.19401
                       1.65740                     -39.33866                      86.84158
                       1.72788                     -42.93715                      86.47722
                       1.84995                     -46.53308                      86.10139
                       2.02426                     -50.12577                      85.71505
                       2.24703                     -53.71488                      85.31981
                       2.50837                     -57.30073                      84.91805
                       2.79030                     -60.88471                      84.51298
        </DataArray>
      </Points>
      <PointData>
        <DataArray type="Float32" Name="Force" NumberOfComponents="3" format="ascii">
                     219.92916                     -17.79167                      85.65341
                     701.11652                     -51.99245                     235.25645
                    2247.72499                     -20.31476                   -1116.49013
                    3696.47076                     -17.87565                   -1862.97023
                    2245.77655                      -9.40352                   -1029.96447
                    4878.87395                     -11.40192                   -2036.15684
                    5932.78253                      10.02826                   -2230.98339
                    6633.02163                      51.40809                   -2246.11392
                    7169.25709                     114.71525                   -2227.58158
                    9111.72849                     238.15802                   -2612.57525
                   10536.44785                     406.62551                   -2812.92858
                   12073.60514                     638.75610                   -3065.98103
                    6937.52954                     444.04326                   -1694.89403
                   13845.53941                    1038.08765                   -3239.09493
                   13344.76714                    1158.10391                   -2955.56809
                   18887.34679                    1803.56003                   -3887.39797
                    7718.04563                     750.67006                   -1421.57430
        </DataArray>
        <DataArray type="Float32" Name="Moment" NumberOfComponents="3" format="ascii">
                     -17.70286                      -6.19725                      26.45064
                     208.23891                    -110.03602                     384.28596
                    1268.43520                    -589.21880                    2225.13023
                    1344.57337                    -821.34811                    2856.09492
                      74.91364                    -232.43503                     217.95712
                   -1079.14299                      52.94677                   -2338.85376
                    -709.38285                     455.87900                   -1572.27243
                    -143.79119                    1092.60333                     -42.12941
                     118.99795                    1134.35511                     776.17181
                     355.55475                     938.01920                    1698.41078
                    1023.05655                     554.86413                    4205.16066
                    1896.09675                    -379.60898                    7581.59176
                    -140.87667                      97.84047                    -491.74102
                   -2327.14026                     962.88344                   -9347.45780
                   -2059.42148                     865.81572                   -8672.13987
                    -479.16219                     206.45233                   -1427.82210
                    -102.68027                     168.46863                     174.78539
        </DataArray>
      </PointData>
    </Piece>
  </PolyData>
</VTKFile>
