<?xml version="1.0"?>
<VTKFile type="PolyData" version="0.1" byte_order="LittleEndian">
  <PolyData>
    <Piece NumberOfPoints="     19" NumberOfVerts="  0" NumberOfLines="     18"
           NumberOfStrips="  0" NumberOfPolys="      0">
      <Points>
        <DataArray type="Float32" NumberOfComponents="3" format="ascii">
                       2.63977                      -2.84312                      88.45934
                       2.26164                      -5.95160                      86.64778
                       1.88351                      -9.06007                      84.83621
                       1.50541                     -12.16854                      83.02463
                       1.12733                     -15.27700                      81.21304
                       0.74927                     -18.38546                      79.40143
                       0.37125                     -21.49392                      77.58980
                      -0.00674                     -24.60237                      75.77816
                      -0.38468                     -27.71081                      73.96650
                      -0.76258                     -30.81925                      72.15483
                      -1.14043                     -33.92768                      70.34313
                      -1.51822                     -37.03612                      68.53143
                      -1.89596                     -40.14455                      66.71970
                      -2.27365                     -43.25298                      64.90796
                      -2.65129                     -46.36140                      63.09622
                      -3.02890                     -49.46983                      61.28446
                      -3.40650                     -52.57826                      59.47270
                      -3.59530                     -54.13247                      58.56682
                       2.82884                      -1.28888                      89.36512
        </DataArray>
      </Points>
      <PointData>
        <DataArray type="Float32" Name="TranslationalVelocity" NumberOfComponents="3" format="ascii">
                      -0.31883                       1.59078                      -2.66544
                      -0.66860                       3.32986                      -5.57654
                      -1.01633                       5.06954                      -8.48908
                      -1.36117                       6.81000                     -11.40354
                      -1.70237                       8.55133                     -14.32023
                      -2.03920                      10.29355                     -17.23934
                      -2.37091                      12.03665                     -20.16100
                      -2.69673                      13.78060                     -23.08531
                      -3.01590                      15.52533                     -26.01234
                      -3.32764                      17.27076                     -28.94209
                      -3.63131                      19.01679                     -31.87453
                      -3.92645                      20.76330                     -34.80956
                      -4.21292                      22.51017                     -37.74698
                      -4.49111                      24.25729                     -40.68655
                      -4.76207                      26.00455                     -43.62787
                      -5.02781                      27.75191                     -46.57041
                      -5.29148                      29.49932                     -49.51348
                      -5.42328                      30.37304                     -50.98505
                      -0.14355                       0.72136                      -1.21018
        </DataArray>
        <DataArray type="Float32" Name="RotationalVelocity" NumberOfComponents="3" format="ascii">
                       0.93621                      -0.00084                      -0.11327
                       0.93656                      -0.00110                      -0.11291
                       0.93707                      -0.00149                      -0.11233
                       0.93768                      -0.00200                      -0.11158
                       0.93836                      -0.00263                      -0.11065
                       0.93908                      -0.00336                      -0.10955
                       0.93982                      -0.00419                      -0.10827
                       0.94057                      -0.00514                      -0.10681
                       0.94132                      -0.00619                      -0.10515
                       0.94206                      -0.00735                      -0.10332
                       0.94276                      -0.00858                      -0.10135
                       0.94342                      -0.00986                      -0.09929
                       0.94401                      -0.01112                      -0.09725
                       0.94450                      -0.01228                      -0.09537
                       0.94488                      -0.01322                      -0.09383
                       0.94511                      -0.01380                      -0.09289
                       0.94515                      -0.01382                      -0.09286
                       0.94511                      -0.01367                      -0.09311
                       0.93608                      -0.00076                      -0.11339
        </DataArray>
        <DataArray type="Float32" Name="TranslationalAcceleration" NumberOfComponents="3" format="ascii">
                       0.43603                       2.60817                       1.09041
                       0.81065                       5.46828                       2.51956
                       1.34516                       8.37799                       3.83526
                       2.10627                      11.35142                       5.00089
                       3.15336                      14.39610                       5.99203
                       4.54267                      17.51402                       6.79398
                       6.32773                      20.70424                       7.39735
                       8.55985                      23.96384                       7.79652
                      11.28793                      27.28769                       7.98993
                      14.55566                      30.66896                       7.97993
                      18.39702                      34.09956                       7.77284
                      22.83002                      37.57058                       7.37962
                      27.84857                      41.07301                       6.81626
                      33.41255                      44.59857                       6.10450
                      39.43623                      48.14007                       5.27349
                      45.77496                      51.69189                       4.36182
                      52.20973                      55.25084                       3.41918
                      55.41860                      57.03188                       2.94707
                       0.27968                       1.18836                       0.35283
        </DataArray>
        <DataArray type="Float32" Name="RotationalAcceleration" NumberOfComponents="3" format="ascii">
                       0.04113                      -0.06495                      -0.00140
                       0.06864                      -0.08476                       0.02686
                       0.10867                      -0.11580                       0.07176
                       0.15745                      -0.15620                       0.13090
                       0.21113                      -0.20509                       0.20359
                       0.26740                      -0.26191                       0.28934
                       0.32526                      -0.32616                       0.38752
                       0.38336                      -0.39751                       0.49782
                       0.44049                      -0.47539                       0.61952
                       0.49556                      -0.55870                       0.75098
                       0.54742                      -0.64561                       0.88928
                       0.59480                      -0.73327                       1.02981
                       0.63655                      -0.81756                       1.16573
                       0.67134                      -0.89285                       1.28766
                       0.69730                      -0.95172                       1.38326
                       0.71228                      -0.98473                       1.43678
                       0.71389                      -0.98010                       1.42850
                       0.71104                      -0.96676                       1.40620
                       0.03099                      -0.05816                      -0.01094
        </DataArray>
        <DataArray type="Float32" Name="OrientationX" NumberOfComponents="3" format="ascii">
                       0.93880                       0.08093                      -0.33482
                       0.93880                       0.08093                      -0.33482
                       0.93880                       0.08093                      -0.33482
                       0.94309                       0.07421                      -0.32416
                       0.95242                       0.05850                      -0.29913
                       0.95733                       0.04951                      -0.28473
                       0.96200                       0.04040                      -0.27005
                       0.96660                       0.03075                      -0.25443
                       0.97091                       0.02097                      -0.23852
                       0.97470                       0.01160                      -0.22321
                       0.97811                       0.00237                      -0.20805
                       0.98105                      -0.00637                      -0.19364
                       0.98321                      -0.01340                      -0.18199
                       0.98496                      -0.01963                      -0.17164
                       0.98658                      -0.02587                      -0.16124
                       0.98803                      -0.03206                      -0.15092
                       0.98890                      -0.03613                      -0.14411
                       0.98916                      -0.03738                      -0.14202
                       0.93880                       0.08092                      -0.33483
        </DataArray>
        <DataArray type="Float32" Name="OrientationY" NumberOfComponents="3" format="ascii">
                       0.32822                      -0.50511                       0.79821
                       0.32822                      -0.50511                       0.79821
                       0.32822                      -0.50511                       0.79821
                       0.31570                      -0.50614                       0.80259
                       0.28632                      -0.50820                       0.81225
                       0.26944                      -0.50916                       0.81741
                       0.25227                      -0.50996                       0.82237
                       0.23402                      -0.51064                       0.82733
                       0.21545                      -0.51114                       0.83206
                       0.19760                      -0.51144                       0.83629
                       0.17996                      -0.51156                       0.84019
                       0.16319                      -0.51153                       0.84363
                       0.14966                      -0.51140                       0.84621
                       0.13765                      -0.51120                       0.84837
                       0.12559                      -0.51092                       0.85041
                       0.11362                      -0.51057                       0.85230
                       0.10574                      -0.51030                       0.85347
                       0.10331                      -0.51021                       0.85383
                       0.32822                      -0.50511                       0.79821
        </DataArray>
        <DataArray type="Float32" Name="OrientationZ" NumberOfComponents="3" format="ascii">
                      -0.10453                      -0.85925                      -0.50076
                      -0.10452                      -0.85925                      -0.50076
                      -0.10452                      -0.85925                      -0.50076
                      -0.10451                      -0.85925                      -0.50076
                      -0.10451                      -0.85925                      -0.50077
                      -0.10450                      -0.85925                      -0.50077
                      -0.10449                      -0.85925                      -0.50078
                      -0.10448                      -0.85925                      -0.50078
                      -0.10447                      -0.85924                      -0.50079
                      -0.10445                      -0.85924                      -0.50079
                      -0.10444                      -0.85924                      -0.50080
                      -0.10442                      -0.85924                      -0.50080
                      -0.10441                      -0.85924                      -0.50080
                      -0.10439                      -0.85924                      -0.50081
                      -0.10438                      -0.85924                      -0.50081
                      -0.10438                      -0.85924                      -0.50081
                      -0.10438                      -0.85924                      -0.50081
                      -0.10438                      -0.85924                      -0.50081
                      -0.10453                      -0.85925                      -0.50075
        </DataArray>
      </PointData>
      <Lines>
        <DataArray type="Int32" Name="connectivity" format="ascii">
      0      1
      1      2
      2      3
      3      4
      4      5
      5      6
      6      7
      7      8
      8      9
      9     10
     10     11
     11     12
     12     13
     13     14
     14     15
     15     16
     16     17
     18      0
        </DataArray>
        <DataArray type="Int32" Name="offsets" format="ascii">
      2
      4
      6
      8
     10
     12
     14
     16
     18
     20
     22
     24
     26
     28
     30
     32
     34
     36
        </DataArray>
      </Lines>
    </Piece>
  </PolyData>
</VTKFile>
