<?xml version="1.0"?>
<VTKFile type="PolyData" version="0.1" byte_order="LittleEndian">
  <PolyData>
    <Piece NumberOfPoints="     17" NumberOfVerts="  0" NumberOfLines="      0"
           NumberOfStrips="  0" NumberOfPolys="      0">
      <Points>
        <DataArray type="Float32" NumberOfComponents="3" format="ascii">
                       3.15419                      -3.14146                      91.29774
                       3.15940                      -6.53735                      92.54484
                       3.17224                      -9.93471                      93.78787
                       3.19578                     -13.33400                      95.02545
                       3.23268                     -16.73548                      96.25667
                       3.28579                     -20.13926                      97.48089
                       3.35841                     -23.54541                      98.69748
                       3.45449                     -26.95394                      99.90575
                       3.57860                     -30.36473                     101.10501
                       3.73574                     -33.77752                     102.29463
                       3.93088                     -37.19186                     103.47412
                       4.16835                     -40.60708                     104.64322
                       4.45097                     -44.02238                     105.80203
                       4.77900                     -47.43694                     106.95108
                       5.14890                     -50.85013                     108.09156
                       5.55184                     -54.26179                     109.22558
                       5.97204                     -57.67250                     110.35630
        </DataArray>
      </Points>
      <PointData>
        <DataArray type="Float32" Name="Force" NumberOfComponents="3" format="ascii">
                     205.53132                      28.63016                      77.27528
                     651.16025                      84.27491                     222.57964
                    2018.05085                    -320.86807                    -912.34212
                    3320.90264                    -528.23541                   -1534.61882
                    2011.09362                    -280.27590                    -843.04600
                    4351.11030                    -523.31879                   -1654.87380
                    5275.90665                    -526.01325                   -1809.88709
                    5864.09910                    -463.90171                   -1818.68898
                    6328.47496                    -385.11696                   -1817.93693
                    8038.28480                    -341.62054                   -2153.80768
                    9276.05694                    -224.09740                   -2353.28032
                   10753.93439                     -81.40078                   -2662.26445
                    6194.05199                      32.13482                   -1502.76756
                   12315.49761                     226.89598                   -2909.17433
                   11783.98093                     392.95884                   -2681.81431
                   16490.57694                     777.70860                   -3537.83541
                    6893.33982                     392.51276                   -1351.37166
        </DataArray>
        <DataArray type="Float32" Name="Moment" NumberOfComponents="3" format="ascii">
                     -17.01908                       4.24718                      25.48867
                     180.63039                      58.76548                     349.89275
                    1132.06284                     404.38573                    2008.63875
                    1197.95958                     530.25686                    2591.47387
                      70.60189                     -27.62983                     232.19985
                    -926.64896                    -654.77152                   -1977.92608
                    -633.83425                      77.16433                   -1554.93061
                    -192.36652                    1312.36115                    -600.58850
                      17.07668                    1706.94215                      33.56298
                     196.86647                    2023.03720                     792.92687
                     740.29965                    2715.75930                    2940.95367
                    1509.79824                    3079.42107                    6172.81664
                    -137.62728                     102.94074                    -505.00413
                   -1932.03670                   -2372.70229                   -8065.82702
                   -1688.71664                   -2198.21106                   -7449.57684
                    -477.35758                     155.97028                   -1444.49829
                     -69.56644                     461.74174                     237.09717
        </DataArray>
      </PointData>
    </Piece>
  </PolyData>
</VTKFile>
