<?xml version="1.0"?>
<VTKFile type="PolyData" version="0.1" byte_order="LittleEndian">
  <PolyData>
    <Piece NumberOfPoints="     19" NumberOfVerts="  0" NumberOfLines="     18"
           NumberOfStrips="  0" NumberOfPolys="      0">
      <Points>
        <DataArray type="Float32" NumberOfComponents="3" format="ascii">
                       3.23920                      -0.11686                      93.41314
                       3.51639                      -0.24464                      97.01789
                       3.79372                      -0.37243                     100.62262
                       4.07125                      -0.50024                     104.22734
                       4.34903                      -0.62805                     107.83204
                       4.62709                      -0.75588                     111.43672
                       4.90547                      -0.88373                     115.04138
                       5.18420                      -1.01160                     118.64600
                       5.46332                      -1.13947                     122.25060
                       5.74285                      -1.26737                     125.85516
                       6.02281                      -1.39527                     129.45969
                       6.30320                      -1.52317                     133.06419
                       6.58402                      -1.65108                     136.66865
                       6.86523                      -1.77899                     140.27308
                       7.14676                      -1.90688                     143.87749
                       7.42851                      -2.03477                     147.48188
                       7.71032                      -2.16266                     151.08627
                       7.85121                      -2.22660                     152.88846
                       3.10063                      -0.05297                      91.61076
        </DataArray>
      </Points>
      <PointData>
        <DataArray type="Float32" Name="TranslationalVelocity" NumberOfComponents="3" format="ascii">
                      -0.01137                      -3.11617                      -0.11720
                      -0.02730                      -6.52301                      -0.23674
                      -0.03585                      -9.93036                      -0.35688
                      -0.03415                     -13.33854                      -0.47784
                      -0.01979                     -16.74774                      -0.59983
                       0.00931                     -20.15799                      -0.72302
                       0.05499                     -23.56929                      -0.84753
                       0.11887                     -26.98163                      -0.97352
                       0.20237                     -30.39493                      -1.10108
                       0.30660                     -33.80905                      -1.23029
                       0.43224                     -37.22378                      -1.36122
                       0.57934                     -40.63889                      -1.49385
                       0.74712                     -44.05411                      -1.62811
                       0.93361                     -47.46922                      -1.76385
                       1.13534                     -50.88404                      -1.90078
                       1.34694                     -54.29851                      -2.03847
                       1.56064                     -57.71272                      -2.17631
                       1.66689                     -59.41978                      -2.24518
                      -0.00196                      -1.41283                      -0.05755
        </DataArray>
        <DataArray type="Float32" Name="RotationalVelocity" NumberOfComponents="3" format="ascii">
                       0.93633                      -0.00120                      -0.11346
                       0.93642                       0.00041                      -0.11341
                       0.93662                       0.00289                      -0.11333
                       0.93690                       0.00609                      -0.11324
                       0.93719                       0.00990                      -0.11313
                       0.93749                       0.01426                      -0.11300
                       0.93779                       0.01909                      -0.11285
                       0.93808                       0.02435                      -0.11268
                       0.93834                       0.02997                      -0.11250
                       0.93856                       0.03584                      -0.11231
                       0.93871                       0.04183                      -0.11211
                       0.93878                       0.04774                      -0.11191
                       0.93879                       0.05329                      -0.11171
                       0.93874                       0.05811                      -0.11154
                       0.93865                       0.06174                      -0.11140
                       0.93856                       0.06358                      -0.11133
                       0.93851                       0.06290                      -0.11135
                       0.93850                       0.06184                      -0.11139
                       0.93631                      -0.00176                      -0.11347
        </DataArray>
        <DataArray type="Float32" Name="TranslationalAcceleration" NumberOfComponents="3" format="ascii">
                      -0.20763                       0.08338                      -3.04329
                      -0.58392                       0.24743                      -6.23238
                      -0.78391                       0.38099                      -9.43705
                      -0.73807                       0.47130                     -12.66381
                      -0.38769                       0.51108                     -15.91792
                       0.31746                       0.49849                     -19.20354
                       1.41989                       0.43355                     -22.52420
                       2.95477                       0.31763                     -25.88288
                       4.94947                       0.15436                     -29.28177
                       7.42203                      -0.05065                     -32.72222
                      10.37863                      -0.29033                     -36.20448
                      13.81009                      -0.55659                     -39.72746
                      17.68745                      -0.84111                     -43.28840
                      21.95659                      -1.13641                     -46.88246
                      26.53194                      -1.43618                     -50.50219
                      31.28926                      -1.73580                     -54.13694
                      36.05734                      -2.03340                     -57.77229
                      38.41948                      -2.18167                     -59.58806
                       0.01511                      -0.00444                      -1.45176
        </DataArray>
        <DataArray type="Float32" Name="RotationalAcceleration" NumberOfComponents="3" format="ascii">
                      -0.01682                      -0.01656                       0.00449
                      -0.01045                       0.02182                       0.00536
                      -0.00005                       0.08124                       0.00667
                       0.01335                       0.15822                       0.00837
                       0.02775                       0.25021                       0.01052
                       0.04216                       0.35503                       0.01313
                       0.05653                       0.47060                       0.01612
                       0.07019                       0.59491                       0.01948
                       0.08252                       0.72565                       0.02317
                       0.09308                       0.85995                       0.02712
                       0.10150                       0.99409                       0.03122
                       0.10757                       1.12328                       0.03534
                       0.11141                       1.24134                       0.03923
                       0.11334                       1.34050                       0.04259
                       0.11371                       1.41110                       0.04507
                       0.11312                       1.44135                       0.04618
                       0.11252                       1.41705                       0.04537
                       0.11235                       1.38933                       0.04440
                      -0.01893                      -0.02998                       0.00418
        </DataArray>
        <DataArray type="Float32" Name="OrientationX" NumberOfComponents="3" format="ascii">
                       0.96930                      -0.23155                      -0.08273
                       0.96930                      -0.23155                      -0.08276
                       0.96929                      -0.23154                      -0.08281
                       0.97231                      -0.21858                      -0.08264
                       0.97868                      -0.18826                      -0.08213
                       0.98189                      -0.17088                      -0.08184
                       0.98482                      -0.15322                      -0.08154
                       0.98758                      -0.13451                      -0.08119
                       0.99001                      -0.11550                      -0.08081
                       0.99200                      -0.09726                      -0.08044
                       0.99363                      -0.07927                      -0.08005
                       0.99488                      -0.06221                      -0.07966
                       0.99567                      -0.04845                      -0.07935
                       0.99621                      -0.03626                      -0.07906
                       0.99661                      -0.02404                      -0.07873
                       0.99685                      -0.01192                      -0.07837
                       0.99694                      -0.00395                      -0.07808
                       0.99695                      -0.00150                      -0.07798
                       0.96930                      -0.23155                      -0.08272
        </DataArray>
        <DataArray type="Float32" Name="OrientationY" NumberOfComponents="3" format="ascii">
                       0.23364                       0.97218                       0.01650
                       0.23364                       0.97218                       0.01649
                       0.23364                       0.97218                       0.01648
                       0.22072                       0.97518                       0.01758
                       0.19049                       0.98148                       0.02012
                       0.17316                       0.98466                       0.02156
                       0.15555                       0.98756                       0.02301
                       0.13689                       0.99028                       0.02454
                       0.11794                       0.99268                       0.02608
                       0.09975                       0.99463                       0.02755
                       0.08181                       0.99623                       0.02899
                       0.06480                       0.99744                       0.03035
                       0.05108                       0.99820                       0.03144
                       0.03892                       0.99872                       0.03240
                       0.02674                       0.99909                       0.03336
                       0.01465                       0.99930                       0.03431
                       0.00670                       0.99937                       0.03493
                       0.00425                       0.99937                       0.03512
                       0.23364                       0.97218                       0.01650
        </DataArray>
        <DataArray type="Float32" Name="OrientationZ" NumberOfComponents="3" format="ascii">
                       0.07661                      -0.03532                       0.99644
                       0.07664                      -0.03532                       0.99643
                       0.07669                      -0.03533                       0.99643
                       0.07675                      -0.03533                       0.99642
                       0.07682                      -0.03533                       0.99642
                       0.07690                      -0.03534                       0.99641
                       0.07700                      -0.03534                       0.99640
                       0.07710                      -0.03535                       0.99640
                       0.07721                      -0.03535                       0.99639
                       0.07733                      -0.03535                       0.99638
                       0.07745                      -0.03536                       0.99637
                       0.07757                      -0.03536                       0.99636
                       0.07768                      -0.03536                       0.99635
                       0.07778                      -0.03535                       0.99634
                       0.07786                      -0.03535                       0.99634
                       0.07790                      -0.03535                       0.99633
                       0.07789                      -0.03535                       0.99633
                       0.07787                      -0.03535                       0.99634
                       0.07660                      -0.03532                       0.99644
        </DataArray>
      </PointData>
      <Lines>
        <DataArray type="Int32" Name="connectivity" format="ascii">
      0      1
      1      2
      2      3
      3      4
      4      5
      5      6
      6      7
      7      8
      8      9
      9     10
     10     11
     11     12
     12     13
     13     14
     14     15
     15     16
     16     17
     18      0
        </DataArray>
        <DataArray type="Int32" Name="offsets" format="ascii">
      2
      4
      6
      8
     10
     12
     14
     16
     18
     20
     22
     24
     26
     28
     30
     32
     34
     36
        </DataArray>
      </Lines>
    </Piece>
  </PolyData>
</VTKFile>
