
Predictions were generated on 22-Mar-2021 at 15:19:35 using OpenFAST, compiled as a 64-bit application using double precision at commit v2.5.0-675-g3181b2e9-dirty
 linked with  NWTC Subroutine Library; ElastoDyn; InflowWind; AeroDyn

Description from the FAST input file: Elliptical wing test case for OLAF free vortex wake in AD15

Time	Wind1VelX	Wind1VelY	Wind1VelZ	OoPDefl1	IPDefl1	TwstDefl1	BldPitch1	Azimuth	RotSpeed	GenSpeed	TTDspFA	TTDspSS	TTDspTwst	Spn2MLxb1	Spn2MLyb1	RootFxb1	RootFyb1	RootFzb1	RootMxb1	RootMyb1	RootMzb1	RootFxb2	RotTorq	LSSGagMya	LSSGagMza	YawBrFxp	YawBrFyp	YawBrFzp	YawBrMxp	YawBrMyp	YawBrMzp	TwrBsFxt	TwrBsFyt	TwrBsFzt	TwrBsMxt	TwrBsMyt	TwrBsMzt	RtTSR	RtVAvgxh	RtVAvgyh	RtVAvgzh	RtSkew	RtAeroFxh	RtAeroFyh	RtAeroFzh	RtAeroMxh	RtAeroMyh	RtAeroMzh	RtAeroPwr	RtAeroCp	RtAeroCq	RtAeroCt	AB1N001Phi	AB1N002Phi	AB1N003Phi	AB1N004Phi	AB1N005Phi	AB1N006Phi	AB1N007Phi	AB1N008Phi	AB1N009Phi	AB1N010Phi	AB1N011Phi	AB1N012Phi	AB1N013Phi	AB1N014Phi	AB1N015Phi	AB1N016Phi	AB1N017Phi	AB1N018Phi	AB1N019Phi	AB1N020Phi	AB1N021Phi	AB1N022Phi	AB1N023Phi	AB1N024Phi	AB1N025Phi	AB1N026Phi	AB1N027Phi	AB1N028Phi	AB1N029Phi	AB1N030Phi	AB1N031Phi	AB1N032Phi	AB1N033Phi	AB1N034Phi	AB1N035Phi	AB1N036Phi	AB1N037Phi	AB1N038Phi	AB1N039Phi	AB1N040Phi	AB1N001Gam	AB1N002Gam	AB1N003Gam	AB1N004Gam	AB1N005Gam	AB1N006Gam	AB1N007Gam	AB1N008Gam	AB1N009Gam	AB1N010Gam	AB1N011Gam	AB1N012Gam	AB1N013Gam	AB1N014Gam	AB1N015Gam	AB1N016Gam	AB1N017Gam	AB1N018Gam	AB1N019Gam	AB1N020Gam	AB1N021Gam	AB1N022Gam	AB1N023Gam	AB1N024Gam	AB1N025Gam	AB1N026Gam	AB1N027Gam	AB1N028Gam	AB1N029Gam	AB1N030Gam	AB1N031Gam	AB1N032Gam	AB1N033Gam	AB1N034Gam	AB1N035Gam	AB1N036Gam	AB1N037Gam	AB1N038Gam	AB1N039Gam	AB1N040Gam	AB1N001Fn	AB1N002Fn	AB1N003Fn	AB1N004Fn	AB1N005Fn	AB1N006Fn	AB1N007Fn	AB1N008Fn	AB1N009Fn	AB1N010Fn	AB1N011Fn	AB1N012Fn	AB1N013Fn	AB1N014Fn	AB1N015Fn	AB1N016Fn	AB1N017Fn	AB1N018Fn	AB1N019Fn	AB1N020Fn	AB1N021Fn	AB1N022Fn	AB1N023Fn	AB1N024Fn	AB1N025Fn	AB1N026Fn	AB1N027Fn	AB1N028Fn	AB1N029Fn	AB1N030Fn	AB1N031Fn	AB1N032Fn	AB1N033Fn	AB1N034Fn	AB1N035Fn	AB1N036Fn	AB1N037Fn	AB1N038Fn	AB1N039Fn	AB1N040Fn	AB1N001Ft	AB1N002Ft	AB1N003Ft	AB1N004Ft	AB1N005Ft	AB1N006Ft	AB1N007Ft	AB1N008Ft	AB1N009Ft	AB1N010Ft	AB1N011Ft	AB1N012Ft	AB1N013Ft	AB1N014Ft	AB1N015Ft	AB1N016Ft	AB1N017Ft	AB1N018Ft	AB1N019Ft	AB1N020Ft	AB1N021Ft	AB1N022Ft	AB1N023Ft	AB1N024Ft	AB1N025Ft	AB1N026Ft	AB1N027Ft	AB1N028Ft	AB1N029Ft	AB1N030Ft	AB1N031Ft	AB1N032Ft	AB1N033Ft	AB1N034Ft	AB1N035Ft	AB1N036Ft	AB1N037Ft	AB1N038Ft	AB1N039Ft	AB1N040Ft	AB1N001Cl	AB1N002Cl	AB1N003Cl	AB1N004Cl	AB1N005Cl	AB1N006Cl	AB1N007Cl	AB1N008Cl	AB1N009Cl	AB1N010Cl	AB1N011Cl	AB1N012Cl	AB1N013Cl	AB1N014Cl	AB1N015Cl	AB1N016Cl	AB1N017Cl	AB1N018Cl	AB1N019Cl	AB1N020Cl	AB1N021Cl	AB1N022Cl	AB1N023Cl	AB1N024Cl	AB1N025Cl	AB1N026Cl	AB1N027Cl	AB1N028Cl	AB1N029Cl	AB1N030Cl	AB1N031Cl	AB1N032Cl	AB1N033Cl	AB1N034Cl	AB1N035Cl	AB1N036Cl	AB1N037Cl	AB1N038Cl	AB1N039Cl	AB1N040Cl	AB1N001Cd	AB1N002Cd	AB1N003Cd	AB1N004Cd	AB1N005Cd	AB1N006Cd	AB1N007Cd	AB1N008Cd	AB1N009Cd	AB1N010Cd	AB1N011Cd	AB1N012Cd	AB1N013Cd	AB1N014Cd	AB1N015Cd	AB1N016Cd	AB1N017Cd	AB1N018Cd	AB1N019Cd	AB1N020Cd	AB1N021Cd	AB1N022Cd	AB1N023Cd	AB1N024Cd	AB1N025Cd	AB1N026Cd	AB1N027Cd	AB1N028Cd	AB1N029Cd	AB1N030Cd	AB1N031Cd	AB1N032Cd	AB1N033Cd	AB1N034Cd	AB1N035Cd	AB1N036Cd	AB1N037Cd	AB1N038Cd	AB1N039Cd	AB1N040Cd	AB1N001Cm	AB1N002Cm	AB1N003Cm	AB1N004Cm	AB1N005Cm	AB1N006Cm	AB1N007Cm	AB1N008Cm	AB1N009Cm	AB1N010Cm	AB1N011Cm	AB1N012Cm	AB1N013Cm	AB1N014Cm	AB1N015Cm	AB1N016Cm	AB1N017Cm	AB1N018Cm	AB1N019Cm	AB1N020Cm	AB1N021Cm	AB1N022Cm	AB1N023Cm	AB1N024Cm	AB1N025Cm	AB1N026Cm	AB1N027Cm	AB1N028Cm	AB1N029Cm	AB1N030Cm	AB1N031Cm	AB1N032Cm	AB1N033Cm	AB1N034Cm	AB1N035Cm	AB1N036Cm	AB1N037Cm	AB1N038Cm	AB1N039Cm	AB1N040Cm	AB1N001Cn	AB1N002Cn	AB1N003Cn	AB1N004Cn	AB1N005Cn	AB1N006Cn	AB1N007Cn	AB1N008Cn	AB1N009Cn	AB1N010Cn	AB1N011Cn	AB1N012Cn	AB1N013Cn	AB1N014Cn	AB1N015Cn	AB1N016Cn	AB1N017Cn	AB1N018Cn	AB1N019Cn	AB1N020Cn	AB1N021Cn	AB1N022Cn	AB1N023Cn	AB1N024Cn	AB1N025Cn	AB1N026Cn	AB1N027Cn	AB1N028Cn	AB1N029Cn	AB1N030Cn	AB1N031Cn	AB1N032Cn	AB1N033Cn	AB1N034Cn	AB1N035Cn	AB1N036Cn	AB1N037Cn	AB1N038Cn	AB1N039Cn	AB1N040Cn	AB1N001Ct	AB1N002Ct	AB1N003Ct	AB1N004Ct	AB1N005Ct	AB1N006Ct	AB1N007Ct	AB1N008Ct	AB1N009Ct	AB1N010Ct	AB1N011Ct	AB1N012Ct	AB1N013Ct	AB1N014Ct	AB1N015Ct	AB1N016Ct	AB1N017Ct	AB1N018Ct	AB1N019Ct	AB1N020Ct	AB1N021Ct	AB1N022Ct	AB1N023Ct	AB1N024Ct	AB1N025Ct	AB1N026Ct	AB1N027Ct	AB1N028Ct	AB1N029Ct	AB1N030Ct	AB1N031Ct	AB1N032Ct	AB1N033Ct	AB1N034Ct	AB1N035Ct	AB1N036Ct	AB1N037Ct	AB1N038Ct	AB1N039Ct	AB1N040Ct
(s)	(m/s)	(m/s)	(m/s)	(m)	(m)	(deg)	(deg)	(deg)	(rpm)	(rpm)	(m)	(m)	(deg)	(kN-m)	(kN-m)	(kN)	(kN)	(kN)	(kN-m)	(kN-m)	(kN-m)	INVALID	(kN-m)	(kN-m)	(kN-m)	(kN)	(kN)	(kN)	(kN-m)	(kN-m)	(kN-m)	(kN)	(kN)	(kN)	(kN-m)	(kN-m)	(kN-m)	(-)	(m/s)	(m/s)	(m/s)	(deg)	(N)	(N)	(N)	(N-m)	(N-m)	(N-m)	(W)	(-)	(-)	(-)	(deg)	(deg)	(deg)	(deg)	(deg)	(deg)	(deg)	(deg)	(deg)	(deg)	(deg)	(deg)	(deg)	(deg)	(deg)	(deg)	(deg)	(deg)	(deg)	(deg)	(deg)	(deg)	(deg)	(deg)	(deg)	(deg)	(deg)	(deg)	(deg)	(deg)	(deg)	(deg)	(deg)	(deg)	(deg)	(deg)	(deg)	(deg)	(deg)	(deg)	(m^2/s)	(m^2/s)	(m^2/s)	(m^2/s)	(m^2/s)	(m^2/s)	(m^2/s)	(m^2/s)	(m^2/s)	(m^2/s)	(m^2/s)	(m^2/s)	(m^2/s)	(m^2/s)	(m^2/s)	(m^2/s)	(m^2/s)	(m^2/s)	(m^2/s)	(m^2/s)	(m^2/s)	(m^2/s)	(m^2/s)	(m^2/s)	(m^2/s)	(m^2/s)	(m^2/s)	(m^2/s)	(m^2/s)	(m^2/s)	(m^2/s)	(m^2/s)	(m^2/s)	(m^2/s)	(m^2/s)	(m^2/s)	(m^2/s)	(m^2/s)	(m^2/s)	(m^2/s)	(N/m)	(N/m)	(N/m)	(N/m)	(N/m)	(N/m)	(N/m)	(N/m)	(N/m)	(N/m)	(N/m)	(N/m)	(N/m)	(N/m)	(N/m)	(N/m)	(N/m)	(N/m)	(N/m)	(N/m)	(N/m)	(N/m)	(N/m)	(N/m)	(N/m)	(N/m)	(N/m)	(N/m)	(N/m)	(N/m)	(N/m)	(N/m)	(N/m)	(N/m)	(N/m)	(N/m)	(N/m)	(N/m)	(N/m)	(N/m)	(N/m)	(N/m)	(N/m)	(N/m)	(N/m)	(N/m)	(N/m)	(N/m)	(N/m)	(N/m)	(N/m)	(N/m)	(N/m)	(N/m)	(N/m)	(N/m)	(N/m)	(N/m)	(N/m)	(N/m)	(N/m)	(N/m)	(N/m)	(N/m)	(N/m)	(N/m)	(N/m)	(N/m)	(N/m)	(N/m)	(N/m)	(N/m)	(N/m)	(N/m)	(N/m)	(N/m)	(N/m)	(N/m)	(N/m)	(N/m)	(-)	(-)	(-)	(-)	(-)	(-)	(-)	(-)	(-)	(-)	(-)	(-)	(-)	(-)	(-)	(-)	(-)	(-)	(-)	(-)	(-)	(-)	(-)	(-)	(-)	(-)	(-)	(-)	(-)	(-)	(-)	(-)	(-)	(-)	(-)	(-)	(-)	(-)	(-)	(-)	(-)	(-)	(-)	(-)	(-)	(-)	(-)	(-)	(-)	(-)	(-)	(-)	(-)	(-)	(-)	(-)	(-)	(-)	(-)	(-)	(-)	(-)	(-)	(-)	(-)	(-)	(-)	(-)	(-)	(-)	(-)	(-)	(-)	(-)	(-)	(-)	(-)	(-)	(-)	(-)	(-)	(-)	(-)	(-)	(-)	(-)	(-)	(-)	(-)	(-)	(-)	(-)	(-)	(-)	(-)	(-)	(-)	(-)	(-)	(-)	(-)	(-)	(-)	(-)	(-)	(-)	(-)	(-)	(-)	(-)	(-)	(-)	(-)	(-)	(-)	(-)	(-)	(-)	(-)	(-)	(-)	(-)	(-)	(-)	(-)	(-)	(-)	(-)	(-)	(-)	(-)	(-)	(-)	(-)	(-)	(-)	(-)	(-)	(-)	(-)	(-)	(-)	(-)	(-)	(-)	(-)	(-)	(-)	(-)	(-)	(-)	(-)	(-)	(-)	(-)	(-)	(-)	(-)	(-)	(-)	(-)	(-)	(-)	(-)	(-)	(-)	(-)	(-)	(-)	(-)	(-)	(-)	(-)	(-)	(-)	(-)	(-)	(-)	(-)	(-)	(-)	(-)	(-)	(-)	(-)	(-)	(-)	(-)	(-)	(-)	(-)	(-)	(-)	(-)	(-)	(-)	(-)	(-)	(-)	(-)
    0.0000	 1.000E+00	-0.000E+00	 1.000E-01	 0.000E+00	 0.000E+00	 0.000E+00	 0.000E+00	 2.700E+02	 0.000E+00	 0.000E+00	 0.000E+00	-0.000E+00	 0.000E+00	-1.877E-18	-3.065E-02	 0.000E+00	 4.903E-02	 6.005E-18	-1.226E-01	 0.000E+00	 0.000E+00	 0.000E+00	-1.226E-01	 0.000E+00	 0.000E+00	 0.000E+00	-0.000E+00	-4.903E-02	-1.226E-01	-0.000E+00	 0.000E+00	 0.000E+00	-0.000E+00	-5.884E+03	-1.226E-01	-0.000E+00	 0.000E+00	 0.000E+00	 1.000E+00	-1.000E-01	-1.225E-17	 5.711E+00	-1.512E-01	-1.512E+00	-2.120E-19	 3.780E+00	-3.780E-01	-4.630E-17	 0.000E+00	 0.000E+00	 1.572E-02	-3.143E-03	 9.571E+01	 9.571E+01	 9.571E+01	 9.571E+01	 9.571E+01	 9.571E+01	 9.571E+01	 9.571E+01	 9.571E+01	 9.571E+01	 9.571E+01	 9.571E+01	 9.571E+01	 9.571E+01	 9.571E+01	 9.571E+01	 9.571E+01	 9.571E+01	 9.571E+01	 9.571E+01	 9.571E+01	 9.571E+01	 9.571E+01	 9.571E+01	 9.571E+01	 9.571E+01	 9.571E+01	 9.571E+01	 9.571E+01	 9.571E+01	 9.571E+01	 9.571E+01	 9.571E+01	 9.571E+01	 9.571E+01	 9.571E+01	 9.571E+01	 9.571E+01	 9.571E+01	 9.571E+01	 3.147E-06	 2.533E-02	 5.047E-02	 7.530E-02	 9.966E-02	 1.234E-01	 1.462E-01	 1.682E-01	 1.890E-01	 2.087E-01	 2.269E-01	 2.437E-01	 2.590E-01	 2.725E-01	 2.843E-01	 2.942E-01	 3.022E-01	 3.083E-01	 3.124E-01	 3.144E-01	 3.144E-01	 3.124E-01	 3.083E-01	 3.022E-01	 2.942E-01	 2.843E-01	 2.725E-01	 2.590E-01	 2.437E-01	 2.269E-01	 2.087E-01	 1.890E-01	 1.682E-01	 1.462E-01	 1.234E-01	 9.966E-02	 7.530E-02	 5.047E-02	 2.533E-02	 3.147E-06	 3.855E-06	 3.103E-02	 6.183E-02	 9.225E-02	 1.221E-01	 1.511E-01	 1.791E-01	 2.060E-01	 2.316E-01	 2.556E-01	 2.780E-01	 2.986E-01	 3.173E-01	 3.338E-01	 3.483E-01	 3.604E-01	 3.703E-01	 3.777E-01	 3.827E-01	 3.852E-01	 3.852E-01	 3.827E-01	 3.777E-01	 3.703E-01	 3.604E-01	 3.483E-01	 3.338E-01	 3.173E-01	 2.986E-01	 2.780E-01	 2.556E-01	 2.316E-01	 2.060E-01	 1.791E-01	 1.511E-01	 1.221E-01	 9.225E-02	 6.183E-02	 3.103E-02	 3.855E-06	 3.855E-07	 3.103E-03	 6.183E-03	 9.225E-03	 1.221E-02	 1.511E-02	 1.791E-02	 2.060E-02	 2.316E-02	 2.556E-02	 2.780E-02	 2.986E-02	 3.173E-02	 3.338E-02	 3.483E-02	 3.604E-02	 3.703E-02	 3.777E-02	 3.827E-02	 3.852E-02	 3.852E-02	 3.827E-02	 3.777E-02	 3.703E-02	 3.604E-02	 3.483E-02	 3.338E-02	 3.173E-02	 2.986E-02	 2.780E-02	 2.556E-02	 2.316E-02	 2.060E-02	 1.791E-02	 1.511E-02	 1.221E-02	 9.225E-03	 6.183E-03	 3.103E-03	 3.855E-07	 6.262E-01	 6.262E-01	 6.262E-01	 6.262E-01	 6.262E-01	 6.262E-01	 6.262E-01	 6.262E-01	 6.262E-01	 6.262E-01	 6.262E-01	 6.262E-01	 6.262E-01	 6.262E-01	 6.262E-01	 6.262E-01	 6.262E-01	 6.262E-01	 6.262E-01	 6.262E-01	 6.262E-01	 6.262E-01	 6.262E-01	 6.262E-01	 6.262E-01	 6.262E-01	 6.262E-01	 6.262E-01	 6.262E-01	 6.262E-01	 6.262E-01	 6.262E-01	 6.262E-01	 6.262E-01	 6.262E-01	 6.262E-01	 6.262E-01	 6.262E-01	 6.262E-01	 6.262E-01	 0.000E+00	 0.000E+00	 0.000E+00	 0.000E+00	 0.000E+00	 0.000E+00	 0.000E+00	 0.000E+00	 0.000E+00	 0.000E+00	 0.000E+00	 0.000E+00	 0.000E+00	 0.000E+00	 0.000E+00	 0.000E+00	 0.000E+00	 0.000E+00	 0.000E+00	 0.000E+00	 0.000E+00	 0.000E+00	 0.000E+00	 0.000E+00	 0.000E+00	 0.000E+00	 0.000E+00	 0.000E+00	 0.000E+00	 0.000E+00	 0.000E+00	 0.000E+00	 0.000E+00	 0.000E+00	 0.000E+00	 0.000E+00	 0.000E+00	 0.000E+00	 0.000E+00	 0.000E+00	 0.000E+00	 0.000E+00	 0.000E+00	 0.000E+00	 0.000E+00	 0.000E+00	 0.000E+00	 0.000E+00	 0.000E+00	 0.000E+00	 0.000E+00	 0.000E+00	 0.000E+00	 0.000E+00	 0.000E+00	 0.000E+00	 0.000E+00	 0.000E+00	 0.000E+00	 0.000E+00	 0.000E+00	 0.000E+00	 0.000E+00	 0.000E+00	 0.000E+00	 0.000E+00	 0.000E+00	 0.000E+00	 0.000E+00	 0.000E+00	 0.000E+00	 0.000E+00	 0.000E+00	 0.000E+00	 0.000E+00	 0.000E+00	 0.000E+00	 0.000E+00	 0.000E+00	 0.000E+00	 6.231E-01	 6.231E-01	 6.231E-01	 6.231E-01	 6.231E-01	 6.231E-01	 6.231E-01	 6.231E-01	 6.231E-01	 6.231E-01	 6.231E-01	 6.231E-01	 6.231E-01	 6.231E-01	 6.231E-01	 6.231E-01	 6.231E-01	 6.231E-01	 6.231E-01	 6.231E-01	 6.231E-01	 6.231E-01	 6.231E-01	 6.231E-01	 6.231E-01	 6.231E-01	 6.231E-01	 6.231E-01	 6.231E-01	 6.231E-01	 6.231E-01	 6.231E-01	 6.231E-01	 6.231E-01	 6.231E-01	 6.231E-01	 6.231E-01	 6.231E-01	 6.231E-01	 6.231E-01	 6.231E-02	 6.231E-02	 6.231E-02	 6.231E-02	 6.231E-02	 6.231E-02	 6.231E-02	 6.231E-02	 6.231E-02	 6.231E-02	 6.231E-02	 6.231E-02	 6.231E-02	 6.231E-02	 6.231E-02	 6.231E-02	 6.231E-02	 6.231E-02	 6.231E-02	 6.231E-02	 6.231E-02	 6.231E-02	 6.231E-02	 6.231E-02	 6.231E-02	 6.231E-02	 6.231E-02	 6.231E-02	 6.231E-02	 6.231E-02	 6.231E-02	 6.231E-02	 6.231E-02	 6.231E-02	 6.231E-02	 6.231E-02	 6.231E-02	 6.231E-02	 6.231E-02	 6.231E-02
  100.0000	 1.000E+00	-0.000E+00	 1.000E-01	 0.000E+00	 0.000E+00	 0.000E+00	 0.000E+00	 2.700E+02	 0.000E+00	 0.000E+00	 0.000E+00	-0.000E+00	 0.000E+00	 7.993E-05	-2.985E-02	-1.512E-04	 4.752E-02	 6.005E-18	-1.188E-01	-3.780E-04	 8.712E-21	 0.000E+00	-1.188E-01	-3.780E-04	 8.712E-21	-1.512E-04	 1.850E-19	-4.752E-02	-1.188E-01	 5.501E-20	 3.780E-04	-1.512E-04	 1.850E-19	-5.884E+03	-1.188E-01	-1.512E-02	 3.780E-04	 0.000E+00	 1.000E+00	-1.000E-01	-1.225E-17	 5.711E+00	-8.758E-02	-1.152E+00	-1.227E-19	 2.880E+00	-2.189E-01	-2.681E-17	 0.000E+00	 0.000E+00	 1.197E-02	-1.820E-03	 9.418E+01	 9.422E+01	 9.429E+01	 9.433E+01	 9.434E+01	 9.434E+01	 9.435E+01	 9.435E+01	 9.435E+01	 9.435E+01	 9.435E+01	 9.435E+01	 9.435E+01	 9.435E+01	 9.435E+01	 9.435E+01	 9.435E+01	 9.435E+01	 9.435E+01	 9.435E+01	 9.435E+01	 9.435E+01	 9.435E+01	 9.435E+01	 9.435E+01	 9.435E+01	 9.435E+01	 9.435E+01	 9.435E+01	 9.435E+01	 9.435E+01	 9.435E+01	 9.435E+01	 9.435E+01	 9.434E+01	 9.434E+01	 9.433E+01	 9.429E+01	 9.422E+01	 9.418E+01	 2.394E-06	 1.913E-02	 3.797E-02	 5.708E-02	 7.569E-02	 9.377E-02	 1.112E-01	 1.279E-01	 1.438E-01	 1.587E-01	 1.727E-01	 1.854E-01	 1.970E-01	 2.073E-01	 2.163E-01	 2.239E-01	 2.300E-01	 2.346E-01	 2.377E-01	 2.392E-01	 2.392E-01	 2.377E-01	 2.346E-01	 2.300E-01	 2.239E-01	 2.163E-01	 2.073E-01	 1.970E-01	 1.854E-01	 1.727E-01	 1.587E-01	 1.438E-01	 1.279E-01	 1.112E-01	 9.377E-02	 7.569E-02	 5.708E-02	 3.797E-02	 1.913E-02	 2.394E-06	 3.051E-06	 2.399E-02	 4.664E-02	 7.004E-02	 9.287E-02	 1.150E-01	 1.364E-01	 1.570E-01	 1.764E-01	 1.948E-01	 2.118E-01	 2.275E-01	 2.417E-01	 2.544E-01	 2.654E-01	 2.746E-01	 2.821E-01	 2.878E-01	 2.916E-01	 2.935E-01	 2.935E-01	 2.916E-01	 2.878E-01	 2.821E-01	 2.746E-01	 2.654E-01	 2.544E-01	 2.417E-01	 2.275E-01	 2.118E-01	 1.948E-01	 1.764E-01	 1.570E-01	 1.364E-01	 1.150E-01	 9.287E-02	 7.004E-02	 4.664E-02	 2.399E-02	 3.051E-06	 2.232E-07	 1.771E-03	 3.501E-03	 5.303E-03	 7.048E-03	 8.738E-03	 1.037E-02	 1.193E-02	 1.341E-02	 1.480E-02	 1.610E-02	 1.730E-02	 1.838E-02	 1.934E-02	 2.018E-02	 2.088E-02	 2.145E-02	 2.188E-02	 2.217E-02	 2.231E-02	 2.231E-02	 2.217E-02	 2.188E-02	 2.145E-02	 2.088E-02	 2.018E-02	 1.934E-02	 1.838E-02	 1.730E-02	 1.610E-02	 1.480E-02	 1.341E-02	 1.193E-02	 1.037E-02	 8.738E-03	 7.048E-03	 5.303E-03	 3.501E-03	 1.771E-03	 2.232E-07	 4.589E-01	 4.629E-01	 4.707E-01	 4.749E-01	 4.759E-01	 4.763E-01	 4.765E-01	 4.766E-01	 4.767E-01	 4.767E-01	 4.767E-01	 4.767E-01	 4.767E-01	 4.768E-01	 4.768E-01	 4.768E-01	 4.768E-01	 4.768E-01	 4.768E-01	 4.768E-01	 4.768E-01	 4.768E-01	 4.768E-01	 4.768E-01	 4.768E-01	 4.768E-01	 4.768E-01	 4.767E-01	 4.767E-01	 4.767E-01	 4.767E-01	 4.767E-01	 4.766E-01	 4.765E-01	 4.763E-01	 4.759E-01	 4.749E-01	 4.707E-01	 4.629E-01	 4.589E-01	 0.000E+00	 0.000E+00	 0.000E+00	 0.000E+00	 0.000E+00	 0.000E+00	 0.000E+00	 0.000E+00	 0.000E+00	 0.000E+00	 0.000E+00	 0.000E+00	 0.000E+00	 0.000E+00	 0.000E+00	 0.000E+00	 0.000E+00	 0.000E+00	 0.000E+00	 0.000E+00	 0.000E+00	 0.000E+00	 0.000E+00	 0.000E+00	 0.000E+00	 0.000E+00	 0.000E+00	 0.000E+00	 0.000E+00	 0.000E+00	 0.000E+00	 0.000E+00	 0.000E+00	 0.000E+00	 0.000E+00	 0.000E+00	 0.000E+00	 0.000E+00	 0.000E+00	 0.000E+00	 0.000E+00	 0.000E+00	 0.000E+00	 0.000E+00	 0.000E+00	 0.000E+00	 0.000E+00	 0.000E+00	 0.000E+00	 0.000E+00	 0.000E+00	 0.000E+00	 0.000E+00	 0.000E+00	 0.000E+00	 0.000E+00	 0.000E+00	 0.000E+00	 0.000E+00	 0.000E+00	 0.000E+00	 0.000E+00	 0.000E+00	 0.000E+00	 0.000E+00	 0.000E+00	 0.000E+00	 0.000E+00	 0.000E+00	 0.000E+00	 0.000E+00	 0.000E+00	 0.000E+00	 0.000E+00	 0.000E+00	 0.000E+00	 0.000E+00	 0.000E+00	 0.000E+00	 0.000E+00	 4.577E-01	 4.617E-01	 4.694E-01	 4.735E-01	 4.746E-01	 4.749E-01	 4.751E-01	 4.752E-01	 4.753E-01	 4.753E-01	 4.754E-01	 4.754E-01	 4.754E-01	 4.754E-01	 4.754E-01	 4.754E-01	 4.754E-01	 4.754E-01	 4.754E-01	 4.754E-01	 4.754E-01	 4.754E-01	 4.754E-01	 4.754E-01	 4.754E-01	 4.754E-01	 4.754E-01	 4.754E-01	 4.754E-01	 4.754E-01	 4.753E-01	 4.753E-01	 4.752E-01	 4.751E-01	 4.749E-01	 4.746E-01	 4.735E-01	 4.694E-01	 4.617E-01	 4.577E-01	 3.349E-02	 3.407E-02	 3.523E-02	 3.586E-02	 3.601E-02	 3.607E-02	 3.610E-02	 3.612E-02	 3.613E-02	 3.613E-02	 3.614E-02	 3.614E-02	 3.614E-02	 3.614E-02	 3.614E-02	 3.614E-02	 3.614E-02	 3.614E-02	 3.614E-02	 3.614E-02	 3.614E-02	 3.614E-02	 3.614E-02	 3.614E-02	 3.614E-02	 3.614E-02	 3.614E-02	 3.614E-02	 3.614E-02	 3.614E-02	 3.613E-02	 3.613E-02	 3.612E-02	 3.610E-02	 3.607E-02	 3.601E-02	 3.586E-02	 3.523E-02	 3.407E-02	 3.349E-02
  200.0000	 1.000E+00	-0.000E+00	 1.000E-01	 0.000E+00	 0.000E+00	 0.000E+00	 0.000E+00	 2.700E+02	 0.000E+00	 0.000E+00	 0.000E+00	-0.000E+00	 0.000E+00	 1.262E-05	-3.023E-02	-2.394E-05	 4.824E-02	 6.005E-18	-1.206E-01	-5.984E-05	 1.383E-21	 0.000E+00	-1.206E-01	-5.984E-05	 1.383E-21	-2.394E-05	 9.697E-20	-4.824E-02	-1.206E-01	 8.712E-21	 5.984E-05	-2.394E-05	 9.697E-20	-5.884E+03	-1.206E-01	-2.394E-03	 5.984E-05	 0.000E+00	 1.000E+00	-1.000E-01	-1.225E-17	 5.711E+00	-8.758E-02	-1.152E+00	-1.227E-19	 2.880E+00	-2.189E-01	-2.681E-17	 0.000E+00	 0.000E+00	 1.198E-02	-1.821E-03	 9.418E+01	 9.422E+01	 9.429E+01	 9.433E+01	 9.434E+01	 9.434E+01	 9.435E+01	 9.435E+01	 9.435E+01	 9.435E+01	 9.435E+01	 9.435E+01	 9.435E+01	 9.435E+01	 9.435E+01	 9.435E+01	 9.435E+01	 9.435E+01	 9.435E+01	 9.435E+01	 9.435E+01	 9.435E+01	 9.435E+01	 9.435E+01	 9.435E+01	 9.435E+01	 9.435E+01	 9.435E+01	 9.435E+01	 9.435E+01	 9.435E+01	 9.435E+01	 9.435E+01	 9.435E+01	 9.434E+01	 9.434E+01	 9.433E+01	 9.429E+01	 9.422E+01	 9.418E+01	 2.394E-06	 1.913E-02	 3.797E-02	 5.708E-02	 7.570E-02	 9.377E-02	 1.112E-01	 1.279E-01	 1.438E-01	 1.588E-01	 1.727E-01	 1.855E-01	 1.970E-01	 2.073E-01	 2.163E-01	 2.239E-01	 2.300E-01	 2.346E-01	 2.377E-01	 2.392E-01	 2.392E-01	 2.377E-01	 2.346E-01	 2.300E-01	 2.239E-01	 2.163E-01	 2.073E-01	 1.970E-01	 1.855E-01	 1.727E-01	 1.588E-01	 1.438E-01	 1.279E-01	 1.112E-01	 9.377E-02	 7.570E-02	 5.708E-02	 3.797E-02	 1.913E-02	 2.394E-06	 3.051E-06	 2.399E-02	 4.665E-02	 7.004E-02	 9.287E-02	 1.150E-01	 1.364E-01	 1.570E-01	 1.764E-01	 1.948E-01	 2.118E-01	 2.275E-01	 2.417E-01	 2.544E-01	 2.654E-01	 2.746E-01	 2.821E-01	 2.878E-01	 2.916E-01	 2.935E-01	 2.935E-01	 2.916E-01	 2.878E-01	 2.821E-01	 2.746E-01	 2.654E-01	 2.544E-01	 2.417E-01	 2.275E-01	 2.118E-01	 1.948E-01	 1.764E-01	 1.570E-01	 1.364E-01	 1.150E-01	 9.287E-02	 7.004E-02	 4.665E-02	 2.399E-02	 3.051E-06	 2.232E-07	 1.771E-03	 3.501E-03	 5.304E-03	 7.048E-03	 8.738E-03	 1.037E-02	 1.193E-02	 1.341E-02	 1.481E-02	 1.610E-02	 1.730E-02	 1.838E-02	 1.934E-02	 2.018E-02	 2.088E-02	 2.145E-02	 2.188E-02	 2.217E-02	 2.231E-02	 2.231E-02	 2.217E-02	 2.188E-02	 2.145E-02	 2.088E-02	 2.018E-02	 1.934E-02	 1.838E-02	 1.730E-02	 1.610E-02	 1.481E-02	 1.341E-02	 1.193E-02	 1.037E-02	 8.738E-03	 7.048E-03	 5.304E-03	 3.501E-03	 1.771E-03	 2.232E-07	 4.589E-01	 4.629E-01	 4.707E-01	 4.749E-01	 4.759E-01	 4.763E-01	 4.765E-01	 4.766E-01	 4.767E-01	 4.767E-01	 4.767E-01	 4.767E-01	 4.768E-01	 4.768E-01	 4.768E-01	 4.768E-01	 4.768E-01	 4.768E-01	 4.768E-01	 4.768E-01	 4.768E-01	 4.768E-01	 4.768E-01	 4.768E-01	 4.768E-01	 4.768E-01	 4.768E-01	 4.768E-01	 4.767E-01	 4.767E-01	 4.767E-01	 4.767E-01	 4.766E-01	 4.765E-01	 4.763E-01	 4.759E-01	 4.749E-01	 4.707E-01	 4.629E-01	 4.589E-01	 0.000E+00	 0.000E+00	 0.000E+00	 0.000E+00	 0.000E+00	 0.000E+00	 0.000E+00	 0.000E+00	 0.000E+00	 0.000E+00	 0.000E+00	 0.000E+00	 0.000E+00	 0.000E+00	 0.000E+00	 0.000E+00	 0.000E+00	 0.000E+00	 0.000E+00	 0.000E+00	 0.000E+00	 0.000E+00	 0.000E+00	 0.000E+00	 0.000E+00	 0.000E+00	 0.000E+00	 0.000E+00	 0.000E+00	 0.000E+00	 0.000E+00	 0.000E+00	 0.000E+00	 0.000E+00	 0.000E+00	 0.000E+00	 0.000E+00	 0.000E+00	 0.000E+00	 0.000E+00	 0.000E+00	 0.000E+00	 0.000E+00	 0.000E+00	 0.000E+00	 0.000E+00	 0.000E+00	 0.000E+00	 0.000E+00	 0.000E+00	 0.000E+00	 0.000E+00	 0.000E+00	 0.000E+00	 0.000E+00	 0.000E+00	 0.000E+00	 0.000E+00	 0.000E+00	 0.000E+00	 0.000E+00	 0.000E+00	 0.000E+00	 0.000E+00	 0.000E+00	 0.000E+00	 0.000E+00	 0.000E+00	 0.000E+00	 0.000E+00	 0.000E+00	 0.000E+00	 0.000E+00	 0.000E+00	 0.000E+00	 0.000E+00	 0.000E+00	 0.000E+00	 0.000E+00	 0.000E+00	 4.577E-01	 4.617E-01	 4.694E-01	 4.735E-01	 4.746E-01	 4.750E-01	 4.752E-01	 4.753E-01	 4.753E-01	 4.754E-01	 4.754E-01	 4.754E-01	 4.754E-01	 4.754E-01	 4.754E-01	 4.754E-01	 4.754E-01	 4.754E-01	 4.754E-01	 4.754E-01	 4.754E-01	 4.754E-01	 4.754E-01	 4.754E-01	 4.754E-01	 4.754E-01	 4.754E-01	 4.754E-01	 4.754E-01	 4.754E-01	 4.754E-01	 4.753E-01	 4.753E-01	 4.752E-01	 4.750E-01	 4.746E-01	 4.735E-01	 4.694E-01	 4.617E-01	 4.577E-01	 3.349E-02	 3.407E-02	 3.523E-02	 3.586E-02	 3.601E-02	 3.608E-02	 3.611E-02	 3.612E-02	 3.613E-02	 3.614E-02	 3.614E-02	 3.614E-02	 3.614E-02	 3.614E-02	 3.614E-02	 3.614E-02	 3.614E-02	 3.614E-02	 3.614E-02	 3.614E-02	 3.614E-02	 3.614E-02	 3.614E-02	 3.614E-02	 3.614E-02	 3.614E-02	 3.614E-02	 3.614E-02	 3.614E-02	 3.614E-02	 3.614E-02	 3.613E-02	 3.612E-02	 3.611E-02	 3.608E-02	 3.601E-02	 3.586E-02	 3.523E-02	 3.407E-02	 3.349E-02
  300.0000	 1.000E+00	-0.000E+00	 1.000E-01	 0.000E+00	 0.000E+00	 0.000E+00	 0.000E+00	 2.700E+02	 0.000E+00	 0.000E+00	 0.000E+00	-0.000E+00	 0.000E+00	 4.628E-05	-3.004E-02	-8.758E-05	 4.788E-02	 6.005E-18	-1.197E-01	-2.190E-04	 5.048E-21	 0.000E+00	-1.197E-01	-2.190E-04	 5.048E-21	-8.758E-05	 1.410E-19	-4.788E-02	-1.197E-01	 3.186E-20	 2.190E-04	-8.758E-05	 1.410E-19	-5.884E+03	-1.197E-01	-8.758E-03	 2.190E-04	 0.000E+00	 1.000E+00	-1.000E-01	-1.225E-17	 5.711E+00	-8.758E-02	-1.152E+00	-1.227E-19	 2.880E+00	-2.190E-01	-2.681E-17	 0.000E+00	 0.000E+00	 1.198E-02	-1.821E-03	 9.418E+01	 9.422E+01	 9.429E+01	 9.433E+01	 9.434E+01	 9.434E+01	 9.435E+01	 9.435E+01	 9.435E+01	 9.435E+01	 9.435E+01	 9.435E+01	 9.435E+01	 9.435E+01	 9.435E+01	 9.435E+01	 9.435E+01	 9.435E+01	 9.435E+01	 9.435E+01	 9.435E+01	 9.435E+01	 9.435E+01	 9.435E+01	 9.435E+01	 9.435E+01	 9.435E+01	 9.435E+01	 9.435E+01	 9.435E+01	 9.435E+01	 9.435E+01	 9.435E+01	 9.435E+01	 9.434E+01	 9.434E+01	 9.433E+01	 9.429E+01	 9.422E+01	 9.418E+01	 2.394E-06	 1.913E-02	 3.797E-02	 5.708E-02	 7.570E-02	 9.377E-02	 1.112E-01	 1.279E-01	 1.438E-01	 1.588E-01	 1.727E-01	 1.855E-01	 1.970E-01	 2.073E-01	 2.163E-01	 2.239E-01	 2.300E-01	 2.346E-01	 2.377E-01	 2.392E-01	 2.392E-01	 2.377E-01	 2.346E-01	 2.300E-01	 2.239E-01	 2.163E-01	 2.073E-01	 1.970E-01	 1.855E-01	 1.727E-01	 1.588E-01	 1.438E-01	 1.279E-01	 1.112E-01	 9.377E-02	 7.570E-02	 5.708E-02	 3.797E-02	 1.913E-02	 2.394E-06	 3.051E-06	 2.399E-02	 4.665E-02	 7.004E-02	 9.287E-02	 1.150E-01	 1.364E-01	 1.570E-01	 1.764E-01	 1.948E-01	 2.118E-01	 2.275E-01	 2.417E-01	 2.544E-01	 2.654E-01	 2.746E-01	 2.821E-01	 2.878E-01	 2.916E-01	 2.935E-01	 2.935E-01	 2.916E-01	 2.878E-01	 2.821E-01	 2.746E-01	 2.654E-01	 2.544E-01	 2.417E-01	 2.275E-01	 2.118E-01	 1.948E-01	 1.764E-01	 1.570E-01	 1.364E-01	 1.150E-01	 9.287E-02	 7.004E-02	 4.665E-02	 2.399E-02	 3.051E-06	 2.232E-07	 1.771E-03	 3.501E-03	 5.304E-03	 7.048E-03	 8.738E-03	 1.037E-02	 1.193E-02	 1.341E-02	 1.481E-02	 1.610E-02	 1.730E-02	 1.838E-02	 1.934E-02	 2.018E-02	 2.088E-02	 2.145E-02	 2.188E-02	 2.217E-02	 2.231E-02	 2.231E-02	 2.217E-02	 2.188E-02	 2.145E-02	 2.088E-02	 2.018E-02	 1.934E-02	 1.838E-02	 1.730E-02	 1.610E-02	 1.481E-02	 1.341E-02	 1.193E-02	 1.037E-02	 8.738E-03	 7.048E-03	 5.304E-03	 3.501E-03	 1.771E-03	 2.232E-07	 4.589E-01	 4.629E-01	 4.707E-01	 4.749E-01	 4.759E-01	 4.763E-01	 4.765E-01	 4.766E-01	 4.767E-01	 4.767E-01	 4.767E-01	 4.767E-01	 4.768E-01	 4.768E-01	 4.768E-01	 4.768E-01	 4.768E-01	 4.768E-01	 4.768E-01	 4.768E-01	 4.768E-01	 4.768E-01	 4.768E-01	 4.768E-01	 4.768E-01	 4.768E-01	 4.768E-01	 4.768E-01	 4.767E-01	 4.767E-01	 4.767E-01	 4.767E-01	 4.766E-01	 4.765E-01	 4.763E-01	 4.759E-01	 4.749E-01	 4.707E-01	 4.629E-01	 4.589E-01	 0.000E+00	 0.000E+00	 0.000E+00	 0.000E+00	 0.000E+00	 0.000E+00	 0.000E+00	 0.000E+00	 0.000E+00	 0.000E+00	 0.000E+00	 0.000E+00	 0.000E+00	 0.000E+00	 0.000E+00	 0.000E+00	 0.000E+00	 0.000E+00	 0.000E+00	 0.000E+00	 0.000E+00	 0.000E+00	 0.000E+00	 0.000E+00	 0.000E+00	 0.000E+00	 0.000E+00	 0.000E+00	 0.000E+00	 0.000E+00	 0.000E+00	 0.000E+00	 0.000E+00	 0.000E+00	 0.000E+00	 0.000E+00	 0.000E+00	 0.000E+00	 0.000E+00	 0.000E+00	 0.000E+00	 0.000E+00	 0.000E+00	 0.000E+00	 0.000E+00	 0.000E+00	 0.000E+00	 0.000E+00	 0.000E+00	 0.000E+00	 0.000E+00	 0.000E+00	 0.000E+00	 0.000E+00	 0.000E+00	 0.000E+00	 0.000E+00	 0.000E+00	 0.000E+00	 0.000E+00	 0.000E+00	 0.000E+00	 0.000E+00	 0.000E+00	 0.000E+00	 0.000E+00	 0.000E+00	 0.000E+00	 0.000E+00	 0.000E+00	 0.000E+00	 0.000E+00	 0.000E+00	 0.000E+00	 0.000E+00	 0.000E+00	 0.000E+00	 0.000E+00	 0.000E+00	 0.000E+00	 4.577E-01	 4.617E-01	 4.694E-01	 4.735E-01	 4.746E-01	 4.750E-01	 4.752E-01	 4.753E-01	 4.753E-01	 4.754E-01	 4.754E-01	 4.754E-01	 4.754E-01	 4.754E-01	 4.754E-01	 4.754E-01	 4.754E-01	 4.754E-01	 4.754E-01	 4.754E-01	 4.754E-01	 4.754E-01	 4.754E-01	 4.754E-01	 4.754E-01	 4.754E-01	 4.754E-01	 4.754E-01	 4.754E-01	 4.754E-01	 4.754E-01	 4.753E-01	 4.753E-01	 4.752E-01	 4.750E-01	 4.746E-01	 4.735E-01	 4.694E-01	 4.617E-01	 4.577E-01	 3.349E-02	 3.408E-02	 3.523E-02	 3.586E-02	 3.602E-02	 3.608E-02	 3.611E-02	 3.612E-02	 3.613E-02	 3.614E-02	 3.614E-02	 3.614E-02	 3.614E-02	 3.614E-02	 3.614E-02	 3.614E-02	 3.614E-02	 3.614E-02	 3.614E-02	 3.614E-02	 3.614E-02	 3.614E-02	 3.614E-02	 3.614E-02	 3.614E-02	 3.614E-02	 3.614E-02	 3.614E-02	 3.614E-02	 3.614E-02	 3.614E-02	 3.613E-02	 3.612E-02	 3.611E-02	 3.608E-02	 3.602E-02	 3.586E-02	 3.523E-02	 3.408E-02	 3.349E-02
  400.0000	 1.000E+00	-0.000E+00	 1.000E-01	 0.000E+00	 0.000E+00	 0.000E+00	 0.000E+00	 2.700E+02	 0.000E+00	 0.000E+00	 0.000E+00	-0.000E+00	 0.000E+00	 4.628E-05	-3.004E-02	-8.758E-05	 4.788E-02	 6.005E-18	-1.197E-01	-2.190E-04	 5.048E-21	 0.000E+00	-1.197E-01	-2.190E-04	 5.048E-21	-8.758E-05	 1.410E-19	-4.788E-02	-1.197E-01	 3.186E-20	 2.190E-04	-8.758E-05	 1.410E-19	-5.884E+03	-1.197E-01	-8.758E-03	 2.190E-04	 0.000E+00	 1.000E+00	-1.000E-01	-1.225E-17	 5.711E+00	-8.758E-02	-1.152E+00	-1.227E-19	 2.880E+00	-2.190E-01	-2.681E-17	 0.000E+00	 0.000E+00	 1.198E-02	-1.821E-03	 9.418E+01	 9.422E+01	 9.429E+01	 9.433E+01	 9.434E+01	 9.434E+01	 9.435E+01	 9.435E+01	 9.435E+01	 9.435E+01	 9.435E+01	 9.435E+01	 9.435E+01	 9.435E+01	 9.435E+01	 9.435E+01	 9.435E+01	 9.435E+01	 9.435E+01	 9.435E+01	 9.435E+01	 9.435E+01	 9.435E+01	 9.435E+01	 9.435E+01	 9.435E+01	 9.435E+01	 9.435E+01	 9.435E+01	 9.435E+01	 9.435E+01	 9.435E+01	 9.435E+01	 9.435E+01	 9.434E+01	 9.434E+01	 9.433E+01	 9.429E+01	 9.422E+01	 9.418E+01	 2.394E-06	 1.913E-02	 3.797E-02	 5.708E-02	 7.570E-02	 9.377E-02	 1.112E-01	 1.279E-01	 1.438E-01	 1.588E-01	 1.727E-01	 1.855E-01	 1.970E-01	 2.073E-01	 2.163E-01	 2.239E-01	 2.300E-01	 2.346E-01	 2.377E-01	 2.392E-01	 2.392E-01	 2.377E-01	 2.346E-01	 2.300E-01	 2.239E-01	 2.163E-01	 2.073E-01	 1.970E-01	 1.855E-01	 1.727E-01	 1.588E-01	 1.438E-01	 1.279E-01	 1.112E-01	 9.377E-02	 7.570E-02	 5.708E-02	 3.797E-02	 1.913E-02	 2.394E-06	 3.051E-06	 2.399E-02	 4.665E-02	 7.004E-02	 9.287E-02	 1.150E-01	 1.364E-01	 1.570E-01	 1.764E-01	 1.948E-01	 2.118E-01	 2.275E-01	 2.417E-01	 2.544E-01	 2.654E-01	 2.746E-01	 2.821E-01	 2.878E-01	 2.916E-01	 2.935E-01	 2.935E-01	 2.916E-01	 2.878E-01	 2.821E-01	 2.746E-01	 2.654E-01	 2.544E-01	 2.417E-01	 2.275E-01	 2.118E-01	 1.948E-01	 1.764E-01	 1.570E-01	 1.364E-01	 1.150E-01	 9.287E-02	 7.004E-02	 4.665E-02	 2.399E-02	 3.051E-06	 2.232E-07	 1.771E-03	 3.501E-03	 5.304E-03	 7.048E-03	 8.738E-03	 1.037E-02	 1.193E-02	 1.341E-02	 1.481E-02	 1.610E-02	 1.730E-02	 1.838E-02	 1.934E-02	 2.018E-02	 2.088E-02	 2.145E-02	 2.188E-02	 2.217E-02	 2.231E-02	 2.231E-02	 2.217E-02	 2.188E-02	 2.145E-02	 2.088E-02	 2.018E-02	 1.934E-02	 1.838E-02	 1.730E-02	 1.610E-02	 1.481E-02	 1.341E-02	 1.193E-02	 1.037E-02	 8.738E-03	 7.048E-03	 5.304E-03	 3.501E-03	 1.771E-03	 2.232E-07	 4.589E-01	 4.629E-01	 4.707E-01	 4.749E-01	 4.759E-01	 4.763E-01	 4.765E-01	 4.766E-01	 4.767E-01	 4.767E-01	 4.767E-01	 4.768E-01	 4.768E-01	 4.768E-01	 4.768E-01	 4.768E-01	 4.768E-01	 4.768E-01	 4.768E-01	 4.768E-01	 4.768E-01	 4.768E-01	 4.768E-01	 4.768E-01	 4.768E-01	 4.768E-01	 4.768E-01	 4.768E-01	 4.768E-01	 4.767E-01	 4.767E-01	 4.767E-01	 4.766E-01	 4.765E-01	 4.763E-01	 4.759E-01	 4.749E-01	 4.707E-01	 4.629E-01	 4.589E-01	 0.000E+00	 0.000E+00	 0.000E+00	 0.000E+00	 0.000E+00	 0.000E+00	 0.000E+00	 0.000E+00	 0.000E+00	 0.000E+00	 0.000E+00	 0.000E+00	 0.000E+00	 0.000E+00	 0.000E+00	 0.000E+00	 0.000E+00	 0.000E+00	 0.000E+00	 0.000E+00	 0.000E+00	 0.000E+00	 0.000E+00	 0.000E+00	 0.000E+00	 0.000E+00	 0.000E+00	 0.000E+00	 0.000E+00	 0.000E+00	 0.000E+00	 0.000E+00	 0.000E+00	 0.000E+00	 0.000E+00	 0.000E+00	 0.000E+00	 0.000E+00	 0.000E+00	 0.000E+00	 0.000E+00	 0.000E+00	 0.000E+00	 0.000E+00	 0.000E+00	 0.000E+00	 0.000E+00	 0.000E+00	 0.000E+00	 0.000E+00	 0.000E+00	 0.000E+00	 0.000E+00	 0.000E+00	 0.000E+00	 0.000E+00	 0.000E+00	 0.000E+00	 0.000E+00	 0.000E+00	 0.000E+00	 0.000E+00	 0.000E+00	 0.000E+00	 0.000E+00	 0.000E+00	 0.000E+00	 0.000E+00	 0.000E+00	 0.000E+00	 0.000E+00	 0.000E+00	 0.000E+00	 0.000E+00	 0.000E+00	 0.000E+00	 0.000E+00	 0.000E+00	 0.000E+00	 0.000E+00	 4.577E-01	 4.617E-01	 4.694E-01	 4.735E-01	 4.746E-01	 4.750E-01	 4.752E-01	 4.753E-01	 4.753E-01	 4.754E-01	 4.754E-01	 4.754E-01	 4.754E-01	 4.754E-01	 4.754E-01	 4.754E-01	 4.754E-01	 4.754E-01	 4.754E-01	 4.754E-01	 4.754E-01	 4.754E-01	 4.754E-01	 4.754E-01	 4.754E-01	 4.754E-01	 4.754E-01	 4.754E-01	 4.754E-01	 4.754E-01	 4.754E-01	 4.753E-01	 4.753E-01	 4.752E-01	 4.750E-01	 4.746E-01	 4.735E-01	 4.694E-01	 4.617E-01	 4.577E-01	 3.349E-02	 3.408E-02	 3.523E-02	 3.586E-02	 3.602E-02	 3.608E-02	 3.611E-02	 3.612E-02	 3.613E-02	 3.614E-02	 3.614E-02	 3.614E-02	 3.614E-02	 3.614E-02	 3.614E-02	 3.614E-02	 3.614E-02	 3.614E-02	 3.614E-02	 3.614E-02	 3.614E-02	 3.614E-02	 3.614E-02	 3.614E-02	 3.614E-02	 3.614E-02	 3.614E-02	 3.614E-02	 3.614E-02	 3.614E-02	 3.614E-02	 3.613E-02	 3.612E-02	 3.611E-02	 3.608E-02	 3.602E-02	 3.586E-02	 3.523E-02	 3.408E-02	 3.349E-02