
Predictions were generated on 08-Sep-2022 at 14:21:33 using OpenFAST, compiled as a 64-bit application using double precision at commit v3.2.1-270-gf067eb99-dirty
 linked with  NWTC Subroutine Library; ElastoDyn; InflowWind; AeroDyn; ServoDyn; HydroDyn; MoorDyn (v2.a27, 2022-07-20)

Description from the FAST input file: FAST Certification Test #25: NREL 5.0 MW Baseline Wind Turbine with OC4-DeepCwind semi configuration, for use in offshore analysis

Time     B1Surge        B1Sway          B1Heave         B1Roll          B1Pitch        B1Yaw           B1TVxi          B1TVyi          B1TVzi          B1RVxi          B1RVyi          B1RVzi          B1TAxi          B1TAyi          B1TAzi          B1RAxi          B1RAyi          B1RAzi
(s)      (m)            (m)             (m)             (rad)           (rad)          (rad)           (m/s)           (m/s)           (m/s)           (rad/s)         (rad/s)         (rad/s)         (m/s^2)         (m/s^2)         (m/s^2)         (rad/s^2)       (rad/s^2)       (rad/s^2)
0.0000   5.0000000E+00  0.0000000E+00   0.0000000E+00   0.0000000E+00   3.3161256E-02  0.0000000E+00   0.0000000E+00   0.0000000E+00   0.0000000E+00   0.0000000E+00   0.0000000E+00   0.0000000E+00   -2.4809549E-02  -9.5634859E-05  2.6493585E-02   3.4662230E-06   -6.6295112E-03  -1.1669178E-07
0.0125   4.9999981E+00  -3.1541013E-08  2.0664929E-06   1.2260176E-09   3.3160739E-02  -4.0792675E-11  -3.0412432E-04  -7.3732044E-06  3.3019131E-04   2.8820170E-07   -8.2593913E-05  -9.5789261E-09  -2.3864903E-02  -3.8067097E-04  2.3847096E-02   1.3738853E-05   -6.6183573E-03  -1.0522813E-06
0.0250   4.9999924E+00  -1.5918364E-07  7.9337624E-06   6.0722378E-09   3.3159189E-02  -2.7550129E-10  -5.8685377E-04  -1.3169557E-05  5.9727934E-04   4.8597985E-07   -1.6498049E-04  -3.0413077E-08  -2.2359163E-02  -8.2655944E-04  2.3651199E-02   2.9684317E-05   -6.5862210E-03  -2.9061603E-06
0.0375   4.9999833E+00  -3.9452905E-07  1.7290584E-05   1.4634849E-08   3.3156615E-02  -9.3707098E-10  -8.5536769E-04  -2.4412202E-05  9.0456795E-04   8.7350804E-07   -2.4705697E-04  -7.9370558E-08  -2.0332359E-02  -1.2803068E-03  2.3394017E-02   4.5587927E-05   -6.5333960E-03  -5.2750315E-06
0.0500   4.9999714E+00  -8.0522608E-07  3.0405279E-05   2.9268534E-08   3.3153016E-02  -2.4025395E-09  -1.0962570E-03  -3.9944545E-05  1.1952940E-03   1.4032637E-06   -3.2837832E-04  -1.5817758E-07  -1.7917503E-02  -1.5789337E-03  2.3096362E-02   5.5366738E-05   -6.4648101E-03  -7.6724336E-06
0.0625   4.9999561E+00  -1.4249329E-06  4.7136138E-05   5.0958604E-08   3.3148412E-02  -5.0282365E-09  -1.3059024E-03  -5.7780417E-05  1.4820576E-03   2.0015846E-06   -4.0879849E-04  -2.6513752E-07  -1.5263414E-02  -1.5653461E-03  2.2759650E-02   5.3173157E-05   -6.3861827E-03  -9.5931864E-06
0.0750   4.9999390E+00  -2.2565034E-06  6.7430650E-05   7.9579564E-08   3.3142801E-02  -9.1198702E-09  -1.4818747E-03  -7.3199488E-05  1.7645017E-03   2.4896965E-06   -4.8821271E-04  -3.9124373E-07  -1.2534603E-02  -1.1224718E-03  2.2392269E-02   3.4670153E-05   -6.3038259E-03  -1.0637255E-05
0.0875   4.9999194E+00  -3.2340727E-06  9.1226706E-05   1.1240194E-07   3.3136211E-02  -1.4841095E-08  -1.6241457E-03  -8.1179671E-05  2.0421823E-03   2.6806504E-06   -5.6660787E-04  -5.2478435E-07  -9.8949876E-03  -2.0059607E-04  2.2001961E-02   -1.9357581E-06  -6.2240330E-03  -1.0553872E-05
0.1000   4.9998984E+00  -4.2293718E-06  1.1846273E-04   1.4438643E-07   3.3128642E-02  -2.2196341E-08  -1.7345560E-03  -7.5766744E-05  2.3148821E-03   2.3499983E-06   -6.4404245E-04  -6.5087011E-07  -7.4931453E-03  1.1752300E-03   2.1596299E-02   -5.5618286E-05  -6.1525078E-03  -9.2857599E-06
0.1125   4.9998760E+00  -5.0413219E-06  1.4907558E-04   1.6774712E-07   3.3120114E-02  -3.1002106E-08  -1.8166758E-03  -5.1988140E-05  2.5824269E-03   1.3118600E-06   -7.2064146E-04  -7.5555562E-07  -5.4454030E-03  2.9014498E-03   2.1182299E-02   -1.2239313E-04  -6.0937251E-03  -6.9831408E-06
0.1250   4.9998531E+00  -5.4175953E-06  1.8300023E-04   1.7279494E-07   3.3110630E-02  -4.0918753E-08  -1.8752932E-03  -6.2075428E-06  2.8447439E-03   -5.7039159E-07  -7.9657725E-04  -8.2748818E-07  -3.8401743E-03  4.8112781E-03   2.0765772E-02   -1.9589732E-04  -6.0510607E-03  -3.9860324E-06
0.1375   4.9998293E+00  -5.0735175E-06  2.2017129E-04   1.4862810E-07   3.3100199E-02  -5.1493995E-08  -1.9162429E-03  6.2905499E-05   3.1018155E-03   -3.3460167E-06  -8.7206211E-04  -8.6052495E-07  -2.7149157E-03  6.6976142E-03   2.0349493E-02   -2.6825635E-04  -6.0259430E-03  -7.7097104E-07
0.1500   4.9998050E+00  -3.7244793E-06  2.6052314E-04   8.4363620E-08   3.3088829E-02  -6.2238101E-08  -1.9453290E-03  1.5416225E-04   3.3536374E-03   -6.9694311E-06  -9.4730710E-04  -8.5477353E-07  -2.0400952E-03  8.3442237E-03   1.9933945E-02   -3.3126367E-04  -6.0172654E-03  2.1251892E-06
0.1625   4.9997807E+00  -1.1167735E-06  3.0399021E-04   -2.9704671E-08  3.3076517E-02  -7.2703855E-08  -1.9677535E-03  2.6378364E-04   3.6002242E-03   -1.1296852E-05  -1.0225021E-03  -8.1702188E-07  -1.7503817E-03  9.5585100E-03   1.9519489E-02   -3.7761862E-04  -6.0225213E-03  4.1909625E-06
0.1750   4.9997559E+00  2.9422276E-06   3.5050718E-04   -2.0096077E-07  3.3063266E-02  -8.2566451E-08  -1.9879634E-03  3.8587512E-04   3.8415969E-03   -1.6104184E-05  -1.0978081E-03  -7.5988623E-07  -1.7437480E-03  1.0201858E-02   1.9105472E-02   -4.0207224E-04  -6.0377894E-03  5.0165472E-06
0.1875   4.9997311E+00  8.5625579E-06   4.0000890E-04   -4.3364977E-07  3.3049069E-02  -9.1686857E-08  -2.0087333E-03  5.1314314E-04   4.0777521E-03   -2.1113658E-05  -1.1733213E-03  -7.0030029E-07  -1.8855664E-03  1.0211147E-02   1.8689541E-02   -4.0224002E-04  -6.0578971E-03  4.3415080E-06
0.2000   4.9997058E+00  1.5760115E-05   4.5242990E-04   -7.2843147E-07  3.3033930E-02  -1.0015399E-07  -2.0311761E-03  6.3787372E-04   4.3086619E-03   -2.6030704E-05  -1.2490749E-03  -6.5757496E-07  -2.0252599E-03  9.6093742E-03   1.8268794E-02   -3.7900123E-04  -6.0770586E-03  2.1083858E-06
0.2125   4.9996800E+00  2.4458112E-05   5.0770416E-04   -1.0824241E-06  3.3017844E-02  -1.0829685E-07  -2.0545106E-03  7.5298781E-04   4.5342585E-03   -3.0583789E-05  -1.3250294E-03  -6.5053814E-07  -2.0714987E-03  8.5030915E-03   1.7820751E-02   -3.3640038E-04  -6.0856743E-03  -1.5286208E-06
0.2250   4.9996543E+00  3.4501158E-05   5.6576199E-04   -1.4897252E-06  3.3000804E-02  -1.1666310E-07  -2.0775527E-03  8.5300271E-04   4.7539799E-03   -3.4560824E-05  -1.4009840E-03  -6.9506638E-07  -1.8211947E-03  7.0671109E-03   1.7361868E-02   -2.8106623E-04  -6.0820272E-03  -6.2306576E-06
0.2375   4.9996281E+00  4.5679910E-05   6.2653096E-04   -1.9423319E-06  3.2982819E-02  -1.2596912E-07  -2.0950029E-03  9.3476503E-04   4.9680118E-03   -3.7837108E-05  -1.4768267E-03  -8.0207155E-07  -1.1547145E-03  5.5188295E-03   1.6890533E-02   -2.2123945E-04  -6.0615004E-03  -1.1508626E-05
0.2500   4.9996018E+00  5.7762765E-05   6.8993808E-04   -2.4313319E-06  3.2963883E-02  -1.3702687E-07  -2.1015014E-03  9.9784590E-04   5.1761111E-03   -4.0390649E-05  -1.5523096E-03  -9.7576810E-07  1.3771441E-05   4.0864078E-03   1.6406620E-02   -1.6556676E-04  -6.0208035E-03  -1.6796828E-05
0.2625   4.9995756E+00  7.0529990E-05   7.5590838E-04   -2.9481901E-06  3.2944012E-02  -1.5065689E-07  -2.0905980E-03  1.0445386E-03   5.3781359E-03   -4.2302450E-05  -1.6271747E-03  -1.2132469E-06  1.7239400E-03   2.9754064E-03   1.5911136E-02   -1.2183737E-04  -5.9583969E-03  -2.1535634E-05
0.2750   4.9995499E+00  8.3805295E-05   8.2436512E-04   -3.4859443E-06  3.2923210E-02  -1.6760158E-07  -2.0555654E-03  1.0794457E-03   5.5739507E-03   -4.3741278E-05  -1.7011524E-03  -1.5049944E-06  3.9747413E-03   2.3384925E-03   1.5407079E-02   -9.5836207E-05  -5.8743176E-03  -2.5251242E-05
0.2875   4.9995246E+00  9.7480064E-05   8.9523004E-04   -4.0401255E-06  3.2901488E-02  -1.8845107E-07  -1.9898284E-03  1.1087412E-03   5.7634781E-03   -4.4936143E-05  -1.7739789E-03  -1.8363123E-06  6.7173853E-03   2.2538011E-03   1.4899061E-02   -9.0523921E-05  -5.7704300E-03  -2.7627071E-05
0.3000   4.9995003E+00  1.1152696E-04   9.6842455E-04   -4.6092860E-06  3.2878865E-02  -2.1359195E-07  -1.8877509E-03  1.1392110E-03   5.9466967E-03   -4.6140201E-05  -1.8454258E-03  -2.1895985E-06  9.8665282E-03   2.7138074E-03   1.4392795E-02   -1.0561566E-04  -5.6500132E-03  -2.8549603E-05
0.3125   4.9994774E+00  1.2600093E-04   1.0438699E-03   -5.1950469E-06  3.2855358E-02  -2.4318732E-07  -1.7447822E-03  1.1771844E-03   6.1236583E-03   -4.7590405E-05  -1.9153060E-03  -2.5470142E-06  1.3303024E-02   3.6270781E-03   1.3895011E-02   -1.3764700E-04  -5.5176388E-03  -2.8118018E-05
0.3250   4.9994569E+00  1.4102733E-04   1.1214887E-03   -5.8016626E-06  3.2830991E-02  -2.7718977E-07  -1.5580811E-03  1.2275744E-03   6.2945080E-03   -4.9471135E-05  -1.9834980E-03  -2.8929992E-06  1.6887750E-02   4.8320522E-03   1.3412949E-02   -1.8049596E-04  -5.3786496E-03  -2.6627355E-05
0.3375   4.9994388E+00  1.5677921E-04   1.2012062E-03   -6.4351752E-06  3.2805782E-02  -3.1538428E-07  -1.3265002E-03  1.2930940E-03   6.4594741E-03   -5.1884279E-05  -2.0499448E-03  -3.2165556E-06  2.0474708E-02   6.1206962E-03   1.2953988E-02   -2.2627918E-04  -5.2386569E-03  -2.4523766E-05
0.3500   4.9994240E+00  1.7344700E-04   1.2829506E-03   -7.1022750E-06  3.2779749E-02  -3.5745555E-07  -1.0507235E-03  1.3738166E-03   6.6188755E-03   -5.4832319E-05  -2.1146603E-03  -3.5127930E-06  2.3924209E-02   7.2685149E-03   1.2525178E-02   -2.6648931E-04  -5.1030316E-03  -2.2332950E-05
0.3625   4.9994125E+00  1.9120489E-04   1.3666550E-03   -7.8090334E-06  3.2752920E-02  -4.0306824E-07  -7.3306513E-04  1.4670995E-03   6.7731133E-03   -5.8214973E-05  -2.1777207E-03  -3.7834645E-06  2.7115809E-02   8.0662929E-03   1.2132597E-02   -2.9319825E-04  -4.9764095E-03  -2.0577341E-05
0.3750   4.9994059E+00  2.1017880E-04   1.4522576E-03   -8.5596903E-06  3.2725316E-02  -4.5194781E-07  -3.7719851E-04  1.5678975E-03   6.9226543E-03   -6.1840728E-05  -2.2392548E-03  -4.0364703E-06  2.9959165E-02   8.3490955E-03   1.1780920E-02   -3.0015744E-04  -4.8622726E-03  -1.9695131E-05
0.3875   4.9994035E+00  2.3042022E-04   1.5397031E-03   -9.3556637E-06  3.2696947E-02  -5.0394914E-07  1.2269784E-05   1.6694014E-03   7.0680152E-03   -6.5450695E-05  -2.2994278E-03  -4.2844217E-06  3.2402907E-02   8.0182068E-03   1.1472478E-02   -2.8363135E-04  -4.7626109E-03  -1.9978870E-05
0.4000   4.9994059E+00  2.5188967E-04   1.6289426E-03   -1.0194909E-05  3.2667834E-02  -5.5910317E-07  4.3031035E-04   1.7639113E-03   7.2097303E-03   -6.8751469E-05  -2.3584217E-03  -4.5426200E-06  3.4437034E-02   7.0535406E-03   1.1207457E-02   -2.4286949E-04  -4.6778242E-03  -2.1521912E-05
0.4125   4.9994140E+00  2.7445171E-04   1.7199337E-03   -1.1071726E-05  3.2637991E-02  -6.1763370E-07  8.7196665E-04   1.8438168E-03   7.3483321E-03   -7.1452239E-05  -2.4164161E-03  -4.8263109E-06  3.6048442E-02   5.5144429E-03   1.0969232E-02   -1.8014062E-04  -4.6023354E-03  -2.4209343E-05
0.4250   4.9994278E+00  2.9788198E-04   1.8126388E-03   -1.1977018E-05  3.2607425E-02  -6.7994159E-07  1.3318075E-03   1.9025370E-03   7.4839755E-03   -7.3300500E-05  -2.4734633E-03  -5.1482580E-06  3.7360862E-02   3.5298036E-03   1.0768912E-02   -1.0035779E-04  -4.5375340E-03  -2.7749657E-05
0.4375   4.9994473E+00  3.2188505E-04   1.9070252E-03   -1.2898953E-05  3.2576155E-02  -7.4656157E-07  1.8074081E-03   1.9353101E-03   7.6173600E-03   -7.4112308E-05  -2.5297496E-03  -5.5168866E-06  3.8482282E-02   1.2786970E-03   1.0600761E-02   -1.0349231E-05  -4.4792858E-03  -3.1723372E-05
0.4500   4.9994731E+00  3.4612051E-04   2.0030662E-03   -1.3823955E-05  3.2544184E-02  -8.1809907E-07  2.2968338E-03   1.9396999E-03   7.7487910E-03   -7.3791845E-05  -2.5853084E-03  -5.9350132E-06  3.9540064E-02   -1.0349882E-03  1.0458290E-02   8.2103317E-05   -4.4227373E-03  -3.5651283E-05
0.4625   4.9995050E+00  3.7023335E-04   2.1007396E-03   -1.4737855E-05  3.2511525E-02  -8.9515771E-07  2.7999145E-03   1.9158035E-03   7.8785634E-03   -7.2339848E-05  -2.6401384E-03  -6.3994989E-06  4.0674675E-02   -3.2099276E-03  1.0335728E-02   1.6930308E-04   -4.3625287E-03  -3.9054576E-05
0.4750   4.9995432E+00  3.9388484E-04   2.2000261E-03   -1.5627067E-05  3.2478184E-02  -9.7826569E-07  3.3183515E-03   1.8661052E-03   8.0069080E-03   -6.9848509E-05  -2.6941665E-03  -6.9014950E-06  4.2023107E-02   -5.0730486E-03  1.0227080E-02   2.4461350E-04   -4.2934394E-03  -4.1546275E-05
0.4875   4.9995880E+00  4.1677966E-04   2.3009083E-03   -1.6479637E-05  3.2444175E-02  -1.0678144E-06  3.8553802E-03   1.7950429E-03   8.1339739E-03   -6.6485525E-05  -2.7472621E-03  -7.4282252E-06  4.3709103E-02   -6.5003787E-03  1.0125732E-02   3.0325045E-04   -4.2107631E-03  -4.2910488E-05
0.5000   4.9996395E+00  4.3868620E-04   2.4033713E-03   -1.7286022E-05  3.2409508E-02  -1.1640249E-06  4.4157114E-03   1.7083386E-03   8.2598217E-03   -6.2469015E-05  -2.7992376E-03  -7.9654865E-06  4.5814153E-02   -7.4289707E-03  1.0027721E-02   3.4274117E-04   -4.1113854E-03  -4.3074167E-05
0.5125   4.9996986E+00  4.5944785E-04   2.5073998E-03   -1.8039551E-05  3.2374199E-02  -1.2669361E-06  5.0046695E-03   1.6122520E-03   8.3844885E-03   -5.8039415E-05  -2.8498818E-03  -8.4986341E-06  4.8378855E-02   -7.8597385E-03  9.9303918E-03   3.6303766E-04   -3.9937519E-03  -4.2094194E-05
0.5250   4.9997649E+00  4.7898496E-04   2.6129789E-03   -1.8736511E-05  3.2338265E-02  -1.3764111E-06  5.6280959E-03   1.5127815E-03   8.5079679E-03   -5.3428987E-05  -2.8989625E-03  -9.0142503E-06  5.1413883E-02   -7.8514880E-03  9.8320078E-03   3.6629540E-04   -3.8574755E-03  -4.0149287E-05
0.5375   4.9998393E+00  4.9728720E-04   2.7200941E-03   -1.9375886E-05  3.2301731E-02  -1.4921618E-06  6.2917615E-03   1.4150123E-03   8.6302431E-03   -4.8836937E-05  -2.9462515E-03  -9.5016521E-06  5.4900751E-02   -7.5065717E-03  9.7331405E-03   3.5633548E-04   -3.7033164E-03  -3.7503873E-05
0.5500   4.9999223E+00  5.1439920E-04   2.8287300E-03   -1.9958834E-05  3.2264620E-02  -1.6137884E-06  7.0010535E-03   1.3226591E-03   8.7513262E-03   -4.4411652E-05  -2.9915357E-03  -9.9536628E-06  5.8778923E-02   -6.9513898E-03  9.6350834E-03   3.3790985E-04   -3.5336385E-03  -3.4479406E-05
0.5625   5.0000148E+00  5.3040223E-04   2.9388717E-03   -2.0487994E-05  3.2226954E-02  -1.7408270E-06  7.7603110E-03   1.2378399E-03   8.8712312E-03   -4.0241532E-05  -3.0346420E-03  -1.0367282E-05  6.2953055E-02   -6.3153198E-03  9.5401434E-03   3.1590552E-04   -3.3521401E-03  -3.1407722E-05
0.5750   5.0001168E+00  5.4539437E-04   3.0505054E-03   -2.0966745E-05  3.2188762E-02  -1.8728011E-06  8.5726567E-03   1.1611192E-03   8.9900084E-03   -3.6356098E-05  -3.0754439E-03  -1.0743516E-05  6.7303374E-02   -5.7111015E-03  9.4514331E-03   2.9460207E-04   -3.1634541E-03  -2.8578161E-05
0.5875   5.0002294E+00  5.5947254E-04   3.1636169E-03   -2.1398524E-05  3.2150079E-02  -2.0092677E-06  9.4396034E-03   1.0917750E-03   9.1077462E-03   -3.2735563E-05  -3.1138780E-03  -1.1086563E-05  7.1696572E-02   -5.2198190E-03  9.3727037E-03   2.7710130E-04   -2.9727370E-03  -2.6197056E-05
0.6000   5.0003529E+00  5.7271920E-04   3.2781942E-03   -2.1786316E-05  3.2110926E-02  -2.1498495E-06  1.0361007E-02   1.0282239E-03   9.2245797E-03   -2.9326464E-05  -3.1499432E-03  -1.1402643E-05  7.5998217E-02   -4.8821243E-03  9.3077281E-03   2.6499154E-04   -2.7851874E-03  -2.4357256E-05
0.6125   5.0004883E+00  5.8519491E-04   3.3942275E-03   -2.2132341E-05  3.2071341E-02  -2.2942509E-06  1.1335104E-02   9.6853438E-04   9.3406942E-03   -2.6060876E-05  -3.1837029E-03  -1.1698463E-05  8.0049857E-02   -4.6969266E-03  9.2489403E-03   2.5829347E-04   -2.6009907E-03  -2.3030001E-05
0.6250   5.0006366E+00  5.9693685E-04   3.5117075E-03   -2.2438004E-05  3.2031346E-02  -2.4422557E-06  1.2357851E-02   9.1091584E-04   9.4560431E-03   -2.2874741E-05  -3.2151649E-03  -1.1979763E-05  8.3783738E-02   -4.6271877E-03  9.2094894E-03   2.5567471E-04   -2.4287309E-03  -2.2077003E-05
0.6375   5.0007977E+00  6.0796324E-04   3.6306269E-03   -2.2704027E-05  3.1990968E-02  -2.5937063E-06  1.3425494E-02   8.5412862E-04   9.5710475E-03   -1.9723480E-05  -3.2445688E-03  -1.2250081E-05  8.7128334E-02   -4.6111383E-03  9.1902670E-03   2.5486806E-04   -2.2711765E-03  -2.1280155E-05
0.6500   5.0009723E+00  6.1828189E-04   3.7509832E-03   -2.2930761E-05  3.1950239E-02  -2.7484712E-06  1.4532817E-02   7.9773314E-04   9.6858963E-03   -1.6591608E-05  -3.2720801E-03  -1.2509986E-05  9.0048894E-02   -4.5769615E-03  9.1910139E-03   2.5322248E-04   -2.1297119E-03  -2.0384583E-05
0.6625   5.0011611E+00  6.2790047E-04   3.8727752E-03   -2.3118560E-05  3.1909175E-02  -2.9064065E-06  1.5674539E-02   7.4215891E-04   9.8008281E-03   -1.3495642E-05  -3.2978996E-03  -1.2756873E-05  9.2549853E-02   -4.4581443E-03  9.2097167E-03   2.4827974E-04   -2.0042057E-03  -1.9146330E-05
0.6750   5.0013642E+00  6.3683686E-04   3.9960057E-03   -2.3268170E-05  3.1867798E-02  -3.0673182E-06  1.6845627E-02   6.8858912E-04   9.9160476E-03   -1.0480083E-05  -3.3222188E-03  -1.2985357E-05  9.4678007E-02   -4.2068241E-03  9.2434222E-03   2.3827690E-04   -1.8929132E-03  -1.7377506E-05
0.6875   5.0015821E+00  6.4512674E-04   4.1206796E-03   -2.3380995E-05  3.1826124E-02  -3.2309315E-06  1.8041853E-02   6.3869992E-04   1.0031726E-02   -7.6078836E-06  -3.3451996E-03  -1.3188180E-05  9.6499287E-02   -3.8028732E-03  9.2863049E-03   2.2248864E-04   -1.7933211E-03  -1.4988344E-05
0.7000   5.0018153E+00  6.5282761E-04   4.2468025E-03   -2.3459263E-05  3.1784173E-02  -3.3968786E-06  1.9259710E-02   5.9430016E-04   1.0147946E-02   -4.9470823E-06  -3.3669765E-03  -1.3357649E-05  9.8127313E-02   -3.2581051E-03  9.3341256E-03   2.0138576E-04   -1.7011394E-03  -1.1989038E-05
0.7125   5.0020638E+00  6.6001812E-04   4.3743821E-03   -2.3505992E-05  3.1741954E-02  -3.5646965E-06  2.0497689E-02   5.5694737E-04   1.0264751E-02   -2.5564893E-06  -3.3876083E-03  -1.3486670E-05  9.9665925E-02   -2.6132809E-03  9.3792928E-03   1.7652439E-04   -1.6123911E-03  -8.5071479E-06
0.7250   5.0023279E+00  6.6679256E-04   4.5034247E-03   -2.3524797E-05  3.1699486E-02  -3.7338482E-06  2.1754825E-02   5.2763626E-04   1.0382074E-02   -4.7396696E-07  -3.4071340E-03  -1.3570416E-05  1.0121904E-01   -1.9314232E-03  9.4135916E-03   1.5029401E-04   -1.5230855E-03  -4.7471735E-06
0.7375   5.0026078E+00  6.7325274E-04   4.6339366E-03   -2.3519571E-05  3.1656779E-02  -3.9037518E-06  2.3032051E-02   5.0652190E-04   1.0499728E-02   1.2941300E-06   -3.4255171E-03  -1.3606807E-05  1.0294999E-01   -1.2858933E-03  9.4371559E-03   1.2547050E-04   -1.4271075E-03  -9.2643404E-07
0.7500   5.0029039E+00  6.7949662E-04   4.7659203E-03   -2.3494074E-05  3.1613853E-02  -4.0738150E-06  2.4332633E-02   4.9292052E-04   1.0617632E-02   2.7728890E-06   -3.4426379E-03  -1.3596112E-05  1.0493301E-01   -7.4637850E-04  9.4423741E-03   1.0468803E-04   -1.3215936E-03  2.6662269E-06
0.7625   5.0032163E+00  6.8560871E-04   4.8993779E-03   -2.3451572E-05  3.1570718E-02  -4.2434758E-06  2.5659105E-02   4.8533487E-04   1.0735498E-02   4.0182849E-06   -3.4584021E-03  -1.3543029E-05  1.0723041E-01   -3.6678129E-04  9.4250441E-03   8.9984824E-05   -1.2041815E-03  5.7841412E-06
0.7750   5.0035453E+00  6.9165125E-04   5.0343070E-03   -2.3394485E-05  3.1527396E-02  -4.4122457E-06  2.7016247E-02   4.8169753E-04   1.0853015E-02   5.1080756E-06   -3.4726267E-03  -1.3454548E-05  1.0988951E-01   -1.7503271E-04  9.3848957E-03   8.2420411E-05   -1.0731252E-03  8.2630795E-06
0.7875   5.0038919E+00  6.9765898E-04   5.1707011E-03   -2.3324206E-05  3.1483911E-02  -4.5797333E-06  2.8408350E-02   4.7974550E-04   1.0969926E-02   6.1278306E-06   -3.4851527E-03  -1.3339083E-05  1.1289699E-01   -1.6799204E-04  9.3197962E-03   8.1883278E-05   -9.2895149E-04  9.9878398E-06
0.8000   5.0042558E+00  7.0363953E-04   5.3085512E-03   -2.3241100E-05  3.1440277E-02  -4.7456624E-06  2.9839396E-02   4.7735081E-04   1.1085900E-02   7.1586478E-06   -3.4958299E-03  -1.3206529E-05  1.1621526E-01   -3.1113741E-04  9.2303474E-03   8.7083288E-05   -7.7315065E-04  1.1013542E-05
0.8125   5.0046382E+00  7.0957711E-04   5.4478436E-03   -2.3144634E-05  3.1396523E-02  -4.9098685E-06  3.1313166E-02   4.7292330E-04   1.1200638E-02   8.2619454E-06   -3.5045168E-03  -1.3064518E-05  1.1975537E-01   -5.4417201E-04  9.1110608E-03   9.5763098E-05   -6.0359604E-04  1.1513792E-05
0.8250   5.0050387E+00  7.1544113E-04   5.5885594E-03   -2.3033697E-05  3.1352673E-02  -5.0722674E-06  3.2831527E-02   4.6565881E-04   1.1313707E-02   9.4702018E-06   -3.5110123E-03  -1.2918188E-05  1.2342728E-01   -7.9110800E-04  8.9711985E-03   1.0507760E-04   -4.2935810E-04  1.1725600E-05
0.8375   5.0054588E+00  7.2119676E-04   5.7306779E-03   -2.2906996E-05  3.1308759E-02  -5.2328219E-06  3.4395859E-02   4.5569183E-04   1.1424961E-02   1.0780998E-05   -3.5153599E-03  -1.2769673E-05  1.2711728E-01   -9.7305787E-04  8.8139018E-03   1.1207842E-04   -2.5482927E-04  1.1941281E-05
0.8500   5.0058990E+00  7.2681688E-04   5.8741742E-03   -2.2763479E-05  3.1264801E-02  -5.3914964E-06  3.6005739E-02   4.4407757E-04   1.1534167E-02   1.2157660E-05   -3.5175513E-03  -1.2617184E-05  1.3070239E-01   -1.0220421E-03  8.6428290E-03   1.1423346E-04   -8.4776409E-05  1.2432092E-05
0.8625   5.0063591E+00  7.3229230E-04   6.0190219E-03   -2.2602741E-05  3.1220827E-02  -5.5482151E-06  3.7659209E-02   4.3260033E-04   1.1641165E-02   1.3536323E-05   -3.5176668E-03  -1.2456037E-05  1.3406894E-01   -8.9343335E-04  8.4616318E-03   1.0989569E-04   7.6392134E-05   1.3407007E-05
0.8750   5.0068407E+00  7.3763868E-04   6.1651929E-03   -2.2425265E-05  3.1176867E-02  -5.7028287E-06  3.9353110E-02   4.2345829E-04   1.1745841E-02   1.4837675E-05   -3.5158328E-03  -1.2279449E-05  1.3710804E-01   -5.7496945E-04  8.2722623E-03   9.8641605E-05   2.2448113E-04   1.4966443E-05
0.8875   5.0073433E+00  7.4289937E-04   6.3126571E-03   -2.2232529E-05  3.1132940E-02  -5.8550986E-06  4.1082814E-02   4.1884318E-04   1.1848086E-02   1.5982714E-05   -3.5122328E-03  -1.2080174E-05  1.3974804E-01   -9.1053938E-05  8.0771893E-03   8.1431514E-05   3.5669227E-04   1.7091867E-05
0.9000   5.0078678E+00  7.4814243E-04   6.4613842E-03   -2.2026894E-05  3.1089067E-02  -6.0047009E-06  4.2843312E-02   4.2050020E-04   1.1947839E-02   1.6909262E-05   -3.5070651E-03  -1.1851843E-05  1.4194638E-01   4.9884041E-04   7.8774514E-03   6.0546990E-05   4.7135635E-04   1.9638859E-05
0.9125   5.0084143E+00  7.5345230E-04   6.6113425E-03   -2.1811298E-05  3.1045269E-02  -6.1512451E-06  4.4628918E-02   4.2933042E-04   1.2045040E-02   1.7586934E-05   -3.5005561E-03  -1.1590561E-05  1.4369605E-01   1.1071031E-03   7.6730172E-03   3.9326558E-05   5.6816888E-04   2.2357533E-05
0.9250   5.0089836E+00  7.5891765E-04   6.7624995E-03   -2.1588785E-05  3.1001559E-02  -6.2943141E-06  4.6434250E-02   4.4508409E-04   1.2139624E-02   1.8028728E-05   -3.4929197E-03  -1.1295991E-05  1.4502984E-01   1.6295016E-03   7.4631134E-03   2.1728421E-05   6.4834405E-04   2.4931151E-05
0.9375   5.0095754E+00  7.6461583E-04   6.9148224E-03   -2.1361924E-05  3.0957950E-02  -6.4335118E-06  4.8254430E-02   4.6622800E-04   1.2231519E-02   1.8296056E-05   -3.4843527E-03  -1.0971886E-05  1.4600322E-01   1.9598291E-03   7.2455946E-03   1.1775390E-05   7.1399321E-04   2.7026677E-05
0.9500   5.0101900E+00  7.7059702E-04   7.0682764E-03   -2.1132224E-05  3.0914452E-02  -6.5685131E-06  5.0085306E-02   4.8997952E-04   1.2320618E-02   1.8497523E-05   -3.4750237E-03  -1.0625975E-05  1.4671190E-01   2.0047587E-03   7.0176758E-03   1.2991240E-05   7.6874217E-04   2.8336357E-05
0.9625   5.0108275E+00  7.7687000E-04   7.2228261E-03   -2.0899577E-05  3.0871077E-02  -6.6991138E-06  5.1924285E-02   5.1252003E-04   1.2406773E-02   1.8780898E-05   -3.4650420E-03  -1.0269504E-05  1.4726216E-01   1.6980051E-03   6.7771091E-03   2.7865639E-05   8.1664202E-04   2.8642471E-05
0.9750   5.0114880E+00  7.8339153E-04   7.3784334E-03   -2.0661873E-05  3.0827828E-02  -6.8252625E-06  5.3769805E-02   5.2938773E-04   1.2489838E-02   1.9318280E-05   -3.4544789E-03  -9.9156159E-06  1.4776897E-01   1.0106433E-03   6.5215398E-03   5.7463298E-05   8.6207816E-04   2.7833508E-05
0.9875   5.0121717E+00  7.9006143E-04   7.5350590E-03   -2.0414807E-05  3.0784715E-02  -6.9470789E-06  5.5621993E-02   5.3594384E-04   1.2569607E-02   2.0288497E-05   -3.4433403E-03  -9.5782461E-06  1.4835015E-01   -4.3701781E-05  6.2485258E-03   1.0122763E-04   9.0953213E-04   2.5902993E-05
1.0000   5.0128789E+00  7.9672353E-04   7.6926597E-03   -2.0151912E-05  3.0741746E-02  -7.0648543E-06  5.7482276E-02   5.2790332E-04   1.2645862E-02   2.1856926E-05   -3.4315831E-03  -9.2709133E-06  1.4910552E-01   -1.4093301E-03  5.9565492E-03   1.5700021E-04   9.6280908E-04   2.2967279E-05
1.0125   5.0136089E+00  8.0317317E-04   7.8511899E-03   -1.9864859E-05  3.0698929E-02  -7.1790378E-06  5.9353177E-02   5.0183106E-04   1.2718367E-02   2.4156607E-05   -3.4191224E-03  -9.0049716E-06  1.5011461E-01   -2.9944580E-03  5.6402008E-03   2.2124997E-04   1.0300083E-03   1.9243918E-05
1.0250   5.0143623E+00  8.0917071E-04   8.0106016E-03   -1.9543952E-05  3.0656273E-02  -7.2902008E-06  6.1238155E-02   4.5553851E-04   1.2786774E-02   2.7273112E-05   -3.4057158E-03  -8.7886701E-06  1.5142460E-01   -4.6823951E-03  5.3049149E-03   2.8949589E-04   1.1078274E-03   1.5015767E-05
1.0375   5.0151401E+00  8.1445830E-04   8.1708413E-03   -1.9178782E-05  3.0613789E-02  -7.3989963E-06  6.3140988E-02   3.8832464E-04   1.2850934E-02   3.1235177E-05   -3.3913155E-03  -8.6265936E-06  1.5304920E-01   -6.3458947E-03  4.9519376E-03   3.5685441E-04   1.1967819E-03   1.0591750E-05
1.0500   5.0159411E+00  8.1877928E-04   8.3318558E-03   -1.8758958E-05  3.0571494E-02  -7.5061093E-06  6.5065511E-02   3.0105002E-04   1.2910618E-02   3.6011697E-05   -3.3757589E-03  -8.5195443E-06  1.5496621E-01   -7.8626862E-03  4.5844330E-03   4.1862918E-04   1.2959844E-03   6.2614731E-06
1.0625   5.0167665E+00  8.2189671E-04   8.4935874E-03   -1.8274824E-05  3.0529400E-02  -7.6122155E-06  6.7015074E-02   1.9600359E-04   1.2965666E-02   4.1516607E-05   -3.3589303E-03  -8.4650374E-06  1.5711838E-01   -9.1302460E-03  4.2060898E-03   4.7087262E-04   1.4032202E-03   2.2586526E-06
1.0750   5.0176167E+00  8.2360959E-04   8.6559765E-03   -1.7718085E-05  3.0487526E-02  -7.7179420E-06  6.8992190E-02   7.6612487E-05   1.3015964E-02   4.7619676E-05   -3.3407456E-03  -8.4581316E-06  1.5942419E-01   -1.0077461E-02  3.8219092E-03   5.1083055E-04   1.5153293E-03   -1.2659635E-06
1.0875   5.0184917E+00  8.2376442E-04   8.8189645E-03   -1.7082250E-05  3.0445889E-02  -7.8238445E-06  7.0998274E-02   -5.2980162E-05  1.3061468E-02   5.4162454E-05   -3.3211620E-03  -8.4925423E-06  1.6177674E-01   -1.0671994E-02  3.4369577E-03   5.3722295E-04   1.6281921E-03   -4.2591369E-06
1.1000   5.0193915E+00  8.2226092E-04   8.9824917E-03   -1.6362874E-05  3.0404504E-02  -7.9303991E-06  7.3033266E-02   -1.8840645E-04  1.3102191E-02   6.0976843E-05   -3.3001946E-03  -8.5618640E-06  1.6405918E-01   -1.0922215E-02  3.0565932E-03   5.5031962E-04   1.7373036E-03   -6.7628148E-06
1.1125   5.0203176E+00  8.1905210E-04   9.1464985E-03   -1.5557565E-05  3.0363390E-02  -8.0380078E-06  7.5095743E-02   -3.2556179E-04  1.3138211E-02   6.7903697E-05   -3.2779102E-03  -8.6606487E-06  1.6615422E-01   -1.0873653E-02  2.6861748E-03   5.5180711E-04   1.8381418E-03   -8.8983379E-06
1.1250   5.0212693E+00  8.1413798E-04   9.3109272E-03   -1.4665758E-05  3.0322563E-02  -8.1470143E-06  7.7182800E-02   -4.6103387E-04  1.3169680E-02   7.4809235E-05   -3.2544332E-03  -8.7852513E-06  1.6795470E-01   -1.0600789E-02  2.3304590E-03   5.4447929E-04   1.9265760E-03   -1.0841697E-05
1.1375   5.0222473E+00  8.0755498E-04   9.4757220E-03   -1.3688328E-05  3.0282034E-02  -8.2577299E-06  7.9290323E-02   -5.9241347E-04  1.3196793E-02   8.1597100E-05   -3.2299338E-03  -8.9343448E-06  1.6936928E-01   -1.0195323E-02  1.9930974E-03   5.3179299E-04   1.9990914E-03   -1.2790611E-05
1.1500   5.0232515E+00  7.9936237E-04   9.6408287E-03   -1.2627087E-05  3.0241817E-02  -8.3704672E-06  8.1413142E-02   -7.1845116E-04  1.3219792E-02   8.8214503E-05   -3.2046242E-03  -9.1089923E-06  1.7034663E-01   -9.7529516E-03  1.6778009E-03   5.1736634E-04   2.0536801E-03   -1.4930827E-05
1.1625   5.0242825E+00  7.8962784E-04   9.8061999E-03   -1.1484226E-05  3.0201921E-02  -8.4855628E-06  8.3545804E-02   -8.3905394E-04  1.3238966E-02   9.4652481E-05   -3.1787276E-03  -9.3123290E-06  1.7085604E-01   -9.3599949E-03  1.3860794E-03   5.0447194E-04   2.0891561E-03   -1.7405040E-05
1.1750   5.0253401E+00  7.7841408E-04   9.9717882E-03   -1.0261813E-05  3.0162351E-02  -8.6034042E-06  8.5682325E-02   -9.5511804E-04  1.3254614E-02   1.0093976E-04   -3.1524880E-03  -9.5488967E-06  1.7090374E-01   -9.0827662E-03  1.1183772E-03   4.9563113E-04   2.1057439E-03   -2.0298237E-05
1.1875   5.0264244E+00  7.6576771E-04   1.0137551E-02   -8.9613850E-06  3.0123109E-02  -8.7244389E-06  8.7817252E-02   -1.0682612E-03  1.3267023E-02   1.0713286E-04   -3.1261293E-03  -9.8239643E-06  1.7053124E-01   -8.9599090E-03  8.7413623E-04   4.9232208E-04   2.1050200E-03   -2.3619672E-05
1.2000   5.0275354E+00  7.5171317E-04   1.0303452E-02   -7.5836788E-06  3.0084196E-02  -8.8491806E-06  8.9945644E-02   -1.1804464E-03  1.3276489E-02   1.1330193E-04   -3.0998567E-03  -1.0142452E-05  1.6980781E-01   -8.9994986E-03  6.5154408E-04   4.9486675E-04   2.0896308E-03   -2.7305961E-05
1.2125   5.0286732E+00  7.3625019E-04   1.0469453E-02   -6.1285577E-06  3.0045612E-02  -8.9781970E-06  9.2063576E-02   -1.2936268E-03  1.3283271E-02   1.1951736E-04   -3.0738360E-03  -1.0508185E-05  1.6884288E-01   -9.1805551E-03  4.4458421E-04   5.0248869E-04   2.0682383E-03   -3.1231433E-05