<?xml version="1.0"?>
<VTKFile type="PolyData" version="0.1" byte_order="LittleEndian">
  <PolyData>
    <Piece NumberOfPoints="     17" NumberOfVerts="  0" NumberOfLines="      0"
           NumberOfStrips="  0" NumberOfPolys="      0">
      <Points>
        <DataArray type="Float32" NumberOfComponents="3" format="ascii">
                       2.33411                      -2.91525                      88.54001
                       1.97980                      -6.06890                      86.80326
                       1.63302                      -9.22121                      85.06256
                       1.29679                     -12.37176                      83.31662
                       0.97373                     -15.52029                      81.56456
                       0.66670                     -18.66668                      79.80579
                       0.37913                     -21.81079                      78.03970
                       0.11521                     -24.95248                      76.26563
                      -0.12006                     -28.09158                      74.48298
                      -0.32116                     -31.22788                      72.69129
                      -0.48250                     -34.36115                      70.89031
                      -0.59908                     -37.49113                      69.08018
                      -0.66748                     -40.61754                      67.26145
                      -0.68697                     -43.74021                      65.43509
                      -0.66095                     -46.85924                      63.60251
                      -0.59856                     -49.97526                      61.76555
                      -0.51655                     -53.08960                      59.92645
        </DataArray>
      </Points>
      <PointData>
        <DataArray type="Float32" Name="Force" NumberOfComponents="3" format="ascii">
                     193.52783                     -58.50666                      66.65154
                     660.58028                    -175.98082                     187.92470
                    2232.37737                     333.51064                   -1037.53051
                    3721.06155                     585.89833                   -1758.18025
                    2269.35429                     316.30541                    -980.61214
                    4926.78787                     605.57623                   -1935.84705
                    5974.34255                     645.74902                   -2106.48524
                    6649.23349                     644.22994                   -2097.65733
                    7179.77330                     656.64749                   -2053.10751
                    9139.03401                     818.61367                   -2374.13729
                   10610.21960                     972.15744                   -2513.16296
                   12240.39387                    1201.93503                   -2686.91083
                    7078.85343                     733.97583                   -1463.92513
                   14236.37363                    1550.89972                   -2758.44293
                   13863.76962                    1583.05908                   -2478.41398
                   19823.06834                    2287.00050                   -3207.30652
                    8089.72521                     865.91562                   -1132.19699
        </DataArray>
        <DataArray type="Float32" Name="Moment" NumberOfComponents="3" format="ascii">
                     -19.98828                     -15.08104                      21.95747
                     195.54922                    -275.75720                     309.66089
                    1201.91133                   -1580.86941                    1719.53076
                    1288.18085                   -2169.12039                    2182.02265
                      53.79330                    -399.61251                      53.19810
                   -1084.57496                     912.10321                   -2198.27479
                    -695.13758                     936.18426                   -1341.17000
                    -108.07630                     843.56089                     317.25930
                     157.35309                     567.35104                    1111.14015
                     379.24799                     -23.13554                    1873.52845
                    1005.36096                   -1448.07682                    4021.21932
                    1806.67712                   -3733.64079                    6786.50721
                    -126.43839                     236.46646                    -425.71218
                   -2190.34963                    4783.49309                   -8285.86851
                   -1958.80658                    4428.31989                   -7789.77438
                    -451.24301                     606.87594                   -1280.70286
                    -109.30810                      60.86268                     206.17584
        </DataArray>
      </PointData>
    </Piece>
  </PolyData>
</VTKFile>
