<?xml version="1.0"?>
<VTKFile type="PolyData" version="0.1" byte_order="LittleEndian">
  <PolyData>
    <Piece NumberOfPoints="     19" NumberOfVerts="  0" NumberOfLines="     18"
           NumberOfStrips="  0" NumberOfPolys="      0">
      <Points>
        <DataArray type="Float32" NumberOfComponents="3" format="ascii">
                       2.87935                      -0.18056                      93.42315
                       3.14006                      -0.34209                      97.02777
                       3.40866                      -0.50301                     100.63183
                       3.68812                      -0.66336                     104.23510
                       3.98084                      -0.82315                     107.83734
                       4.28951                      -0.98241                     111.43826
                       4.61759                      -1.14139                     115.03747
                       4.96963                      -1.30049                     118.63441
                       5.35124                      -1.46015                     122.22829
                       5.76879                      -1.62072                     125.81812
                       6.22894                      -1.78240                     129.40267
                       6.73777                      -1.94512                     132.98057
                       7.29973                      -2.10862                     136.55048
                       7.91633                      -2.27251                     140.11137
                       8.58447                      -2.43637                     143.66300
                       9.29472                      -2.59987                     147.20654
                      10.02909                      -2.76300                     150.74525
                      10.39947                      -2.84450                     152.51395
                       2.75054                      -0.09964                      91.62073
        </DataArray>
      </Points>
      <PointData>
        <DataArray type="Float32" Name="TranslationalVelocity" NumberOfComponents="3" format="ascii">
                      -0.27366                      -3.12934                      -0.14715
                      -0.31661                      -6.51570                      -0.29579
                      -0.36485                      -9.90245                      -0.44340
                      -0.42047                     -13.28952                      -0.58982
                      -0.48516                     -16.67689                      -0.73481
                      -0.56043                     -20.06461                      -0.87817
                      -0.64765                     -23.45268                      -1.01985
                      -0.74808                     -26.84105                      -1.15987
                      -0.86288                     -30.22962                      -1.29819
                      -0.99302                     -33.61822                      -1.43459
                      -1.13914                     -37.00655                      -1.56861
                      -1.30143                     -40.39414                      -1.69956
                      -1.47942                     -43.78037                      -1.82661
                      -1.67175                     -47.16458                      -1.94909
                      -1.87590                     -50.54630                      -2.06681
                      -2.08792                     -53.92556                      -2.18040
                      -2.30203                     -57.30325                      -2.29188
                      -2.40876                     -58.99188                      -2.34745
                      -0.25322                      -1.43625                      -0.07259
        </DataArray>
        <DataArray type="Float32" Name="RotationalVelocity" NumberOfComponents="3" format="ascii">
                       0.93170                      -0.00654                      -0.10695
                       0.93173                      -0.00771                      -0.10700
                       0.93172                      -0.00951                      -0.10708
                       0.93167                      -0.01183                      -0.10719
                       0.93161                      -0.01458                      -0.10731
                       0.93156                      -0.01773                      -0.10744
                       0.93151                      -0.02123                      -0.10760
                       0.93145                      -0.02507                      -0.10777
                       0.93139                      -0.02921                      -0.10795
                       0.93136                      -0.03358                      -0.10814
                       0.93136                      -0.03809                      -0.10835
                       0.93140                      -0.04260                      -0.10855
                       0.93148                      -0.04689                      -0.10875
                       0.93159                      -0.05068                      -0.10893
                       0.93171                      -0.05361                      -0.10907
                       0.93182                      -0.05520                      -0.10915
                       0.93187                      -0.05486                      -0.10914
                       0.93188                      -0.05414                      -0.10910
                       0.93168                      -0.00613                      -0.10693
        </DataArray>
        <DataArray type="Float32" Name="TranslationalAcceleration" NumberOfComponents="3" format="ascii">
                       0.81936                       0.37059                      -2.94297
                       0.46889                       0.56800                      -6.09676
                       0.15389                       0.62738                      -9.25987
                      -0.10543                       0.51252                     -12.43558
                      -0.28790                       0.20153                     -15.62696
                      -0.37928                      -0.31451                     -18.83649
                      -0.38005                      -1.03424                     -22.06535
                      -0.30892                      -1.94867                     -25.31302
                      -0.20312                      -3.04358                     -28.57692
                      -0.11696                      -4.30218                     -31.85167
                      -0.11806                      -5.70728                     -35.12830
                      -0.28104                      -7.24277                     -38.39373
                      -0.67910                      -8.89382                     -41.63100
                      -1.37328                     -10.64587                     -44.82117
                      -2.39958                     -12.48279                     -47.94757
                      -3.75402                     -14.38424                     -51.00274
                      -5.37580                     -16.32141                     -53.99702
                      -6.24182                     -17.29464                     -55.48162
                       1.00120                       0.24280                      -1.36800
        </DataArray>
        <DataArray type="Float32" Name="RotationalAcceleration" NumberOfComponents="3" format="ascii">
                      -0.03019                      -0.00129                       0.01312
                       0.00189                       0.00616                       0.01118
                       0.04601                       0.01864                       0.00861
                       0.09818                       0.03733                       0.00575
                       0.15445                       0.06160                       0.00286
                       0.21156                       0.08823                       0.00001
                       0.26712                       0.11228                      -0.00285
                       0.31928                       0.12858                      -0.00582
                       0.36688                       0.13202                      -0.00904
                       0.40941                       0.11818                      -0.01267
                       0.44689                       0.08402                      -0.01687
                       0.47959                       0.02855                      -0.02168
                       0.50774                      -0.04660                      -0.02706
                       0.53129                      -0.13645                      -0.03277
                       0.54981                      -0.23208                      -0.03839
                       0.56225                      -0.32004                      -0.04323
                       0.56643                      -0.38176                      -0.04630
                       0.56608                      -0.40341                      -0.04725
                      -0.04272                      -0.00402                       0.01388
        </DataArray>
        <DataArray type="Float32" Name="OrientationX" NumberOfComponents="3" format="ascii">
                       0.96947                      -0.23192                      -0.07970
                       0.96935                      -0.23185                      -0.08131
                       0.96916                      -0.23173                      -0.08386
                       0.97195                      -0.21863                      -0.08673
                       0.97803                      -0.18815                      -0.08978
                       0.98085                      -0.17057                      -0.09400
                       0.98328                      -0.15266                      -0.09932
                       0.98534                      -0.13363                      -0.10601
                       0.98685                      -0.11423                      -0.11437
                       0.98760                      -0.09551                      -0.12458
                       0.98764                      -0.07694                      -0.13657
                       0.98690                      -0.05924                      -0.15007
                       0.98535                      -0.04480                      -0.16453
                       0.98336                      -0.03193                      -0.17886
                       0.98130                      -0.01912                      -0.19155
                       0.97965                      -0.00657                      -0.20061
                       0.97903                       0.00155                      -0.20369
                       0.97909                       0.00399                      -0.20341
                       0.96950                      -0.23194                      -0.07917
        </DataArray>
        <DataArray type="Float32" Name="OrientationY" NumberOfComponents="3" format="ascii">
                       0.23466                       0.97171                       0.02686
                       0.23462                       0.97173                       0.02629
                       0.23456                       0.97177                       0.02552
                       0.22157                       0.97480                       0.02575
                       0.19128                       0.98115                       0.02752
                       0.17388                       0.98436                       0.02815
                       0.15621                       0.98730                       0.02890
                       0.13749                       0.99005                       0.02989
                       0.11848                       0.99247                       0.03110
                       0.10026                       0.99443                       0.03245
                       0.08230                       0.99603                       0.03403
                       0.06530                       0.99722                       0.03578
                       0.05161                       0.99797                       0.03733
                       0.03950                       0.99846                       0.03891
                       0.02742                       0.99879                       0.04077
                       0.01548                       0.99896                       0.04289
                       0.00766                       0.99898                       0.04443
                       0.00526                       0.99898                       0.04493
                       0.23468                       0.97170                       0.02708
        </DataArray>
        <DataArray type="Float32" Name="OrientationZ" NumberOfComponents="3" format="ascii">
                       0.07121                      -0.04474                       0.99646
                       0.07292                      -0.04456                       0.99634
                       0.07558                      -0.04440                       0.99615
                       0.07892                      -0.04425                       0.99590
                       0.08291                      -0.04409                       0.99558
                       0.08773                      -0.04396                       0.99517
                       0.09364                      -0.04393                       0.99464
                       0.10096                      -0.04403                       0.99392
                       0.10996                      -0.04424                       0.99295
                       0.12079                      -0.04453                       0.99168
                       0.13341                      -0.04485                       0.99005
                       0.14754                      -0.04511                       0.98803
                       0.16252                      -0.04528                       0.98567
                       0.17734                      -0.04533                       0.98310
                       0.19054                      -0.04526                       0.98064
                       0.20012                      -0.04513                       0.97873
                       0.20356                      -0.04506                       0.97803
                       0.20338                      -0.04506                       0.97806
                       0.07065                      -0.04483                       0.99649
        </DataArray>
      </PointData>
      <Lines>
        <DataArray type="Int32" Name="connectivity" format="ascii">
      0      1
      1      2
      2      3
      3      4
      4      5
      5      6
      6      7
      7      8
      8      9
      9     10
     10     11
     11     12
     12     13
     13     14
     14     15
     15     16
     16     17
     18      0
        </DataArray>
        <DataArray type="Int32" Name="offsets" format="ascii">
      2
      4
      6
      8
     10
     12
     14
     16
     18
     20
     22
     24
     26
     28
     30
     32
     34
     36
        </DataArray>
      </Lines>
    </Piece>
  </PolyData>
</VTKFile>
