<?xml version="1.0"?>
<VTKFile type="PolyData" version="0.1" byte_order="LittleEndian">
  <PolyData>
    <Piece NumberOfPoints="     19" NumberOfVerts="  0" NumberOfLines="     18"
           NumberOfStrips="  0" NumberOfPolys="      0">
      <Points>
        <DataArray type="Float32" NumberOfComponents="3" format="ascii">
                       2.61755                      -0.70931                      86.95573
                       2.02187                      -1.46195                      83.46775
                       1.43477                      -2.21440                      79.97827
                       0.85952                      -2.96638                      76.48672
                       0.29881                      -3.71777                      72.99268
                      -0.24435                      -4.46847                      69.49572
                      -0.76609                      -5.21820                      65.99530
                      -1.26141                      -5.96654                      62.49076
                      -1.72411                      -6.71303                      58.98139
                      -2.14716                      -7.45731                      55.46656
                      -2.52317                      -8.19913                      51.94589
                      -2.84535                      -8.93843                      48.41938
                      -3.10868                      -9.67538                      44.88749
                      -3.31137                     -10.41024                      41.35112
                      -3.45672                     -11.14343                      37.81152
                      -3.55523                     -11.87553                      34.26997
                      -3.62700                     -12.60715                      30.72760
                      -3.65939                     -12.97291                      28.95632
                       2.91707                      -0.33297                      88.69944
        </DataArray>
      </Points>
      <PointData>
        <DataArray type="Float32" Name="TranslationalVelocity" NumberOfComponents="3" format="ascii">
                       0.11197                       2.97871                      -0.58269
                      -0.01466                       6.26725                      -1.27068
                      -0.15345                       9.54979                      -1.95516
                      -0.30942                      12.82449                      -2.63477
                      -0.48702                      16.09025                      -3.30859
                      -0.68974                      19.34670                      -3.97621
                      -0.91975                      22.59397                      -4.63749
                      -1.17775                      25.83251                      -5.29262
                      -1.46290                      29.06295                      -5.94225
                      -1.77286                      32.28593                      -6.58748
                      -2.10384                      35.50191                      -7.22979
                      -2.45084                      38.71106                      -7.87086
                      -2.80781                      41.91329                      -8.51232
                      -3.16807                      45.10848                      -9.15546
                      -3.52466                      48.29684                      -9.80097
                      -3.87097                      51.47948                     -10.44888
                      -4.20133                      54.65893                     -11.09848
                      -4.36190                      56.24829                     -11.42356
                       0.17291                       1.33321                      -0.23802
        </DataArray>
        <DataArray type="Float32" Name="RotationalVelocity" NumberOfComponents="3" format="ascii">
                       0.92360                       0.00972                      -0.11690
                       0.92206                       0.01238                      -0.11720
                       0.91981                       0.01651                      -0.11771
                       0.91707                       0.02197                      -0.11841
                       0.91411                       0.02855                      -0.11932
                       0.91111                       0.03592                      -0.12040
                       0.90820                       0.04366                      -0.12156
                       0.90549                       0.05136                      -0.12276
                       0.90306                       0.05860                      -0.12390
                       0.90098                       0.06494                      -0.12491
                       0.89926                       0.07003                      -0.12571
                       0.89788                       0.07355                      -0.12624
                       0.89683                       0.07528                      -0.12643
                       0.89606                       0.07512                      -0.12626
                       0.89555                       0.07310                      -0.12574
                       0.89531                       0.06942                      -0.12490
                       0.89533                       0.06445                      -0.12383
                       0.89542                       0.06171                      -0.12326
                       0.92419                       0.00877                      -0.11679
        </DataArray>
        <DataArray type="Float32" Name="TranslationalAcceleration" NumberOfComponents="3" format="ascii">
                      -0.58058                       0.51340                       2.90813
                      -0.22849                       1.34666                       5.90903
                       0.19994                       2.25786                       8.86822
                       0.74000                       3.26926                      11.77214
                       1.42419                       4.39455                      14.61196
                       2.26817                       5.63764                      17.38602
                       3.25952                       6.99452                      20.10042
                       4.35197                       8.45511                      22.76852
                       5.46448                      10.00507                      25.40919
                       6.48423                      11.62830                      28.04335
                       7.27411                      13.30893                      30.68962
                       7.68490                      15.03269                      33.35972
                       7.57228                      16.78707                      36.05537
                       6.81890                      18.56066                      38.76804
                       5.36177                      20.34334                      41.48288
                       3.22481                      22.12711                      44.18712
                       0.55631                      23.90556                      46.88130
                      -0.88327                      24.79269                      48.22713
                      -0.74168                       0.11306                       1.39911
        </DataArray>
        <DataArray type="Float32" Name="RotationalAcceleration" NumberOfComponents="3" format="ascii">
                       0.04123                       0.01383                      -0.01019
                       0.06078                      -0.00355                      -0.00981
                       0.08817                      -0.03039                      -0.00874
                       0.12135                      -0.06774                      -0.00640
                       0.15709                      -0.11264                      -0.00287
                       0.19244                      -0.15847                       0.00092
                       0.22513                      -0.19621                       0.00343
                       0.25321                      -0.21617                       0.00290
                       0.27553                      -0.20902                      -0.00249
                       0.29184                      -0.16698                      -0.01438
                       0.30268                      -0.08509                      -0.03392
                       0.30914                       0.03753                      -0.06150
                       0.31243                       0.19648                      -0.09637
                       0.31361                       0.38084                      -0.13636
                       0.31369                       0.57198                      -0.17763
                       0.31329                       0.74238                      -0.21434
                       0.31184                       0.85445                      -0.23828
                       0.31069                       0.89054                      -0.24587
                       0.03360                       0.02056                      -0.01033
        </DataArray>
        <DataArray type="Float32" Name="OrientationX" NumberOfComponents="3" format="ascii">
                       0.95331                       0.21653                      -0.21049
                       0.95362                       0.21692                      -0.20871
                       0.95409                       0.21752                      -0.20593
                       0.95795                       0.20556                      -0.20021
                       0.96561                       0.17675                      -0.19068
                       0.96998                       0.16082                      -0.18242
                       0.97423                       0.14489                      -0.17285
                       0.97851                       0.12824                      -0.16149
                       0.98263                       0.11170                      -0.14818
                       0.98643                       0.09632                      -0.13299
                       0.98991                       0.08159                      -0.11583
                       0.99293                       0.06810                      -0.09719
                       0.99524                       0.05804                      -0.07823
                       0.99699                       0.04947                      -0.05971
                       0.99826                       0.04050                      -0.04294
                       0.99907                       0.03081                      -0.03011
                       0.99941                       0.02377                      -0.02485
                       0.99947                       0.02132                      -0.02460
                       0.95322                       0.21641                      -0.21106
        </DataArray>
        <DataArray type="Float32" Name="OrientationY" NumberOfComponents="3" format="ascii">
                       0.25253                      -0.95385                       0.16248
                       0.25260                      -0.95376                       0.16288
                       0.25269                      -0.95365                       0.16341
                       0.24006                      -0.95633                       0.16674
                       0.21036                      -0.96211                       0.17347
                       0.19336                      -0.96495                       0.17746
                       0.17607                      -0.96753                       0.18132
                       0.15768                      -0.96998                       0.18515
                       0.13897                      -0.97214                       0.18875
                       0.12098                      -0.97392                       0.19193
                       0.10318                      -0.97542                       0.19472
                       0.08626                      -0.97659                       0.19704
                       0.07261                      -0.97737                       0.19869
                       0.06050                      -0.97795                       0.19990
                       0.04834                      -0.97844                       0.20081
                       0.03626                      -0.97883                       0.20143
                       0.02830                      -0.97904                       0.20170
                       0.02585                      -0.97909                       0.20176
                       0.25250                      -0.95388                       0.16233
        </DataArray>
        <DataArray type="Float32" Name="OrientationZ" NumberOfComponents="3" format="ascii">
                      -0.16559                      -0.20805                      -0.96400
                      -0.16373                      -0.20804                      -0.96432
                      -0.16084                      -0.20794                      -0.96483
                      -0.15719                      -0.20779                      -0.96546
                      -0.15280                      -0.20762                      -0.96620
                      -0.14749                      -0.20740                      -0.96707
                      -0.14097                      -0.20708                      -0.96811
                      -0.13289                      -0.20663                      -0.96935
                      -0.12297                      -0.20607                      -0.97078
                      -0.11103                      -0.20541                      -0.97236
                      -0.09710                      -0.20471                      -0.97399
                      -0.08150                      -0.20404                      -0.97556
                      -0.06492                      -0.20342                      -0.97694
                      -0.04850                      -0.20291                      -0.97800
                      -0.03388                      -0.20253                      -0.97869
                      -0.02327                      -0.20233                      -0.97904
                      -0.01953                      -0.20228                      -0.97913
                      -0.01978                      -0.20229                      -0.97913
                      -0.16620                      -0.20803                      -0.96390
        </DataArray>
      </PointData>
      <Lines>
        <DataArray type="Int32" Name="connectivity" format="ascii">
      0      1
      1      2
      2      3
      3      4
      4      5
      5      6
      6      7
      7      8
      8      9
      9     10
     10     11
     11     12
     12     13
     13     14
     14     15
     15     16
     16     17
     18      0
        </DataArray>
        <DataArray type="Int32" Name="offsets" format="ascii">
      2
      4
      6
      8
     10
     12
     14
     16
     18
     20
     22
     24
     26
     28
     30
     32
     34
     36
        </DataArray>
      </Lines>
    </Piece>
  </PolyData>
</VTKFile>
