<?xml version="1.0"?>
<VTKFile type="PolyData" version="0.1" byte_order="LittleEndian">
  <PolyData>
    <Piece NumberOfPoints="     19" NumberOfVerts="  0" NumberOfLines="     18"
           NumberOfStrips="  0" NumberOfPolys="      0">
      <Points>
        <DataArray type="Float32" NumberOfComponents="3" format="ascii">
                       2.89377                      -0.48151                      88.73430
                       2.67229                      -0.89991                      87.45221
                       2.20499                      -1.64623                      84.86251
                       1.73039                      -2.34930                      82.25976
                       1.13992                      -3.20147                      78.99688
                       0.50684                      -4.35870                      75.11308
                      -0.07306                      -5.63727                      71.26054
                      -0.62509                      -6.91536                      67.40376
                      -1.13975                      -8.19417                      63.54206
                      -1.60930                      -9.47137                      59.67411
                      -2.03168                     -10.74350                      55.79911
                      -2.39131                     -12.01135                      51.91641
                      -2.68026                     -13.27499                      48.02645
                      -2.89446                     -14.53474                      44.13039
                      -3.03412                     -15.79101                      40.22977
                      -3.10282                     -16.83594                      36.97717
                      -3.13399                     -17.67856                      34.37682
                      -3.15787                     -18.57352                      31.79276
                      -3.17190                     -18.98123                      30.48838
        </DataArray>
      </Points>
      <PointData>
        <DataArray type="Float32" Name="Force" NumberOfComponents="3" format="ascii">
                       0.12437                      -3.06009                       0.98599
                      54.25388                     -25.06035                      -1.08945
                      75.68440                     -60.19463                       6.91361
                      72.71868                     -79.27011                      13.85989
                     648.53757                     248.76829                    -188.31724
                     864.46849                     278.21278                    -228.35200
                    1024.58306                     272.19885                    -244.36137
                    1335.58806                     301.19648                    -289.24672
                    1475.36655                     276.68438                    -285.42018
                    1735.25408                     284.16770                    -299.80208
                    2194.84227                     314.74593                    -330.45780
                    2583.64567                     338.35091                    -332.71989
                    3028.01212                     397.08444                    -332.00005
                    3404.13258                     437.83231                    -304.44872
                    3777.25017                     492.03589                    -273.24951
                    4159.43257                     540.37130                    -253.98195
                    4216.61247                     547.51598                    -235.82137
                    3212.47050                     440.81478                    -181.64586
                    1185.04172                      24.84689                     -23.15945
        </DataArray>
        <DataArray type="Float32" Name="Moment" NumberOfComponents="3" format="ascii">
                       0.00000                       0.00000                       0.00000
                       0.00000                       0.00000                       0.00000
                       0.00000                       0.00000                       0.00000
                       0.00000                       0.00000                       0.00000
                      29.52480                      59.13049                     179.79094
                      64.21743                     133.25146                     405.45388
                      82.45340                     178.98665                     545.09565
                     110.65657                     254.53354                     776.00260
                     141.25895                     350.48786                    1069.94269
                     144.21632                     395.65370                    1209.74468
                     136.38328                     429.09828                    1314.53008
                     120.77411                     456.75032                    1402.31889
                      83.31232                     403.85328                    1242.87503
                      59.37628                     403.13106                    1243.65289
                      36.32373                     388.90866                    1202.42064
                      21.57538                     364.82739                    1129.54325
                      13.74606                     316.59473                     980.83773
                       5.72117                     150.56942                     466.57999
                       4.86166                     122.80419                     380.51728
        </DataArray>
        <DataArray type="Float32" Name="TranslationalVelocity" NumberOfComponents="3" format="ascii">
                       0.23309                       1.29906                      -0.37102
                       0.17169                       2.49452                      -0.75055
                       0.05744                       4.91006                      -1.42615
                      -0.05730                       7.33354                      -2.06016
                      -0.20883                      10.36221                      -2.82458
                      -0.42620                      13.94434                      -3.85813
                      -0.68536                      17.47416                      -4.99248
                      -0.97671                      20.98651                      -6.11654
                      -1.30136                      24.48148                      -7.23233
                      -1.65687                      27.96068                      -8.33953
                      -2.03554                      31.42765                      -9.43774
                      -2.43295                      34.88144                     -10.52978
                      -2.83926                      38.32265                     -11.61827
                      -3.24340                      41.75174                     -12.70535
                      -3.63436                      45.16945                     -13.79235
                      -3.94410                      48.01037                     -14.69852
                      -4.17904                      50.27750                     -15.43027
                      -4.40560                      52.52954                     -16.20801
                      -4.51227                      53.66661                     -16.56218
        </DataArray>
        <DataArray type="Float32" Name="RotationalVelocity" NumberOfComponents="3" format="ascii">
                       0.91326                       0.00979                      -0.11467
                       0.91261                       0.01043                      -0.11477
                       0.91095                       0.01214                      -0.11504
                       0.90886                       0.01446                      -0.11545
                       0.90559                       0.01839                      -0.11617
                       0.90101                       0.02451                      -0.11740
                       0.89618                       0.03177                      -0.11895
                       0.89140                       0.03957                      -0.12070
                       0.88690                       0.04726                      -0.12245
                       0.88287                       0.05414                      -0.12402
                       0.87948                       0.05937                      -0.12515
                       0.87668                       0.06251                      -0.12571
                       0.87447                       0.06325                      -0.12557
                       0.87280                       0.06150                      -0.12470
                       0.87164                       0.05747                      -0.12317
                       0.87107                       0.05276                      -0.12153
                       0.87090                       0.04857                      -0.12012
                       0.87093                       0.04425                      -0.11870
                       0.87103                       0.04212                      -0.11802
        </DataArray>
        <DataArray type="Float32" Name="TranslationalAcceleration" NumberOfComponents="3" format="ascii">
                      -0.32616                       0.50070                       0.91073
                      -0.14736                       0.98635                       1.95134
                       0.20186                       1.88349                       4.06445
                       0.50187                       2.74345                       6.19451
                       0.77404                       3.79076                       8.87202
                       0.89263                       5.13883                      12.04750
                       0.73597                       6.56122                      15.19063
                       0.30587                       7.96609                      18.34070
                      -0.35836                       9.36451                      21.48406
                      -1.16371                      10.76995                      24.60149
                      -1.98035                      12.19397                      27.67734
                      -2.64667                      13.65442                      30.68600
                      -2.96943                      15.16404                      33.61410
                      -2.76447                      16.73078                      36.46218
                      -1.89454                      18.35652                      39.24566
                      -0.64124                      19.75090                      41.53410
                       0.69815                      20.89234                      43.35059
                       2.25598                      22.08031                      45.13978
                       3.07295                      22.64635                      46.04896
        </DataArray>
        <DataArray type="Float32" Name="OrientationX" NumberOfComponents="3" format="ascii">
                       0.95067                       0.20590                      -0.23202
                       0.95076                       0.20607                      -0.23150
                       0.95101                       0.20656                      -0.23001
                       0.95136                       0.20723                      -0.22798
                       0.95192                       0.20834                      -0.22460
                       0.96070                       0.18029                      -0.21106
                       0.96681                       0.16079                      -0.19858
                       0.97199                       0.14439                      -0.18542
                       0.97715                       0.12741                      -0.17014
                       0.98210                       0.11044                      -0.15257
                       0.98654                       0.09531                      -0.13285
                       0.99051                       0.08093                      -0.11111
                       0.99370                       0.06877                      -0.08849
                       0.99590                       0.06092                      -0.06693
                       0.99750                       0.05278                      -0.04695
                       0.99843                       0.04495                      -0.03345
                       0.99892                       0.03821                      -0.02627
                       0.99914                       0.03432                      -0.02331
                       0.99913                       0.03418                      -0.02378
        </DataArray>
        <DataArray type="Float32" Name="OrientationY" NumberOfComponents="3" format="ascii">
                       0.26459                      -0.92864                       0.26003
                       0.26460                      -0.92862                       0.26010
                       0.26463                      -0.92856                       0.26028
                       0.26467                      -0.92849                       0.26050
                       0.26473                      -0.92838                       0.26084
                       0.23429                      -0.93443                       0.26825
                       0.21219                      -0.93819                       0.27344
                       0.19279                      -0.94110                       0.27778
                       0.17217                      -0.94383                       0.28203
                       0.15084                      -0.94629                       0.28599
                       0.13058                      -0.94827                       0.28937
                       0.11040                      -0.94994                       0.29227
                       0.09205                      -0.95122                       0.29446
                       0.07812                      -0.95204                       0.29583
                       0.06439                      -0.95276                       0.29683
                       0.05288                      -0.95329                       0.29740
                       0.04431                      -0.95364                       0.29769
                       0.03971                      -0.95380                       0.29781
                       0.03971                      -0.95380                       0.29781
        </DataArray>
        <DataArray type="Float32" Name="OrientationZ" NumberOfComponents="3" format="ascii">
                      -0.16192                      -0.30859                      -0.93731
                      -0.16137                      -0.30855                      -0.93742
                      -0.15981                      -0.30840                      -0.93774
                      -0.15769                      -0.30816                      -0.93817
                      -0.15417                      -0.30775                      -0.93889
                      -0.14886                      -0.30715                      -0.93995
                      -0.14235                      -0.30650                      -0.94117
                      -0.13439                      -0.30575                      -0.94258
                      -0.12465                      -0.30488                      -0.94420
                      -0.11279                      -0.30388                      -0.94601
                      -0.09839                      -0.30283                      -0.94795
                      -0.08189                      -0.30176                      -0.94986
                      -0.06393                      -0.30075                      -0.95156
                      -0.04570                      -0.29985                      -0.95289
                      -0.02907                      -0.29911                      -0.95378
                      -0.01852                      -0.29870                      -0.95417
                      -0.01368                      -0.29853                      -0.95430
                      -0.01201                      -0.29848                      -0.95434
                      -0.01250                      -0.29850                      -0.95433
        </DataArray>
      </PointData>
      <Lines>
        <DataArray type="Int32" Name="connectivity" format="ascii">
      0      1
      1      2
      2      3
      3      4
      4      5
      5      6
      6      7
      7      8
      8      9
      9     10
     10     11
     11     12
     12     13
     13     14
     14     15
     15     16
     16     17
     17     18
        </DataArray>
        <DataArray type="Int32" Name="offsets" format="ascii">
      2
      4
      6
      8
     10
     12
     14
     16
     18
     20
     22
     24
     26
     28
     30
     32
     34
     36
        </DataArray>
      </Lines>
    </Piece>
  </PolyData>
</VTKFile>
