<?xml version="1.0"?>
<VTKFile type="PolyData" version="0.1" byte_order="LittleEndian">
  <PolyData>
    <Piece NumberOfPoints="     17" NumberOfVerts="  0" NumberOfLines="      0"
           NumberOfStrips="  0" NumberOfPolys="      0">
      <Points>
        <DataArray type="Float32" NumberOfComponents="3" format="ascii">
                       2.84551                      -3.32881                      90.24690
                       2.70544                      -6.94217                      90.35352
                       2.57354                     -10.55599                      90.45438
                       2.45314                     -14.17043                      90.54763
                       2.34720                     -17.78552                      90.63207
                       2.25890                     -21.40130                      90.70690
                       2.19191                     -25.01773                      90.77141
                       2.15063                     -28.63472                      90.82489
                       2.14013                     -32.25206                      90.86670
                       2.16595                     -35.86944                      90.89636
                       2.23360                     -39.48635                      90.91357
                       2.34784                     -43.10212                      90.91841
                       2.51181                     -46.71598                      90.91136
                       2.72579                     -50.32722                      90.89339
                       2.98585                     -53.93543                      90.86614
                       3.28224                     -57.54084                      90.83209
                       3.59750                     -61.14467                      90.79461
        </DataArray>
      </Points>
      <PointData>
        <DataArray type="Float32" Name="Force" NumberOfComponents="3" format="ascii">
                     220.51217                      -6.01439                      87.41667
                     700.91442                     -18.24637                     242.18735
                    2223.07524                    -106.06325                   -1093.76742
                    3649.92175                    -161.35448                   -1823.72606
                    2213.95042                     -85.81384                   -1005.52862
                    4800.28355                    -156.24916                   -1983.34691
                    5818.28453                    -140.73502                   -2166.83210
                    6470.33756                     -92.27423                   -2170.37297
                    6961.40131                     -22.50482                   -2145.15951
                    8815.24826                      80.63095                   -2508.78022
                   10153.86445                     236.16685                   -2695.60329
                   11643.24185                     446.90303                   -2953.73971
                    6688.55137                     334.24714                   -1638.62326
                   13336.26327                     819.81900                   -3141.35377
                   12850.72515                     949.64815                   -2882.80072
                   18203.39685                    1521.17105                   -3826.97778
                    7497.10746                     653.48248                   -1428.67884
        </DataArray>
        <DataArray type="Float32" Name="Moment" NumberOfComponents="3" format="ascii">
                     -17.69245                      -3.63637                      27.10358
                     205.91752                     -66.93521                     387.73770
                    1257.40563                    -333.84439                    2244.84178
                    1328.61048                    -470.04574                    2883.13204
                      75.79000                    -180.35400                     234.82901
                   -1057.38064                    -138.51131                   -2302.26436
                    -702.54517                     368.92085                   -1598.63502
                    -162.21539                    1193.14471                    -178.07564
                      88.93785                    1341.00977                     610.79162
                     309.98083                    1304.63708                    1509.86519
                     942.38169                    1221.70039                    3952.47911
                    1783.02617                     596.87219                    7309.03021
                    -141.10829                     131.81713                    -489.57309
                   -2212.46317                     146.13651                   -9071.05840
                   -1953.78895                      98.90903                   -8407.42267
                    -456.56874                     210.36450                   -1381.64170
                     -90.85442                     219.40662                     196.88094
        </DataArray>
      </PointData>
    </Piece>
  </PolyData>
</VTKFile>
