<?xml version="1.0"?>
<VTKFile type="PolyData" version="0.1" byte_order="LittleEndian">
  <PolyData>
    <Piece NumberOfPoints="     17" NumberOfVerts="  0" NumberOfLines="      0"
           NumberOfStrips="  0" NumberOfPolys="      0">
      <Points>
        <DataArray type="Float32" NumberOfComponents="3" format="ascii">
                       2.58544                      -1.35718                      87.15251
                       2.02748                      -2.82117                      83.89172
                       1.48002                      -4.28301                      80.62819
                       0.94716                      -5.74190                      77.36093
                       0.43239                      -7.19739                      74.08926
                      -0.06061                      -8.64923                      70.81262
                      -0.52756                     -10.09715                      67.53045
                      -0.96327                     -11.54081                      64.24213
                      -1.36168                     -12.97991                      60.94710
                      -1.71610                     -14.41421                      57.64498
                      -2.01981                     -15.84358                      54.33569
                      -2.26691                     -17.26803                      51.01958
                      -2.45341                     -18.68775                      47.69747
                      -2.57875                     -20.10305                      44.37054
                      -2.64747                     -21.51455                      41.04025
                      -2.67126                     -22.92323                      37.70801
                      -2.67124                     -24.33052                      34.37500
        </DataArray>
      </Points>
      <PointData>
        <DataArray type="Float32" Name="Force" NumberOfComponents="3" format="ascii">
                     139.28467                     -79.76464                      11.89272
                     517.09532                    -261.28354                      30.58901
                    1888.58288                     590.56334                    -573.90081
                    3149.08516                    1003.23664                    -950.00991
                    1911.17549                     532.80161                    -532.31068
                    4116.43207                     999.42138                   -1053.50243
                    4921.99601                    1016.10876                   -1134.00801
                    5370.11050                     931.51844                   -1096.58567
                    5680.76363                     850.01920                   -1024.17164
                    7102.47354                     919.77628                   -1108.97429
                    8055.29083                     921.09240                   -1061.90285
                    9088.99130                     973.56939                    -994.99412
                    5171.81488                     524.33736                    -476.94533
                   10264.73058                     983.37960                    -771.14242
                    9992.86713                     918.27735                    -574.92121
                   15006.55698                    1365.78688                    -673.11290
                    6711.31451                     627.33050                    -279.25874
        </DataArray>
        <DataArray type="Float32" Name="Moment" NumberOfComponents="3" format="ascii">
                     -19.56850                     -19.35877                       8.30027
                     126.28936                    -360.29437                      78.37611
                     864.08696                   -1964.59506                     363.78162
                     878.06209                   -2529.05108                     505.27997
                      33.91492                    -239.86065                     -43.28742
                    -729.00012                    1888.35354                    -698.18612
                    -414.98106                    1537.67823                      39.29528
                      17.23873                     757.14980                    1274.41831
                     180.00246                     240.63284                    1746.98320
                     284.00995                    -340.12350                    2204.88589
                     556.67074                   -2069.23822                    3015.72158
                     833.50181                   -4658.67555                    3510.29838
                     -35.25510                     609.37929                     458.30779
                    -832.41231                    6916.38970                   -1535.24857
                    -698.61120                    6317.83976                   -1470.73098
                     -30.49012                     846.01466                     914.34987
                     -20.10164                    -149.51680                     450.09632
        </DataArray>
      </PointData>
    </Piece>
  </PolyData>
</VTKFile>
