<?xml version="1.0"?>
<VTKFile type="PolyData" version="0.1" byte_order="LittleEndian">
  <PolyData>
    <Piece NumberOfPoints="     17" NumberOfVerts="  0" NumberOfLines="      0"
           NumberOfStrips="  0" NumberOfPolys="      0">
      <Points>
        <DataArray type="Float32" NumberOfComponents="3" format="ascii">
                       2.37250                       2.26953                      87.78344
                       1.91321                       4.77133                      85.21101
                       1.46146                       7.27209                      82.63624
                       1.02005                       9.77172                      80.05857
                       0.59128                      12.27010                      77.47757
                       0.17763                      14.76722                      74.89289
                      -0.21766                      17.26324                      72.30428
                      -0.59037                      19.75844                      69.71154
                      -0.93526                      22.25309                      67.11445
                      -1.24636                      24.74736                      64.51275
                      -1.51747                      27.24119                      61.90617
                      -1.74288                      29.73424                      59.29452
                      -1.91836                      32.22596                      56.67776
                      -2.04249                      34.71570                      54.05616
                      -2.11811                      37.20296                      51.43031
                      -2.15411                      39.68773                      48.80116
                      -2.16747                      42.17084                      46.17017
        </DataArray>
      </Points>
      <PointData>
        <DataArray type="Float32" Name="Force" NumberOfComponents="3" format="ascii">
                     158.39280                     -28.54861                     -56.21607
                     567.60470                     -99.28499                    -196.27387
                    2349.07982                     696.40587                     274.16473
                    3838.62458                    1124.49876                     450.50780
                    2325.12343                     610.30303                     214.60029
                    5065.09270                    1178.45936                     348.72982
                    6156.88368                    1236.02045                     283.20168
                    6894.66074                    1176.36393                     187.07527
                    7422.91152                    1074.76369                     107.77541
                    9365.51300                    1127.99751                      53.44435
                   10775.22702                    1048.33668                      10.37557
                   12282.18419                     948.03621                      15.29840
                    7040.51153                     435.23027                      13.70164
                   14036.05335                     643.31166                      31.13083
                   13522.70411                     367.35596                      21.82673
                   19163.34405                     144.11556                     -59.45370
                    7902.28732                     -95.02645                    -125.86423
        </DataArray>
        <DataArray type="Float32" Name="Moment" NumberOfComponents="3" format="ascii">
                     -19.05088                     -13.26476                     -15.67355
                     109.23810                    -274.04292                    -346.93864
                     793.62922                   -1566.11503                   -1865.89487
                     724.33748                   -1699.62290                   -2588.73489
                       3.48167                      49.25088                    -422.37499
                    -665.91536                    2013.52668                    1389.29567
                    -409.04439                    1222.18436                    1073.16295
                     -84.16959                    -302.18394                     435.22890
                      34.88777                   -1007.18978                     -26.27033
                      84.25634                   -1628.61660                    -776.98411
                     246.06930                   -3450.85188                   -2638.83563
                     377.78468                   -5681.91766                   -5353.37000
                     -40.66292                     352.69547                     276.77799
                    -414.65144                    6847.76624                    6449.38669
                    -260.19257                    6323.10746                    5982.83206
                    -198.25995                     865.55551                     966.22163
                    -124.78950                    -349.93809                     -28.66655
        </DataArray>
      </PointData>
    </Piece>
  </PolyData>
</VTKFile>
