<?xml version="1.0"?>
<VTKFile type="PolyData" version="0.1" byte_order="LittleEndian">
  <PolyData>
    <Piece NumberOfPoints="     19" NumberOfVerts="  0" NumberOfLines="     18"
           NumberOfStrips="  0" NumberOfPolys="      0">
      <Points>
        <DataArray type="Float32" NumberOfComponents="3" format="ascii">
                       2.64384                      -1.45293                      89.70174
                       2.53685                      -2.75645                      89.30517
                       2.29118                      -5.33437                      88.42446
                       2.03375                      -7.89811                      87.50027
                       1.71057                     -11.09368                      86.31587
                       1.40518                     -14.97118                      85.01580
                       1.15771                     -18.88656                      83.82608
                       0.93277                     -22.80086                      82.62827
                       0.73914                     -26.71452                      81.42274
                       0.58340                     -30.62669                      80.20678
                       0.46706                     -34.53618                      78.97773
                       0.40383                     -38.44269                      77.73519
                       0.40058                     -42.34554                      76.47947
                       0.46082                     -46.24407                      75.21161
                       0.58465                     -50.13772                      73.93314
                       0.72853                     -53.37903                      72.86172
                       0.86454                     -55.97270                      72.00937
                       1.01092                     -58.58328                      71.20828
                       1.07891                     -59.87545                      70.76849
        </DataArray>
      </Points>
      <PointData>
        <DataArray type="Float32" Name="Force" NumberOfComponents="3" format="ascii">
                       0.68293                      -1.80040                       5.79167
                      86.97250                     -14.19222                      23.70459
                     113.05257                     -27.36260                      60.86615
                     104.12765                     -32.24694                      80.00142
                     798.97640                      72.29065                    -437.39166
                    1031.64832                      79.53481                    -502.29425
                    1205.19046                      77.80555                    -512.81582
                    1556.19732                      90.70377                    -591.97151
                    1706.47994                      92.94053                    -576.65598
                    1978.33683                     110.96647                    -607.20294
                    2446.12180                     148.56270                    -680.50691
                    2817.54053                     194.22574                    -718.03166
                    3289.17432                     266.66709                    -789.25452
                    3630.61984                     337.13851                    -810.56357
                    3947.39280                     409.18243                    -822.14485
                    4145.68026                     454.02313                    -811.11421
                    4083.27014                     451.83867                    -755.48374
                    2985.43667                     327.95416                    -530.23839
                    1268.95402                      99.64646                    -101.88335
        </DataArray>
        <DataArray type="Float32" Name="Moment" NumberOfComponents="3" format="ascii">
                       0.00000                       0.00000                       0.00000
                       0.00000                       0.00000                       0.00000
                       0.00000                       0.00000                       0.00000
                       0.00000                       0.00000                       0.00000
                      18.18964                     242.96382                      73.38299
                      32.72921                     466.05136                     141.01763
                      38.49667                     597.04099                     181.05705
                      47.03085                     819.49033                     249.20143
                      52.88863                    1087.24199                     331.74411
                      45.97226                    1211.48621                     371.18227
                      31.29118                    1255.20721                     386.50453
                      13.17537                    1319.36369                     408.58439
                      -7.59097                    1204.29473                     375.26268
                     -27.46633                    1201.70654                     376.80174
                     -44.20368                    1163.82028                     366.99800
                     -52.68604                    1106.88908                     350.30055
                     -51.25329                     985.52078                     312.40300
                     -26.57045                     496.46694                     157.46501
                     -21.89087                     412.52688                     130.81957
        </DataArray>
        <DataArray type="Float32" Name="TranslationalVelocity" NumberOfComponents="3" format="ascii">
                      -0.69813                       0.37895                      -1.35626
                      -0.83596                       0.75739                      -2.56303
                      -1.10732                       1.59858                      -4.94965
                      -1.37663                       2.48074                      -7.32206
                      -1.71217                       3.60955                     -10.27691
                      -2.12142                       4.84174                     -13.85753
                      -2.53711                       5.96434                     -17.46766
                      -2.95484                       7.09047                     -21.07132
                      -3.37712                       8.21877                     -24.66830
                      -3.80746                       9.35085                     -28.25719
                      -4.24869                      10.48895                     -31.83707
                      -4.70687                      11.63131                     -35.40652
                      -5.18703                      12.77627                     -38.96483
                      -5.69310                      13.92174                     -42.51173
                      -6.22668                      15.06567                     -46.04761
                      -6.69042                      16.01680                     -48.98718
                      -7.07238                      16.76924                     -51.33755
                      -7.46168                      17.47326                     -53.70254
                      -7.65493                      17.86155                     -54.87307
        </DataArray>
        <DataArray type="Float32" Name="RotationalVelocity" NumberOfComponents="3" format="ascii">
                       0.92492                      -0.01245                      -0.10954
                       0.92475                      -0.01244                      -0.10952
                       0.92432                      -0.01241                      -0.10951
                       0.92379                      -0.01236                      -0.10953
                       0.92296                      -0.01227                      -0.10959
                       0.92183                      -0.01214                      -0.10972
                       0.92059                      -0.01194                      -0.11004
                       0.91925                      -0.01162                      -0.11076
                       0.91777                      -0.01108                      -0.11214
                       0.91616                      -0.01026                      -0.11442
                       0.91443                      -0.00907                      -0.11791
                       0.91262                      -0.00753                      -0.12254
                       0.91081                      -0.00568                      -0.12819
                       0.90910                      -0.00365                      -0.13445
                       0.90762                      -0.00165                      -0.14068
                       0.90669                      -0.00026                      -0.14507
                       0.90623                       0.00051                      -0.14748
                       0.90599                       0.00094                      -0.14885
                       0.90597                       0.00102                      -0.14910
        </DataArray>
        <DataArray type="Float32" Name="TranslationalAcceleration" NumberOfComponents="3" format="ascii">
                       0.80077                       1.10316                       0.28259
                       0.86331                       2.24644                       0.58905
                       0.99666                       4.50994                       1.28090
                       1.13172                       6.76025                       2.01142
                       1.29804                       9.56193                       2.94974
                       1.47438                      12.94950                       3.96331
                       1.62551                      16.35701                       4.87717
                       1.76422                      19.75409                       5.79625
                       1.89478                      23.14063                       6.71766
                       2.02602                      26.51592                       7.64037
                       2.16831                      29.88055                       8.56401
                       2.33627                      33.23462                       9.48363
                       2.54544                      36.58029                      10.39508
                       2.80971                      39.92090                      11.29482
                       3.13806                      43.26042                      12.18071
                       3.45967                      46.04516                      12.90856
                       3.74504                      48.27688                      13.47882
                       4.04053                      50.52322                      14.00226
                       4.19601                      51.63686                      14.29690
        </DataArray>
        <DataArray type="Float32" Name="OrientationX" NumberOfComponents="3" format="ascii">
                       0.93831                       0.02735                      -0.34471
                       0.93835                       0.02781                      -0.34457
                       0.93845                       0.02913                      -0.34418
                       0.93860                       0.03094                      -0.34363
                       0.93883                       0.03393                      -0.34272
                       0.94942                       0.02891                      -0.31267
                       0.95660                       0.02751                      -0.29011
                       0.96254                       0.02817                      -0.26969
                       0.96839                       0.02995                      -0.24762
                       0.97395                       0.03328                      -0.22431
                       0.97875                       0.03902                      -0.20131
                       0.98297                       0.04650                      -0.17781
                       0.98625                       0.05573                      -0.15561
                       0.98827                       0.06651                      -0.13748
                       0.98987                       0.07598                      -0.11994
                       0.99103                       0.08110                      -0.10618
                       0.99189                       0.08239                      -0.09675
                       0.99235                       0.08232                      -0.09196
                       0.99238                       0.08191                      -0.09209
        </DataArray>
        <DataArray type="Float32" Name="OrientationY" NumberOfComponents="3" format="ascii">
                       0.33693                      -0.29665                       0.89358
                       0.33692                      -0.29677                       0.89354
                       0.33689                      -0.29707                       0.89345
                       0.33687                      -0.29742                       0.89334
                       0.33682                      -0.29796                       0.89318
                       0.30665                      -0.29969                       0.90341
                       0.28467                      -0.30112                       0.91010
                       0.26535                      -0.30246                       0.91548
                       0.24483                      -0.30383                       0.92073
                       0.22362                      -0.30524                       0.92565
                       0.20347                      -0.30663                       0.92983
                       0.18343                      -0.30808                       0.93351
                       0.16524                      -0.30955                       0.93642
                       0.15145                      -0.31086                       0.93831
                       0.13786                      -0.31221                       0.93996
                       0.12648                      -0.31334                       0.94118
                       0.11798                      -0.31417                       0.94201
                       0.11343                      -0.31460                       0.94242
                       0.11342                      -0.31459                       0.94243
        </DataArray>
        <DataArray type="Float32" Name="OrientationZ" NumberOfComponents="3" format="ascii">
                      -0.07782                      -0.95459                      -0.28757
                      -0.07741                      -0.95454                      -0.28785
                      -0.07621                      -0.95441                      -0.28860
                      -0.07457                      -0.95424                      -0.28958
                      -0.07181                      -0.95398                      -0.29116
                      -0.06759                      -0.95360                      -0.29340
                      -0.06232                      -0.95319                      -0.29589
                      -0.05578                      -0.95275                      -0.29860
                      -0.04766                      -0.95225                      -0.30156
                      -0.03767                      -0.95169                      -0.30473
                      -0.02545                      -0.95103                      -0.30805
                      -0.01137                      -0.95022                      -0.31136
                       0.00402                      -0.94925                      -0.31450
                       0.01967                      -0.94813                      -0.31729
                       0.03397                      -0.94697                      -0.31952
                       0.04306                      -0.94617                      -0.32079
                       0.04722                      -0.94579                      -0.32134
                       0.04865                      -0.94565                      -0.32153
                       0.04822                      -0.94569                      -0.32149
        </DataArray>
      </PointData>
      <Lines>
        <DataArray type="Int32" Name="connectivity" format="ascii">
      0      1
      1      2
      2      3
      3      4
      4      5
      5      6
      6      7
      7      8
      8      9
      9     10
     10     11
     11     12
     12     13
     13     14
     14     15
     15     16
     16     17
     17     18
        </DataArray>
        <DataArray type="Int32" Name="offsets" format="ascii">
      2
      4
      6
      8
     10
     12
     14
     16
     18
     20
     22
     24
     26
     28
     30
     32
     34
     36
        </DataArray>
      </Lines>
    </Piece>
  </PolyData>
</VTKFile>
