<?xml version="1.0"?>
<VTKFile type="PolyData" version="0.1" byte_order="LittleEndian">
  <PolyData>
    <Piece NumberOfPoints="     19" NumberOfVerts="  0" NumberOfLines="     18"
           NumberOfStrips="  0" NumberOfPolys="      0">
      <Points>
        <DataArray type="Float32" NumberOfComponents="3" format="ascii">
                       3.27822                       2.59438                      92.15992
                       3.40386                       5.47084                      94.35025
                       3.53678                       8.34901                      96.53790
                       3.67968                      11.22922                      98.72224
                       3.83475                      14.11167                     100.90278
                       4.00425                      16.99644                     103.07916
                       4.19094                      19.88348                     105.25114
                       4.39834                      22.77254                     107.41852
                       4.63067                      25.66331                     109.58107
                       4.89265                      28.55545                     111.73839
                       5.18911                      31.44855                     113.88993
                       5.52434                      34.34220                     116.03502
                       5.90132                      37.23598                     118.17298
                       6.32072                      40.12951                     120.30341
                       6.77965                      43.02247                     122.42647
                       7.27036                      45.91484                     124.54332
                       7.77859                      48.80684                     126.65657
                       8.03485                      50.25280                     127.71274
                       3.21682                       1.15653                      91.06417
        </DataArray>
      </Points>
      <PointData>
        <DataArray type="Float32" Name="TranslationalVelocity" NumberOfComponents="3" format="ascii">
                       0.06168                      -1.86514                       2.41341
                       0.39106                      -3.88077                       5.04154
                       0.72052                      -5.89099                       7.66625
                       1.04979                      -7.89460                      10.28661
                       1.37850                      -9.89084                      12.90205
                       1.70679                     -11.87944                      15.51235
                       2.03587                     -13.86058                      18.11743
                       2.36828                     -15.83484                      20.71724
                       2.70788                     -17.80300                      23.31165
                       3.05969                     -19.76591                      25.90038
                       3.42950                     -21.72443                      28.48288
                       3.82327                     -23.67932                      31.05831
                       4.24632                     -25.63133                      33.62568
                       4.70237                     -27.58121                      36.18409
                       5.19235                     -29.52967                      38.73320
                       5.71302                     -31.47736                      41.27386
                       6.25539                     -33.42489                      43.80887
                       6.53048                     -34.39868                      45.07545
                      -0.10300                      -0.85616                       1.09863
        </DataArray>
        <DataArray type="Float32" Name="RotationalVelocity" NumberOfComponents="3" format="ascii">
                       0.91425                      -0.00347                      -0.11717
                       0.91278                      -0.00345                      -0.11712
                       0.91078                      -0.00342                      -0.11704
                       0.90844                      -0.00348                      -0.11684
                       0.90592                      -0.00358                      -0.11657
                       0.90337                      -0.00358                      -0.11643
                       0.90087                      -0.00327                      -0.11670
                       0.89849                      -0.00241                      -0.11768
                       0.89623                      -0.00080                      -0.11967
                       0.89408                       0.00175                      -0.12290
                       0.89200                       0.00532                      -0.12747
                       0.88994                       0.00989                      -0.13334
                       0.88792                       0.01527                      -0.14029
                       0.88598                       0.02111                      -0.14784
                       0.88422                       0.02682                      -0.15523
                       0.88286                       0.03155                      -0.16137
                       0.88221                       0.03420                      -0.16480
                       0.88212                       0.03484                      -0.16564
                       0.91483                      -0.00346                      -0.11721
        </DataArray>
        <DataArray type="Float32" Name="TranslationalAcceleration" NumberOfComponents="3" format="ascii">
                      -1.83712                      -1.84068                      -2.16117
                      -2.27885                      -4.16577                      -4.14019
                      -2.69673                      -6.55549                      -6.01666
                      -3.07888                      -9.02604                      -7.76493
                      -3.41249                     -11.58695                      -9.37011
                      -3.68280                     -14.24291                     -10.82590
                      -3.87439                     -16.99534                     -12.13243
                      -3.97124                     -19.84353                     -13.29462
                      -3.95653                     -22.78530                     -14.32119
                      -3.81363                     -25.81754                     -15.22372
                      -3.52757                     -28.93638                     -16.01605
                      -3.08705                     -32.13718                     -16.71373
                      -2.48700                     -35.41423                     -17.33354
                      -1.73179                     -38.76011                     -17.89280
                      -0.83884                     -42.16453                     -18.40852
                       0.15723                     -45.61274                     -18.89635
                       1.19957                     -49.08413                     -19.36968
                       1.72363                     -50.82264                     -19.60423
                      -1.61181                      -0.69180                      -1.14995
        </DataArray>
        <DataArray type="Float32" Name="RotationalAcceleration" NumberOfComponents="3" format="ascii">
                      -0.06516                      -0.07117                       0.01710
                      -0.03751                      -0.06911                       0.01288
                       0.00024                      -0.06533                       0.00584
                       0.04433                      -0.05983                      -0.00381
                       0.09167                      -0.05207                      -0.01659
                       0.13999                      -0.04176                      -0.03277
                       0.18772                      -0.02883                      -0.05236
                       0.23366                      -0.01304                      -0.07560
                       0.27690                       0.00571                      -0.10258
                       0.31684                       0.02732                      -0.13311
                       0.35298                       0.05137                      -0.16665
                       0.38496                       0.07708                      -0.20212
                       0.41248                       0.10316                      -0.23784
                       0.43518                       0.12775                      -0.27134
                       0.45254                       0.14834                      -0.29931
                       0.46383                       0.16167                      -0.31740
                       0.46811                       0.16352                      -0.32006
                       0.46836                       0.16100                      -0.31677
                      -0.07594                      -0.07172                       0.01842
        </DataArray>
        <DataArray type="Float32" Name="OrientationX" NumberOfComponents="3" format="ascii">
                       0.99083                      -0.10607                       0.08367
                       0.99078                      -0.10724                       0.08279
                       0.99070                      -0.10906                       0.08140
                       0.99223                      -0.10345                       0.06908
                       0.99524                      -0.08775                       0.04230
                       0.99642                      -0.08055                       0.02566
                       0.99723                      -0.07392                       0.00828
                       0.99766                      -0.06756                      -0.01059
                       0.99761                      -0.06208                      -0.03044
                       0.99703                      -0.05819                      -0.05046
                       0.99593                      -0.05554                      -0.07103
                       0.99433                      -0.05432                      -0.09145
                       0.99243                      -0.05556                      -0.10952
                       0.99034                      -0.05756                      -0.12617
                       0.98814                      -0.05845                      -0.14198
                       0.98612                      -0.05705                      -0.15595
                       0.98502                      -0.05418                      -0.16368
                       0.98483                      -0.05244                      -0.16544
                       0.99085                      -0.10569                       0.08397
        </DataArray>
        <DataArray type="Float32" Name="OrientationY" NumberOfComponents="3" format="ascii">
                       0.13077                       0.59738                      -0.79122
                       0.13074                       0.59662                      -0.79180
                       0.13069                       0.59558                      -0.79259
                       0.11743                       0.59579                      -0.79451
                       0.08656                       0.59744                      -0.79723
                       0.06888                       0.59760                      -0.79883
                       0.05095                       0.59765                      -0.80013
                       0.03197                       0.59771                      -0.80108
                       0.01274                       0.59773                      -0.80159
                      -0.00569                       0.59769                      -0.80170
                      -0.02383                       0.59767                      -0.80139
                      -0.04100                       0.59766                      -0.80070
                      -0.05483                       0.59758                      -0.79994
                      -0.06706                       0.59756                      -0.79902
                      -0.07927                       0.59771                      -0.79778
                      -0.09132                       0.59805                      -0.79624
                      -0.09920                       0.59838                      -0.79505
                      -0.10162                       0.59851                      -0.79464
                       0.13078                       0.59768                      -0.79099
        </DataArray>
        <DataArray type="Float32" Name="OrientationZ" NumberOfComponents="3" format="ascii">
                       0.03394                       0.79491                       0.60578
                       0.03552                       0.79533                       0.60514
                       0.03796                       0.79586                       0.60429
                       0.04104                       0.79645                       0.60331
                       0.04469                       0.79709                       0.60220
                       0.04901                       0.79774                       0.60100
                       0.05419                       0.79834                       0.59976
                       0.06045                       0.79886                       0.59847
                       0.06796                       0.79929                       0.59709
                       0.07681                       0.79961                       0.59559
                       0.08696                       0.79982                       0.59391
                       0.09815                       0.79991                       0.59204
                       0.10989                       0.79989                       0.59001
                       0.12138                       0.79976                       0.58792
                       0.13149                       0.79958                       0.58599
                       0.13869                       0.79942                       0.58454
                       0.14102                       0.79938                       0.58404
                       0.14069                       0.79939                       0.58410
                       0.03342                       0.79474                       0.60603
        </DataArray>
      </PointData>
      <Lines>
        <DataArray type="Int32" Name="connectivity" format="ascii">
      0      1
      1      2
      2      3
      3      4
      4      5
      5      6
      6      7
      7      8
      8      9
      9     10
     10     11
     11     12
     12     13
     13     14
     14     15
     15     16
     16     17
     18      0
        </DataArray>
        <DataArray type="Int32" Name="offsets" format="ascii">
      2
      4
      6
      8
     10
     12
     14
     16
     18
     20
     22
     24
     26
     28
     30
     32
     34
     36
        </DataArray>
      </Lines>
    </Piece>
  </PolyData>
</VTKFile>
