<?xml version="1.0"?>
<VTKFile type="PolyData" version="0.1" byte_order="LittleEndian">
  <PolyData>
    <Piece NumberOfPoints="     17" NumberOfVerts="  0" NumberOfLines="      0"
           NumberOfStrips="  0" NumberOfPolys="      0">
      <Points>
        <DataArray type="Float32" NumberOfComponents="3" format="ascii">
                       2.50013                       1.41573                      87.21452
                       1.94831                       2.99258                      84.00572
                       1.40437                       4.56929                      80.79551
                       0.87133                       6.14603                      77.58348
                       0.35166                       7.72286                      74.36932
                      -0.15207                       9.29982                      71.15268
                      -0.63676                      10.87706                      67.93326
                      -1.09863                      12.45484                      64.71076
                      -1.53313                      14.03338                      61.48484
                      -1.93524                      15.61279                      58.25516
                      -2.29988                      17.19298                      55.02143
                      -2.62251                      18.77368                      51.78349
                      -2.90004                      20.35439                      48.54138
                      -3.13188                      21.93459                      45.29541
                      -3.32123                      23.51381                      42.04617
                      -3.47662                      25.09186                      38.79451
                      -3.61362                      26.66909                      35.54159
        </DataArray>
      </Points>
      <PointData>
        <DataArray type="Float32" Name="Force" NumberOfComponents="3" format="ascii">
                     148.83485                     -43.29220                     -46.98888
                     519.95366                    -149.61082                    -161.69729
                    2011.72355                     682.16282                       0.72121
                    3307.36506                    1107.70647                       5.89429
                    2021.58277                     601.97497                     -25.48753
                    4441.07402                    1175.09212                    -107.72705
                    5435.18819                    1249.97069                    -187.83991
                    6087.28478                    1201.10112                    -257.28840
                    6544.52434                    1119.72838                    -297.24307
                    8248.33281                    1213.64984                    -378.75923
                    9469.57832                    1189.37719                    -410.22002
                   10788.12702                    1173.58931                    -400.56864
                    6187.73542                     595.45958                    -198.48116
                   12357.38250                    1029.32197                    -336.59739
                   11952.68257                     819.16228                    -266.34334
                   17037.77155                     895.88576                    -348.52522
                    6966.07241                     230.96332                    -182.88563
        </DataArray>
        <DataArray type="Float32" Name="Moment" NumberOfComponents="3" format="ascii">
                     -17.77504                     -16.70510                      -9.71250
                      94.08298                    -310.38524                    -216.87111
                     704.64387                   -1758.38470                   -1125.75279
                     657.98636                   -2178.55041                   -1524.30234
                      19.63725                    -137.76144                    -236.28290
                    -569.25153                    1922.74493                     866.16876
                    -337.78041                    1184.11359                     859.08959
                     -11.61370                    -283.68551                     788.76707
                     102.49041                    -976.29019                     544.10712
                     155.99450                   -1679.90347                      54.19011
                     342.92037                   -3673.61402                   -1072.37966
                     522.73436                   -6230.40722                   -2846.73982
                     -41.61141                     355.36697                     192.99635
                    -581.20422                    7442.76960                    3675.50907
                    -453.36158                    6923.33252                    3373.47577
                    -177.01645                    1024.23871                     488.20607
                     -97.44228                    -190.46206                      62.81464
        </DataArray>
      </PointData>
    </Piece>
  </PolyData>
</VTKFile>
