<?xml version="1.0"?>
<VTKFile type="PolyData" version="0.1" byte_order="LittleEndian">
  <PolyData>
    <Piece NumberOfPoints="     19" NumberOfVerts="  0" NumberOfLines="     18"
           NumberOfStrips="  0" NumberOfPolys="      0">
      <Points>
        <DataArray type="Float32" NumberOfComponents="3" format="ascii">
                       3.18216                       1.37278                      90.69718
                       3.18570                       2.64345                      91.20044
                       3.18268                       5.14936                      92.29692
                       3.17787                       7.63849                      93.43616
                       3.17586                      10.73986                      94.88606
                       3.22165                      14.51519                      96.48840
                       3.29323                      18.33830                      97.96840
                       3.38371                      22.16175                      99.44648
                       3.50098                      25.98610                     100.92038
                       3.65170                      29.81039                     102.39139
                       3.83846                      33.63306                     103.86238
                       4.07415                      37.45413                     105.33049
                       4.36576                      41.27300                     106.79420
                       4.71721                      45.08907                     108.25208
                       5.12938                      48.90174                     109.70300
                       5.51222                      52.07647                     110.90698
                       5.83739                      54.61775                     111.86004
                       6.16117                      57.17910                     112.76165
                       6.32761                      58.44426                     113.25089
        </DataArray>
      </Points>
      <PointData>
        <DataArray type="Float32" Name="Force" NumberOfComponents="3" format="ascii">
                      -0.03641                       0.11239                      -0.28569
                      65.18099                       8.41864                     -21.93455
                      75.89926                      19.85326                     -51.35563
                      64.15965                      25.97981                     -67.11499
                     687.30175                     -70.28050                     164.33485
                     954.09488                     -98.05167                     220.06285
                    1074.14435                     -86.43228                     173.51832
                    1353.82783                     -91.34054                     152.96530
                    1458.04014                     -84.50693                     100.87325
                    1684.83381                     -93.56998                      64.80964
                    2098.51129                    -118.75025                      21.88389
                    2439.39563                    -151.89597                     -27.09390
                    2899.28041                    -212.77998                     -65.56489
                    3251.54646                    -274.19911                    -117.17241
                    3606.30411                    -342.09581                    -171.85080
                    3851.38866                    -388.81067                    -220.57920
                    3850.24314                    -394.65214                    -252.41968
                    2870.84613                    -294.75446                    -201.39182
                    1177.12418                     -77.45939                    -197.01770
        </DataArray>
        <DataArray type="Float32" Name="Moment" NumberOfComponents="3" format="ascii">
                       0.00000                       0.00000                       0.00000
                       0.00000                       0.00000                       0.00000
                       0.00000                       0.00000                       0.00000
                       0.00000                       0.00000                       0.00000
                      -1.51440                    -179.26149                     -70.33041
                      -4.06035                    -327.63149                    -128.37630
                      -8.22944                    -476.52303                    -186.42050
                     -15.92769                    -682.00408                    -266.27784
                     -29.16556                    -940.37105                    -366.23505
                     -43.12305                   -1062.07744                    -412.33680
                     -59.87560                   -1139.29194                    -440.57871
                     -80.33294                   -1207.22963                    -464.69886
                     -87.78850                   -1069.92858                    -409.73293
                    -105.59369                   -1076.87786                    -410.19759
                    -119.30198                   -1056.50035                    -400.43373
                    -123.67889                   -1008.88060                    -381.14177
                    -114.41316                    -899.26745                    -339.19968
                     -58.45523                    -452.73665                    -170.66142
                     -48.03953                    -372.68753                    -140.49671
        </DataArray>
        <DataArray type="Float32" Name="TranslationalVelocity" NumberOfComponents="3" format="ascii">
                       0.32768                      -0.54781                       1.34003
                       0.48129                      -1.01306                       2.51364
                       0.78471                      -2.02508                       4.82750
                       1.08500                      -3.07516                       7.12356
                       1.45617                      -4.40979                       9.98014
                       1.90098                      -5.88682                      13.45020
                       2.34212                      -7.25074                      16.95544
                       2.77229                      -8.61145                      20.45213
                       3.18765                      -9.96766                      23.94103
                       3.58301                     -11.32114                      27.42195
                       3.95521                     -12.67494                      30.89522
                       4.29575                     -14.02702                      34.36160
                       4.59876                     -15.37606                      37.82250
                       4.86034                     -16.72039                      41.27946
                       5.08019                     -18.05848                      44.73388
                       5.23581                     -19.16855                      47.61159
                       5.34614                     -20.04702                      49.91615
                       5.45325                     -20.87841                      52.23917
                       5.50495                     -21.32907                      53.38676
        </DataArray>
        <DataArray type="Float32" Name="RotationalVelocity" NumberOfComponents="3" format="ascii">
                       0.92398                       0.00859                      -0.11766
                       0.92364                       0.00854                      -0.11751
                       0.92280                       0.00836                      -0.11706
                       0.92175                       0.00812                      -0.11644
                       0.92016                       0.00771                      -0.11538
                       0.91800                       0.00707                      -0.11375
                       0.91574                       0.00624                      -0.11162
                       0.91348                       0.00513                      -0.10878
                       0.91133                       0.00365                      -0.10499
                       0.90935                       0.00169                      -0.10001
                       0.90767                      -0.00085                      -0.09352
                       0.90635                      -0.00392                      -0.08571
                       0.90541                      -0.00739                      -0.07686
                       0.90487                      -0.01105                      -0.06755
                       0.90466                      -0.01451                      -0.05875
                       0.90467                      -0.01681                      -0.05289
                       0.90472                      -0.01797                      -0.04996
                       0.90477                      -0.01850                      -0.04860
                       0.90478                      -0.01851                      -0.04858
        </DataArray>
        <DataArray type="Float32" Name="TranslationalAcceleration" NumberOfComponents="3" format="ascii">
                      -1.21561                      -1.26238                      -0.63915
                      -1.25464                      -2.34799                      -1.11171
                      -1.33987                      -4.47657                      -2.14510
                      -1.41028                      -6.56001                      -3.25775
                      -1.46085                      -9.10068                      -4.74662
                      -1.42713                     -12.12944                      -6.55191
                      -1.28344                     -15.13038                      -8.42425
                      -1.05442                     -18.04914                     -10.46791
                      -0.76573                     -20.88877                     -12.68158
                      -0.46502                     -23.65162                     -15.06020
                      -0.20784                     -26.34713                     -17.57913
                      -0.07111                     -28.97180                     -20.23561
                      -0.13602                     -31.52887                     -23.00458
                      -0.47494                     -34.02063                     -25.85562
                      -1.13485                     -36.44971                     -28.75556
                      -1.92697                     -38.43219                     -31.18699
                      -2.70791                     -40.00142                     -33.12714
                      -3.57407                     -41.60339                     -35.02921
                      -4.02249                     -42.37174                     -36.00267
        </DataArray>
        <DataArray type="Float32" Name="OrientationX" NumberOfComponents="3" format="ascii">
                       0.99348                      -0.04401                       0.10516
                       0.99348                      -0.04437                       0.10502
                       0.99348                      -0.04538                       0.10462
                       0.99347                      -0.04678                       0.10407
                       0.99345                      -0.04909                       0.10316
                       0.99655                      -0.04098                       0.07223
                       0.99811                      -0.03689                       0.04918
                       0.99899                      -0.03491                       0.02840
                       0.99941                      -0.03389                       0.00601
                       0.99926                      -0.03431                      -0.01762
                       0.99847                      -0.03722                      -0.04094
                       0.99702                      -0.04194                      -0.06476
                       0.99500                      -0.04866                      -0.08726
                       0.99274                      -0.05742                      -0.10572
                       0.99020                      -0.06524                      -0.12352
                       0.98808                      -0.06935                      -0.13743
                       0.98666                      -0.07018                      -0.14691
                       0.98593                      -0.07010                      -0.15178
                       0.98595                      -0.06991                      -0.15171
        </DataArray>
        <DataArray type="Float32" Name="OrientationY" NumberOfComponents="3" format="ascii">
                       0.11397                       0.36317                      -0.92473
                       0.11397                       0.36314                      -0.92474
                       0.11397                       0.36307                      -0.92476
                       0.11397                       0.36298                      -0.92480
                       0.11397                       0.36284                      -0.92485
                       0.08222                       0.36410                      -0.92773
                       0.05927                       0.36480                      -0.92920
                       0.03921                       0.36532                      -0.93006
                       0.01800                       0.36586                      -0.93050
                      -0.00382                       0.36642                      -0.93044
                      -0.02445                       0.36698                      -0.92991
                      -0.04487                       0.36762                      -0.92889
                      -0.06333                       0.36833                      -0.92754
                      -0.07729                       0.36896                      -0.92623
                      -0.09098                       0.36972                      -0.92468
                      -0.10241                       0.37046                      -0.92319
                      -0.11089                       0.37105                      -0.92197
                      -0.11542                       0.37138                      -0.92128
                      -0.11542                       0.37138                      -0.92128
        </DataArray>
        <DataArray type="Float32" Name="OrientationZ" NumberOfComponents="3" format="ascii">
                       0.00251                       0.93068                       0.36582
                       0.00289                       0.93068                       0.36583
                       0.00399                       0.93066                       0.36588
                       0.00548                       0.93062                       0.36595
                       0.00797                       0.93056                       0.36606
                       0.01172                       0.93046                       0.36621
                       0.01634                       0.93036                       0.36629
                       0.02210                       0.93023                       0.36632
                       0.02933                       0.93005                       0.36625
                       0.03838                       0.92982                       0.36602
                       0.04963                       0.92948                       0.36551
                       0.06276                       0.92903                       0.36465
                       0.07727                       0.92842                       0.36340
                       0.09219                       0.92767                       0.36184
                       0.10599                       0.92685                       0.36016
                       0.11493                       0.92626                       0.35894
                       0.11921                       0.92596                       0.35832
                       0.12095                       0.92583                       0.35806
                       0.12075                       0.92585                       0.35809
        </DataArray>
      </PointData>
      <Lines>
        <DataArray type="Int32" Name="connectivity" format="ascii">
      0      1
      1      2
      2      3
      3      4
      4      5
      5      6
      6      7
      7      8
      8      9
      9     10
     10     11
     11     12
     12     13
     13     14
     14     15
     15     16
     16     17
     17     18
        </DataArray>
        <DataArray type="Int32" Name="offsets" format="ascii">
      2
      4
      6
      8
     10
     12
     14
     16
     18
     20
     22
     24
     26
     28
     30
     32
     34
     36
        </DataArray>
      </Lines>
    </Piece>
  </PolyData>
</VTKFile>
