<?xml version="1.0"?>
<VTKFile type="PolyData" version="0.1" byte_order="LittleEndian">
  <PolyData>
    <Piece NumberOfPoints="     19" NumberOfVerts="  0" NumberOfLines="     18"
           NumberOfStrips="  0" NumberOfPolys="      0">
      <Points>
        <DataArray type="Float32" NumberOfComponents="3" format="ascii">
                       2.87381                       1.42307                      89.66683
                       2.76383                       2.72298                      89.25937
                       2.53301                       5.35096                      88.53663
                       2.29847                       7.99233                      87.85681
                       2.00548                      11.30219                      87.03170
                       1.69587                      15.23186                      85.89715
                       1.40331                      19.12199                      84.63383
                       1.11775                      23.01095                      83.36533
                       0.84304                      26.89829                      82.08954
                       0.58043                      30.78465                      80.80831
                       0.32931                      34.67118                      79.52552
                       0.09343                      38.55745                      78.23922
                      -0.12647                      42.44343                      76.94941
                      -0.33070                      46.32909                      75.65619
                      -0.51868                      50.21444                      74.35974
                      -0.66544                      53.45201                      73.27734
                      -0.77936                      56.03940                      72.40305
                      -0.90013                      58.60950                      71.47680
                      -0.95653                      59.90753                      71.05309
        </DataArray>
      </Points>
      <PointData>
        <DataArray type="Float32" Name="Force" NumberOfComponents="3" format="ascii">
                      -0.03121                      -0.08405                      -0.25749
                      64.99810                      -1.87985                     -23.28394
                      76.47492                     -10.21229                     -52.54461
                      65.84870                     -16.27949                     -68.73018
                     710.18405                     109.66367                     163.18725
                     979.76088                     148.80464                     223.07556
                    1093.85322                     140.26328                     175.12344
                    1352.07108                     149.68573                     152.95862
                    1402.84905                     132.26022                      99.62339
                    1531.60478                     123.89469                      61.27490
                    1762.66817                     118.24051                      16.49147
                    1832.61488                      99.03167                     -32.21919
                    1963.34030                      84.79011                     -72.49110
                    1866.16765                      56.64751                    -116.95585
                    1721.82837                      30.49750                    -154.06190
                    1504.80720                      10.04319                    -174.92003
                    1535.96707                       3.48553                    -194.83492
                    1161.34735                      -0.33410                    -155.96148
                    1168.72826                      -0.58320                    -158.67207
        </DataArray>
        <DataArray type="Float32" Name="Moment" NumberOfComponents="3" format="ascii">
                       0.00000                       0.00000                       0.00000
                       0.00000                       0.00000                       0.00000
                       0.00000                       0.00000                       0.00000
                       0.00000                       0.00000                       0.00000
                      15.98163                    -195.64638                      61.92520
                      26.22227                    -328.76527                     104.13622
                      36.21252                    -467.41896                     148.18424
                      48.68722                    -650.83802                     206.54330
                      62.36693                    -869.63149                     276.30311
                      65.80080                    -965.33561                     307.12634
                      64.20122                   -1001.59221                     319.15498
                      62.03564                   -1039.99267                     331.95202
                      46.38510                    -843.47863                     269.70346
                      41.49733                    -822.88598                     263.57410
                      36.19088                    -779.71879                     250.12678
                      32.11718                    -729.98317                     234.38599
                      29.81557                    -693.16942                     222.64833
                      15.60218                    -364.10723                     116.95965
                      16.10893                    -373.69176                     120.02678
        </DataArray>
        <DataArray type="Float32" Name="TranslationalVelocity" NumberOfComponents="3" format="ascii">
                       0.25285                       0.40671                       1.33712
                       0.39834                       0.79367                       2.53237
                       0.69623                       1.48402                       4.94680
                       1.00738                       2.13520                       7.36719
                       1.42096                       2.92685                      10.38900
                       1.95354                       4.00289                      13.95905
                       2.53747                       5.19133                      17.47153
                       3.18824                       6.38064                      20.95986
                       3.91840                       7.57227                      24.42319
                       4.74262                       8.76458                      27.86178
                       5.66449                       9.95449                      31.27872
                       6.70918                      11.14273                      34.67056
                       7.88874                      12.32854                      38.03662
                       9.20810                      13.51103                      41.37686
                      10.66017                      14.68892                      44.69313
                      11.95277                      15.66701                      47.44163
                      13.02615                      16.45423                      49.63067
                      14.10517                      17.28775                      51.80248
                      14.64579                      17.66943                      52.89976
        </DataArray>
        <DataArray type="Float32" Name="RotationalVelocity" NumberOfComponents="3" format="ascii">
                       0.91994                       0.00472                      -0.11200
                       0.91912                       0.00425                      -0.11326
                       0.91715                       0.00298                      -0.11675
                       0.91479                       0.00129                      -0.12149
                       0.91126                      -0.00149                      -0.12931
                       0.90641                      -0.00560                      -0.14102
                       0.90108                      -0.01047                      -0.15501
                       0.89554                      -0.01617                      -0.17154
                       0.88992                      -0.02281                      -0.19105
                       0.88424                      -0.03052                      -0.21393
                       0.87841                      -0.03946                      -0.24064
                       0.87240                      -0.04936                      -0.27035
                       0.86625                      -0.05986                      -0.30190
                       0.86023                      -0.07027                      -0.33323
                       0.85480                      -0.07957                      -0.36117
                       0.85135                      -0.08529                      -0.37834
                       0.84977                      -0.08774                      -0.38566
                       0.84924                      -0.08833                      -0.38741
                       0.84943                      -0.08786                      -0.38598
        </DataArray>
        <DataArray type="Float32" Name="TranslationalAcceleration" NumberOfComponents="3" format="ascii">
                       0.64436                      -1.30719                       0.38817
                       0.72580                      -2.39233                       0.82987
                       0.87309                      -4.59313                       1.62473
                       1.00069                      -6.80904                       2.34084
                       1.12760                      -9.58898                       3.13806
                       1.23986                     -12.89769                       4.08440
                       1.29360                     -16.20159                       4.98415
                       1.28305                     -19.53773                       5.73537
                       1.26035                     -22.90763                       6.34552
                       1.31982                     -26.31248                       6.82171
                       1.56061                     -29.75078                       7.18113
                       2.14820                     -33.22986                       7.41452
                       3.24430                     -36.75772                       7.52105
                       4.98962                     -40.34441                       7.49840
                       7.46736                     -43.99852                       7.34819
                      10.06919                     -47.09244                       7.13566
                      12.47177                     -49.59351                       6.92210
                      15.07275                     -52.09931                       6.72581
                      16.38000                     -53.35107                       6.59122
        </DataArray>
        <DataArray type="Float32" Name="OrientationX" NumberOfComponents="3" format="ascii">
                       0.98993                       0.11134                       0.08741
                       0.98994                       0.11117                       0.08746
                       0.98998                       0.11070                       0.08761
                       0.99004                       0.11005                       0.08782
                       0.99013                       0.10898                       0.08816
                       0.99348                       0.09798                       0.05835
                       0.99533                       0.08918                       0.03708
                       0.99655                       0.08083                       0.01869
                       0.99743                       0.07168                      -0.00066
                       0.99788                       0.06186                      -0.02044
                       0.99789                       0.05188                      -0.03892
                       0.99750                       0.04155                      -0.05709
                       0.99681                       0.03158                      -0.07335
                       0.99608                       0.02307                      -0.08534
                       0.99514                       0.01511                      -0.09727
                       0.99416                       0.00930                      -0.10749
                       0.99331                       0.00572                      -0.11532
                       0.99281                       0.00413                      -0.11962
                       0.99280                       0.00436                      -0.11970
        </DataArray>
        <DataArray type="Float32" Name="OrientationY" NumberOfComponents="3" format="ascii">
                       0.11653                      -0.29043                      -0.94977
                       0.11654                      -0.29056                      -0.94973
                       0.11657                      -0.29086                      -0.94964
                       0.11660                      -0.29123                      -0.94952
                       0.11664                      -0.29179                      -0.94934
                       0.08506                      -0.29586                      -0.95144
                       0.06225                      -0.29882                      -0.95228
                       0.04230                      -0.30135                      -0.95258
                       0.02120                      -0.30376                      -0.95251
                      -0.00053                      -0.30596                      -0.95204
                      -0.02110                      -0.30783                      -0.95121
                      -0.04149                      -0.30942                      -0.95002
                      -0.05996                      -0.31066                      -0.94863
                      -0.07395                      -0.31152                      -0.94736
                      -0.08772                      -0.31217                      -0.94597
                      -0.09922                      -0.31253                      -0.94471
                      -0.10777                      -0.31269                      -0.94372
                      -0.11234                      -0.31275                      -0.94317
                      -0.11234                      -0.31275                      -0.94317
        </DataArray>
        <DataArray type="Float32" Name="OrientationZ" NumberOfComponents="3" format="ascii">
                      -0.08037                       0.95040                      -0.30048
                      -0.08017                       0.95038                      -0.30059
                      -0.07964                       0.95034                      -0.30085
                      -0.07892                       0.95030                      -0.30116
                      -0.07774                       0.95025                      -0.30162
                      -0.07596                       0.95019                      -0.30227
                      -0.07384                       0.95013                      -0.30298
                      -0.07137                       0.95008                      -0.30373
                      -0.06848                       0.95005                      -0.30449
                      -0.06515                       0.95003                      -0.30528
                      -0.06133                       0.95003                      -0.30609
                      -0.05714                       0.95002                      -0.30692
                      -0.05275                       0.95000                      -0.30777
                      -0.04844                       0.94996                      -0.30859
                      -0.04466                       0.94991                      -0.30932
                      -0.04238                       0.94986                      -0.30978
                      -0.04145                       0.94984                      -0.30998
                      -0.04130                       0.94983                      -0.31004
                      -0.04155                       0.94983                      -0.31001
        </DataArray>
      </PointData>
      <Lines>
        <DataArray type="Int32" Name="connectivity" format="ascii">
      0      1
      1      2
      2      3
      3      4
      4      5
      5      6
      6      7
      7      8
      8      9
      9     10
     10     11
     11     12
     12     13
     13     14
     14     15
     15     16
     16     17
     17     18
        </DataArray>
        <DataArray type="Int32" Name="offsets" format="ascii">
      2
      4
      6
      8
     10
     12
     14
     16
     18
     20
     22
     24
     26
     28
     30
     32
     34
     36
        </DataArray>
      </Lines>
    </Piece>
  </PolyData>
</VTKFile>
