<?xml version="1.0"?>
<VTKFile type="PolyData" version="0.1" byte_order="LittleEndian">
  <PolyData>
    <Piece NumberOfPoints="     17" NumberOfVerts="  0" NumberOfLines="      0"
           NumberOfStrips="  0" NumberOfPolys="      0">
      <Points>
        <DataArray type="Float32" NumberOfComponents="3" format="ascii">
                       2.84844                      -0.64467                      93.36925
                       3.09953                      -1.31040                      96.91624
                       3.35800                      -1.97697                     100.46254
                       3.62668                      -2.64479                     104.00784
                       3.90793                      -3.31407                     107.55189
                       4.20433                      -3.98495                     111.09440
                       4.51919                      -4.65766                     114.63496
                       4.85670                      -5.33251                     118.17302
                       5.22199                      -6.00980                     121.70785
                       5.62086                      -6.68969                     125.23852
                       6.05929                      -7.37216                     128.76400
                       6.54270                      -8.05691                     132.28313
                       7.07499                      -8.74345                     135.79485
                       7.65731                      -9.43116                     139.29841
                       8.28665                     -10.11939                     142.79378
                       8.95413                     -10.80759                     146.28213
                       9.64313                     -11.49558                     149.76639
        </DataArray>
      </Points>
      <PointData>
        <DataArray type="Float32" Name="Force" NumberOfComponents="3" format="ascii">
                     180.16607                      78.60586                       2.10193
                     595.59598                     244.29634                       2.49518
                    2229.18493                    -797.09043                    -318.20693
                    4005.13085                   -1608.28538                    -616.89226
                    2484.67122                    -915.45898                    -375.22035
                    5349.21010                   -1711.74280                    -780.99084
                    6441.96051                   -1755.60453                    -921.77115
                    7155.45667                   -1673.82915                   -1026.88572
                    7697.48679                   -1566.10616                   -1131.32926
                    9739.28893                   -1728.11702                   -1490.03049
                   11278.89961                   -1758.17227                   -1826.90307
                   12940.10077                   -1818.00063                   -2247.04603
                    7466.54270                    -969.35380                   -1367.52148
                   15077.90865                   -1790.29831                   -2906.08098
                   14853.93540                   -1567.48051                   -3016.48200
                   21462.86843                   -1924.26599                   -4517.36173
                    8794.15367                    -567.89015                   -1846.06514
        </DataArray>
        <DataArray type="Float32" Name="Moment" NumberOfComponents="3" format="ascii">
                     -18.91110                      20.12280                       9.69958
                     152.93230                     375.72485                     134.18500
                    1066.14920                    2201.86933                     846.29966
                    1460.63802                    3044.72983                    1663.35069
                     120.30505                     144.47768                     652.00384
                    -937.90377                   -2706.94891                     448.95695
                    -608.05826                   -1794.99725                     111.53785
                    -198.42516                     -68.94740                    -293.89729
                      -5.23595                     838.78820                    -356.60691
                     192.46600                    1830.19176                     -53.39674
                     697.85222                    4540.62372                     514.10194
                    1358.63351                    8149.42002                    1592.63562
                     -62.25368                    -519.84336                     114.33095
                   -1523.38713                  -10060.40867                   -1305.36343
                   -1325.85070                   -9573.41467                   -1215.21907
                    -269.80016                   -1418.99056                     265.53693
                    -152.36275                     174.64048                     -29.53565
        </DataArray>
      </PointData>
    </Piece>
  </PolyData>
</VTKFile>
