<?xml version="1.0"?>
<VTKFile type="PolyData" version="0.1" byte_order="LittleEndian">
  <PolyData>
    <Piece NumberOfPoints="     17" NumberOfVerts="  0" NumberOfLines="      0"
           NumberOfStrips="  0" NumberOfPolys="      0">
      <Points>
        <DataArray type="Float32" NumberOfComponents="3" format="ascii">
                       3.27090                       2.70734                      92.00499
                       3.37517                       5.70522                      94.02717
                       3.48672                       8.70435                      96.04710
                       3.60830                      11.70497                      98.06424
                       3.74213                      14.70721                     100.07818
                       3.89047                      17.71114                     102.08859
                       4.05606                      20.71668                     104.09521
                       4.24231                      23.72366                     106.09787
                       4.45325                      26.73180                     108.09631
                       4.69337                      29.74082                     110.09013
                       4.96721                      32.75035                     112.07878
                       5.27878                      35.76006                     114.06161
                       5.63076                      38.76958                     116.03796
                       6.02363                      41.77855                     118.00743
                       6.45444                      44.78676                     119.97019
                       6.91554                      47.79421                     121.92727
                       7.39307                      50.80124                     123.88111
        </DataArray>
      </Points>
      <PointData>
        <DataArray type="Float32" Name="Force" NumberOfComponents="3" format="ascii">
                     167.49331                      36.69543                     -62.79883
                     526.47680                     126.08920                    -215.78239
                    2030.75543                    -322.05871                     355.48974
                    3507.84747                    -621.31927                     692.85170
                    2123.28710                    -339.33622                     353.52077
                    4503.83259                    -618.66318                     569.76010
                    5356.54081                    -630.04969                     469.11601
                    5891.51837                    -604.48302                     313.92694
                    6300.27103                    -593.31621                     168.42926
                    7967.81850                    -712.67005                      27.35303
                    9214.23152                    -817.82135                    -153.76750
                   10631.65407                    -988.76429                    -333.72053
                    6157.75810                    -596.50013                    -258.61033
                   12414.09614                   -1249.30451                    -655.38384
                   12127.60326                   -1265.67934                    -790.44251
                   17296.09820                   -1801.11088                   -1380.58036
                    6984.37922                    -654.50104                    -706.10787
        </DataArray>
        <DataArray type="Float32" Name="Moment" NumberOfComponents="3" format="ascii">
                     -19.75969                      14.04608                     -11.72687
                      79.34822                     244.77280                    -257.92616
                     622.85326                    1421.50960                   -1574.59463
                     733.71651                    2108.21781                   -1982.44911
                      35.74505                     368.54693                     -16.10521
                    -488.29474                    -972.37802                    1979.76467
                    -318.78448                    -968.43661                    1107.28274
                    -170.02792                    -825.36733                    -420.58396
                    -110.70578                    -536.28390                   -1118.78076
                     -83.88788                      -7.11697                   -1788.52013
                      -3.15541                    1345.40522                   -3601.78337
                     106.61049                    3517.46876                   -5895.20810
                     -17.94311                    -214.43987                     304.72050
                    -126.40741                   -4468.23705                    6962.09410
                     -43.60975                   -4119.00633                    6619.62259
                     -94.19810                    -440.91738                    1153.85963
                    -137.38963                       8.09515                    -177.78414
        </DataArray>
      </PointData>
    </Piece>
  </PolyData>
</VTKFile>
