<?xml version="1.0"?>
<VTKFile type="PolyData" version="0.1" byte_order="LittleEndian">
  <PolyData>
    <Piece NumberOfPoints="     19" NumberOfVerts="  0" NumberOfLines="     18"
           NumberOfStrips="  0" NumberOfPolys="      0">
      <Points>
        <DataArray type="Float32" NumberOfComponents="3" format="ascii">
                       2.80464                       3.24812                      89.57163
                       2.57687                       6.80800                      88.96930
                       2.35544                      10.36760                      88.36306
                       2.14268                      13.92691                      87.75200
                       1.94049                      17.48589                      87.13549
                       1.75075                      21.04454                      86.51311
                       1.57574                      24.60287                      85.88467
                       1.41833                      28.16094                      85.25012
                       1.28193                      31.71877                      84.60945
                       1.17036                      35.27634                      83.96260
                       1.08748                      38.83354                      83.30946
                       1.03673                      42.39015                      82.64987
                       1.02045                      45.94587                      81.98376
                       1.03905                      49.50038                      81.31126
                       1.09007                      53.05349                      80.63293
                       1.16700                      56.60524                      79.94989
                       1.25802                      60.15618                      79.26421
                       1.30520                      61.93155                      78.92104
                       2.91977                       1.46813                      89.87195
        </DataArray>
      </Points>
      <PointData>
        <DataArray type="Float32" Name="TranslationalVelocity" NumberOfComponents="3" format="ascii">
                       0.56843                       0.49041                       3.06196
                       0.97693                       1.07583                       6.36741
                       1.39921                       1.66221                       9.65627
                       1.84005                       2.24963                      12.92454
                       2.30300                       2.83805                      16.16969
                       2.79313                       3.42741                      19.39035
                       3.31902                       4.01764                      22.58621
                       3.89375                       4.60857                      25.75759
                       4.53488                       5.19976                      28.90487
                       5.26361                       5.79030                      32.02809
                       6.10307                       6.37857                      35.12680
                       7.07573                       6.96209                      38.20007
                       8.19999                       7.53772                      41.24692
                       9.48584                       8.10216                      44.26710
                      10.92969                       8.65315                      47.26192
                      12.50829                       9.19102                      50.23531
                      14.17192                       9.72045                      53.19536
                      15.01689                       9.98397                      54.67338
                       0.36686                       0.19793                       1.40568
        </DataArray>
        <DataArray type="Float32" Name="RotationalVelocity" NumberOfComponents="3" format="ascii">
                       0.93013                       0.00569                      -0.11420
                       0.92626                       0.00495                      -0.11710
                       0.92107                       0.00385                      -0.12166
                       0.91501                       0.00253                      -0.12714
                       0.90842                       0.00101                      -0.13363
                       0.90162                      -0.00082                      -0.14186
                       0.89485                      -0.00314                      -0.15301
                       0.88821                      -0.00616                      -0.16836
                       0.88164                      -0.01007                      -0.18906
                       0.87501                      -0.01502                      -0.21593
                       0.86815                      -0.02107                      -0.24918
                       0.86092                      -0.02811                      -0.28820
                       0.85341                      -0.03586                      -0.33137
                       0.84593                      -0.04382                      -0.37575
                       0.83904                      -0.05120                      -0.41689
                       0.83370                      -0.05689                      -0.44864
                       0.83139                      -0.05944                      -0.46288
                       0.83123                      -0.05972                      -0.46449
                       0.93167                       0.00594                      -0.11330
        </DataArray>
        <DataArray type="Float32" Name="TranslationalAcceleration" NumberOfComponents="3" format="ascii">
                       0.91193                      -2.77749                       0.79332
                       0.93654                      -5.90398                       1.29146
                       0.87981                      -8.99472                       1.86764
                       0.71118                     -12.04188                       2.54013
                       0.40702                     -15.04038                       3.32057
                      -0.04893                     -17.98785                       4.21618
                      -0.66644                     -20.88505                       5.22989
                      -1.44877                     -23.73560                       6.36116
                      -2.39221                     -26.54541                       7.60699
                      -3.48623                     -29.32291                       8.96199
                      -4.71384                     -32.07950                      10.41818
                      -6.05201                     -34.83000                      11.96490
                      -7.47239                     -37.59262                      13.58869
                      -8.94225                     -40.38732                      15.27371
                     -10.42557                     -43.23123                      17.00247
                     -11.88450                     -46.13122                      18.75691
                     -13.28115                     -49.07574                      20.51922
                     -13.95924                     -50.55627                      21.40014
                       0.88348                      -1.20649                       0.56094
        </DataArray>
        <DataArray type="Float32" Name="RotationalAcceleration" NumberOfComponents="3" format="ascii">
                      -0.02690                       0.08088                      -0.00551
                      -0.00806                       0.08501                       0.01178
                       0.01718                       0.09109                       0.03811
                       0.04647                       0.09868                       0.07187
                       0.07850                       0.10735                       0.11094
                       0.11205                       0.11669                       0.15347
                       0.14593                       0.12636                       0.19783
                       0.17943                       0.13600                       0.24212
                       0.21207                       0.14526                       0.28447
                       0.24336                       0.15379                       0.32307
                       0.27283                       0.16130                       0.35623
                       0.29995                       0.16747                       0.38240
                       0.32401                       0.17205                       0.40029
                       0.34416                       0.17481                       0.40890
                       0.35937                       0.17557                       0.40751
                       0.36830                       0.17418                       0.39583
                       0.36929                       0.17058                       0.37407
                       0.36757                       0.16823                       0.36073
                      -0.03434                       0.07934                      -0.01174
        </DataArray>
        <DataArray type="Float32" Name="OrientationX" NumberOfComponents="3" format="ascii">
                       0.99164                       0.08107                       0.10037
                       0.99172                       0.07983                       0.10058
                       0.99184                       0.07788                       0.10091
                       0.99340                       0.07325                       0.08828
                       0.99617                       0.06515                       0.05834
                       0.99742                       0.05861                       0.04157
                       0.99838                       0.05125                       0.02471
                       0.99906                       0.04277                       0.00700
                       0.99939                       0.03317                      -0.01076
                       0.99937                       0.02258                      -0.02751
                       0.99898                       0.01096                      -0.04376
                       0.99826                      -0.00136                      -0.05889
                       0.99741                      -0.01353                      -0.07064
                       0.99641                      -0.02520                      -0.08085
                       0.99518                      -0.03573                      -0.09127
                       0.99382                      -0.04384                      -0.10202
                       0.99287                      -0.04713                      -0.10946
                       0.99259                      -0.04726                      -0.11191
                       0.99161                       0.08148                       0.10030
        </DataArray>
        <DataArray type="Float32" Name="OrientationY" NumberOfComponents="3" format="ascii">
                       0.11223                      -0.15826                      -0.98100
                       0.11230                      -0.15932                      -0.98082
                       0.11239                      -0.16075                      -0.98057
                       0.09928                      -0.16343                      -0.98155
                       0.06855                      -0.16738                      -0.98351
                       0.05102                      -0.17032                      -0.98407
                       0.03325                      -0.17313                      -0.98434
                       0.01442                      -0.17579                      -0.98432
                      -0.00468                      -0.17820                      -0.98398
                      -0.02299                      -0.18029                      -0.98335
                      -0.04104                      -0.18204                      -0.98243
                      -0.05814                      -0.18344                      -0.98131
                      -0.07192                      -0.18449                      -0.98020
                      -0.08413                      -0.18524                      -0.97909
                      -0.09635                      -0.18563                      -0.97788
                      -0.10844                      -0.18565                      -0.97661
                      -0.11637                      -0.18545                      -0.97574
                      -0.11881                      -0.18533                      -0.97547
                       0.11221                      -0.15784                      -0.98107
        </DataArray>
        <DataArray type="Float32" Name="OrientationZ" NumberOfComponents="3" format="ascii">
                      -0.06365                       0.98406                      -0.16603
                      -0.06227                       0.98399                      -0.16696
                      -0.06015                       0.98392                      -0.16819
                      -0.05747                       0.98383                      -0.16963
                      -0.05431                       0.98374                      -0.17121
                      -0.05059                       0.98364                      -0.17287
                      -0.04617                       0.98356                      -0.17456
                      -0.04087                       0.98350                      -0.17624
                      -0.03456                       0.98343                      -0.17794
                      -0.02717                       0.98335                      -0.17965
                      -0.01873                       0.98323                      -0.18141
                      -0.00947                       0.98303                      -0.18320
                       0.00023                       0.98274                      -0.18499
                       0.00969                       0.98237                      -0.18669
                       0.01800                       0.98197                      -0.18818
                       0.02387                       0.98164                      -0.18926
                       0.02569                       0.98152                      -0.18962
                       0.02536                       0.98154                      -0.18957
                      -0.06411                       0.98410                      -0.16566
        </DataArray>
      </PointData>
      <Lines>
        <DataArray type="Int32" Name="connectivity" format="ascii">
      0      1
      1      2
      2      3
      3      4
      4      5
      5      6
      6      7
      7      8
      8      9
      9     10
     10     11
     11     12
     12     13
     13     14
     14     15
     15     16
     16     17
     18      0
        </DataArray>
        <DataArray type="Int32" Name="offsets" format="ascii">
      2
      4
      6
      8
     10
     12
     14
     16
     18
     20
     22
     24
     26
     28
     30
     32
     34
     36
        </DataArray>
      </Lines>
    </Piece>
  </PolyData>
</VTKFile>
