<?xml version="1.0"?>
<VTKFile type="PolyData" version="0.1" byte_order="LittleEndian">
  <PolyData>
    <Piece NumberOfPoints="     19" NumberOfVerts="  0" NumberOfLines="     18"
           NumberOfStrips="  0" NumberOfPolys="      0">
      <Points>
        <DataArray type="Float32" NumberOfComponents="3" format="ascii">
                       2.82206                      -1.25145                      89.30523
                       2.67158                      -2.38973                      88.56391
                       2.33902                      -4.61328                      87.00601
                       1.99162                      -6.81171                      85.41236
                       1.54872                      -9.54473                      83.39874
                       1.08444                     -12.90476                      81.09306
                       0.65774                     -16.33700                      78.89122
                       0.22997                     -19.77037                      76.69132
                      -0.19615                     -23.20594                      74.49450
                      -0.62147                     -26.64265                      72.29927
                      -1.04766                     -30.07848                      70.10285
                      -1.47357                     -33.51428                      67.90633
                      -1.89976                     -36.95006                      65.70983
                      -2.32695                     -40.38579                      63.51344
                      -2.75356                     -43.82149                      61.31688
                      -3.10882                     -46.68459                      59.48632
                      -3.39240                     -48.97934                      58.02844
                      -3.67178                     -51.30436                      56.61632
                      -3.81633                     -52.44384                      55.87586
        </DataArray>
      </Points>
      <PointData>
        <DataArray type="Float32" Name="Force" NumberOfComponents="3" format="ascii">
                       0.54281                      -2.97933                       4.48980
                      71.57077                     -21.10085                      18.10480
                      99.51673                     -45.19159                      49.65458
                      93.24016                     -55.01338                      66.09659
                     721.71651                     142.06208                    -364.91909
                     924.59424                     146.77444                    -412.81085
                    1079.72943                     134.64044                    -424.88041
                    1397.30887                     139.82161                    -496.03664
                    1520.40778                     115.97660                    -483.06408
                    1758.13937                     105.93618                    -513.99355
                    2168.48285                      97.34455                    -581.00227
                    2467.42628                      82.18310                    -615.12684
                    2905.16859                      80.49161                    -696.91017
                    3135.57566                      62.12994                    -711.70640
                    3316.29213                      40.58389                    -711.90458
                    3402.76790                      18.49140                    -693.56153
                    3316.94717                      -0.92430                    -646.44226
                    2371.48654                     -13.21932                    -442.84924
                    1398.89550                     -57.75452                    -184.25597
        </DataArray>
        <DataArray type="Float32" Name="Moment" NumberOfComponents="3" format="ascii">
                       0.00000                       0.00000                       0.00000
                       0.00000                       0.00000                       0.00000
                       0.00000                       0.00000                       0.00000
                       0.00000                       0.00000                       0.00000
                      24.60258                     188.24540                     121.94106
                      50.75068                     388.93962                     251.95602
                      65.30944                     501.49969                     324.88826
                      90.79946                     698.85933                     452.77004
                     122.81645                     947.84173                     614.11843
                     135.90067                    1052.04923                     681.68635
                     142.70522                    1108.54467                     718.35281
                     148.65979                    1159.08257                     751.16875
                     125.63674                     983.29406                     637.30284
                     122.76461                     964.30086                     625.04661
                     117.05282                     922.27244                     597.84803
                     110.27268                     870.37212                     564.22784
                      98.24756                     775.92210                     503.00671
                      50.16412                     396.14308                     256.80699
                      49.71552                     392.47435                     254.42674
        </DataArray>
        <DataArray type="Float32" Name="TranslationalVelocity" NumberOfComponents="3" format="ascii">
                      -0.12637                       0.77289                      -1.18073
                      -0.25279                       1.48323                      -2.24577
                      -0.49819                       2.97857                      -4.32753
                      -0.73626                       4.51135                      -6.38972
                      -1.02281                       6.45288                      -8.96079
                      -1.35921                       8.67830                     -12.13393
                      -1.68043                      10.80954                     -15.39125
                      -1.97286                      12.94668                     -18.66732
                      -2.23132                      15.08817                     -21.96390
                      -2.45021                      17.23497                     -25.28033
                      -2.62898                      19.38858                     -28.61274
                      -2.75899                      21.54771                     -31.96335
                      -2.83741                      23.71130                     -35.33117
                      -2.86440                      25.87820                     -38.71454
                      -2.84471                      28.04764                     -42.11092
                      -2.80087                      29.85674                     -44.94857
                      -2.75440                      31.29800                     -47.22602
                      -2.71189                      32.69434                     -49.53340
                      -2.68849                      33.42651                     -50.66468
        </DataArray>
        <DataArray type="Float32" Name="RotationalVelocity" NumberOfComponents="3" format="ascii">
                       0.93475                      -0.00232                      -0.11316
                       0.93531                      -0.00264                      -0.11278
                       0.93676                      -0.00353                      -0.11169
                       0.93861                      -0.00476                      -0.11018
                       0.94152                      -0.00681                      -0.10759
                       0.94561                      -0.00997                      -0.10354
                       0.95004                      -0.01383                      -0.09847
                       0.95465                      -0.01838                      -0.09238
                       0.95932                      -0.02362                      -0.08524
                       0.96396                      -0.02955                      -0.07702
                       0.96843                      -0.03617                      -0.06772
                       0.97262                      -0.04321                      -0.05769
                       0.97641                      -0.05038                      -0.04739
                       0.97966                      -0.05718                      -0.03754
                       0.98222                      -0.06294                      -0.02917
                       0.98362                      -0.06620                      -0.02442
                       0.98418                      -0.06730                      -0.02283
                       0.98428                      -0.06714                      -0.02310
                       0.98417                      -0.06654                      -0.02400
        </DataArray>
        <DataArray type="Float32" Name="TranslationalAcceleration" NumberOfComponents="3" format="ascii">
                       0.42252                       0.85791                       0.88378
                       0.53530                       1.80337                       1.64150
                       0.78656                       3.65737                       3.20000
                       1.10754                       5.54188                       4.71731
                       1.65244                       7.98739                       6.49805
                       2.55663                      11.16408                       8.30034
                       3.82145                      14.59100                       9.70098
                       5.53871                      18.20679                      10.77442
                       7.78505                      22.00856                      11.51047
                      10.63254                      25.98528                      11.91151
                      14.07205                      30.10546                      12.02130
                      18.21389                      34.37082                      11.82168
                      23.07676                      38.76112                      11.33689
                      28.63518                      43.25414                      10.60006
                      34.80098                      47.82922                       9.65756
                      40.27812                      51.68596                       8.75917
                      44.79210                      54.79004                       7.98336
                      49.26937                      57.89674                       7.13683
                      51.49475                      59.45117                       6.76337
        </DataArray>
        <DataArray type="Float32" Name="OrientationX" NumberOfComponents="3" format="ascii">
                       0.93932                       0.09117                      -0.33071
                       0.93932                       0.09119                      -0.33070
                       0.93933                       0.09124                      -0.33067
                       0.93933                       0.09130                      -0.33063
                       0.93935                       0.09141                      -0.33056
                       0.94926                       0.07418                      -0.30561
                       0.95582                       0.06178                      -0.28738
                       0.96115                       0.05098                      -0.27129
                       0.96635                       0.03956                      -0.25417
                       0.97125                       0.02783                      -0.23642
                       0.97547                       0.01676                      -0.21951
                       0.97924                       0.00580                      -0.20263
                       0.98231                      -0.00410                      -0.18723
                       0.98442                      -0.01154                      -0.17547
                       0.98630                      -0.01890                      -0.16390
                       0.98771                      -0.02513                      -0.15425
                       0.98867                      -0.02982                      -0.14710
                       0.98915                      -0.03236                      -0.14329
                       0.98915                      -0.03239                      -0.14331
        </DataArray>
        <DataArray type="Float32" Name="OrientationY" NumberOfComponents="3" format="ascii">
                       0.32518                      -0.54375                       0.77369
                       0.32518                      -0.54376                       0.77369
                       0.32517                      -0.54378                       0.77367
                       0.32517                      -0.54380                       0.77366
                       0.32517                      -0.54384                       0.77363
                       0.29503                      -0.54653                       0.78375
                       0.27311                      -0.54815                       0.79053
                       0.25385                      -0.54934                       0.79611
                       0.23338                      -0.55036                       0.80165
                       0.21222                      -0.55114                       0.80697
                       0.19212                      -0.55165                       0.81165
                       0.17211                      -0.55192                       0.81594
                       0.15390                      -0.55198                       0.81953
                       0.14007                      -0.55190                       0.82206
                       0.12642                      -0.55172                       0.82439
                       0.11500                      -0.55148                       0.82622
                       0.10650                      -0.55125                       0.82751
                       0.10194                      -0.55111                       0.82818
                       0.10194                      -0.55111                       0.82818
        </DataArray>
        <DataArray type="Float32" Name="OrientationZ" NumberOfComponents="3" format="ascii">
                      -0.10928                      -0.83428                      -0.54040
                      -0.10927                      -0.83427                      -0.54041
                      -0.10922                      -0.83426                      -0.54045
                      -0.10916                      -0.83423                      -0.54050
                      -0.10905                      -0.83420                      -0.54058
                      -0.10889                      -0.83415                      -0.54069
                      -0.10869                      -0.83409                      -0.54081
                      -0.10845                      -0.83404                      -0.54094
                      -0.10817                      -0.83399                      -0.54107
                      -0.10785                      -0.83395                      -0.54120
                      -0.10749                      -0.83391                      -0.54134
                      -0.10710                      -0.83387                      -0.54146
                      -0.10671                      -0.83385                      -0.54158
                      -0.10633                      -0.83383                      -0.54169
                      -0.10601                      -0.83382                      -0.54177
                      -0.10582                      -0.83381                      -0.54181
                      -0.10576                      -0.83381                      -0.54183
                      -0.10577                      -0.83380                      -0.54183
                      -0.10581                      -0.83380                      -0.54183
        </DataArray>
      </PointData>
      <Lines>
        <DataArray type="Int32" Name="connectivity" format="ascii">
      0      1
      1      2
      2      3
      3      4
      4      5
      5      6
      6      7
      7      8
      8      9
      9     10
     10     11
     11     12
     12     13
     13     14
     14     15
     15     16
     16     17
     17     18
        </DataArray>
        <DataArray type="Int32" Name="offsets" format="ascii">
      2
      4
      6
      8
     10
     12
     14
     16
     18
     20
     22
     24
     26
     28
     30
     32
     34
     36
        </DataArray>
      </Lines>
    </Piece>
  </PolyData>
</VTKFile>
