<?xml version="1.0"?>
<VTKFile type="PolyData" version="0.1" byte_order="LittleEndian">
  <PolyData>
    <Piece NumberOfPoints="     19" NumberOfVerts="  0" NumberOfLines="     18"
           NumberOfStrips="  0" NumberOfPolys="      0">
      <Points>
        <DataArray type="Float32" NumberOfComponents="3" format="ascii">
                       2.70245                       3.07915                      88.94267
                       2.38963                       6.44700                      87.65927
                       2.07874                       9.81469                      86.37498
                       1.77052                      13.18220                      85.08959
                       1.46555                      16.54953                      83.80295
                       1.16438                      19.91668                      82.51495
                       0.86760                      23.28368                      81.22551
                       0.57588                      26.65055                      79.93461
                       0.28995                      30.01735                      78.64222
                       0.01060                      33.38411                      77.34829
                      -0.26145                      36.75086                      76.05278
                      -0.52560                      40.11761                      74.75565
                      -0.78154                      43.48436                      73.45688
                      -1.02943                      46.85111                      72.15652
                      -1.27006                      50.21782                      70.85472
                      -1.50516                      53.58450                      69.55179
                      -1.73760                      56.95112                      68.24828
                      -1.85360                      58.63443                      67.59646
                       2.85924                       1.39519                      89.58417
        </DataArray>
      </Points>
      <PointData>
        <DataArray type="Float32" Name="TranslationalVelocity" NumberOfComponents="3" format="ascii">
                       0.40150                       1.09273                       2.85420
                       0.78583                       2.30780                       5.94907
                       1.19272                       3.52259                       9.03605
                       1.63082                       4.73730                      12.11335
                       2.10718                       5.95203                      15.17962
                       2.62812                       7.16686                      18.23371
                       3.19997                       8.38190                      21.27488
                       3.82936                       9.59732                      24.30273
                       4.52312                      10.81324                      27.31688
                       5.28796                      12.02965                      30.31692
                       6.12982                      13.24642                      33.30239
                       7.05287                      14.46326                      36.27290
                       8.05828                      15.67975                      39.22838
                       9.14264                      16.89548                      42.16939
                      10.29608                      18.11010                      45.09751
                      11.50013                      19.32355                      48.01574
                      12.72522                      20.53618                      50.92918
                      13.33856                      21.14237                      52.38549
                       0.21377                       0.48510                       1.30506
        </DataArray>
        <DataArray type="Float32" Name="RotationalVelocity" NumberOfComponents="3" format="ascii">
                       0.91967                       0.00290                      -0.11259
                       0.91786                       0.00100                      -0.11713
                       0.91551                      -0.00190                      -0.12417
                       0.91281                      -0.00558                      -0.13317
                       0.90978                      -0.00993                      -0.14383
                       0.90649                      -0.01490                      -0.15609
                       0.90309                      -0.02052                      -0.17002
                       0.89962                      -0.02682                      -0.18570
                       0.89604                      -0.03380                      -0.20315
                       0.89234                      -0.04143                      -0.22228
                       0.88851                      -0.04959                      -0.24278
                       0.88455                      -0.05806                      -0.26404
                       0.88060                      -0.06646                      -0.28512
                       0.87686                      -0.07423                      -0.30462
                       0.87367                      -0.08062                      -0.32061
                       0.87149                      -0.08462                      -0.33059
                       0.87102                      -0.08497                      -0.33139
                       0.87131                      -0.08406                      -0.32906
                       0.92041                       0.00356                      -0.11102
        </DataArray>
        <DataArray type="Float32" Name="TranslationalAcceleration" NumberOfComponents="3" format="ascii">
                       0.64014                      -2.79090                       1.04015
                       0.76519                      -5.80410                       1.83125
                       0.96409                      -8.81288                       2.59158
                       1.26507                     -11.81671                       3.31470
                       1.69103                     -14.81573                       3.99596
                       2.26309                     -17.81058                       4.63182
                       3.00342                     -20.80258                       5.22067
                       3.93643                     -23.79382                       5.76233
                       5.08854                     -26.78713                       6.25687
                       6.48683                     -29.78623                       6.70423
                       8.15652                     -32.79571                       7.10410
                      10.11723                     -35.82073                       7.45609
                      12.37801                     -38.86634                       7.76043
                      14.93122                     -41.93631                       8.01910
                      17.74518                     -45.03133                       8.23679
                      20.75554                     -48.14685                       8.42217
                      23.85576                     -51.27140                       8.59015
                      25.41206                     -52.83402                       8.67212
                       0.59209                      -1.28331                       0.63789
        </DataArray>
        <DataArray type="Float32" Name="RotationalAcceleration" NumberOfComponents="3" format="ascii">
                      -0.09809                       0.05779                      -0.00723
                      -0.10508                       0.05148                      -0.02209
                      -0.11420                       0.04186                      -0.04512
                      -0.12473                       0.02969                      -0.07448
                      -0.13649                       0.01536                      -0.10925
                      -0.14909                      -0.00112                      -0.14941
                      -0.16200                      -0.01988                      -0.19552
                      -0.17511                      -0.04115                      -0.24817
                      -0.18846                      -0.06509                      -0.30776
                      -0.20217                      -0.09168                      -0.37420
                      -0.21633                      -0.12057                      -0.44659
                      -0.23092                      -0.15100                      -0.52292
                      -0.24553                      -0.18163                      -0.59978
                      -0.25940                      -0.21046                      -0.67206
                      -0.27137                      -0.23464                      -0.73264
                      -0.27971                      -0.25044                      -0.77207
                      -0.28185                      -0.25305                      -0.77840
                      -0.28100                      -0.25039                      -0.77162
                      -0.09526                       0.05999                      -0.00214
        </DataArray>
        <DataArray type="Float32" Name="OrientationX" NumberOfComponents="3" format="ascii">
                       0.98910                       0.12295                       0.08100
                       0.98914                       0.12259                       0.08114
                       0.98919                       0.12202                       0.08136
                       0.99075                       0.11669                       0.06924
                       0.99364                       0.10502                       0.04066
                       0.99491                       0.09778                       0.02455
                       0.99588                       0.09026                       0.00828
                       0.99658                       0.08215                      -0.00886
                       0.99694                       0.07371                      -0.02615
                       0.99696                       0.06532                      -0.04258
                       0.99666                       0.05681                      -0.05867
                       0.99609                       0.04850                      -0.07379
                       0.99546                       0.04135                      -0.08577
                       0.99474                       0.03486                      -0.09633
                       0.99385                       0.02866                      -0.10700
                       0.99277                       0.02308                      -0.11778
                       0.99195                       0.01994                      -0.12507
                       0.99167                       0.01920                      -0.12740
                       0.98909                       0.12308                       0.08096
        </DataArray>
        <DataArray type="Float32" Name="OrientationY" NumberOfComponents="3" format="ascii">
                       0.11902                      -0.34377                      -0.93148
                       0.11904                      -0.34401                      -0.93139
                       0.11907                      -0.34434                      -0.93126
                       0.10593                      -0.34632                      -0.93212
                       0.07522                      -0.35017                      -0.93366
                       0.05768                      -0.35238                      -0.93408
                       0.03990                      -0.35449                      -0.93421
                       0.02108                      -0.35653                      -0.93405
                       0.00201                      -0.35841                      -0.93356
                      -0.01625                      -0.36004                      -0.93279
                      -0.03424                      -0.36148                      -0.93175
                      -0.05127                      -0.36269                      -0.93050
                      -0.06497                      -0.36357                      -0.92930
                      -0.07711                      -0.36427                      -0.92810
                      -0.08925                      -0.36483                      -0.92679
                      -0.10129                      -0.36526                      -0.92538
                      -0.10920                      -0.36547                      -0.92439
                      -0.11164                      -0.36552                      -0.92408
                       0.11901                      -0.34367                      -0.93152
        </DataArray>
        <DataArray type="Float32" Name="OrientationZ" NumberOfComponents="3" format="ascii">
                      -0.08668                       0.93097                      -0.35465
                      -0.08626                       0.93093                      -0.35487
                      -0.08561                       0.93088                      -0.35515
                      -0.08479                       0.93083                      -0.35547
                      -0.08381                       0.93078                      -0.35584
                      -0.08269                       0.93073                      -0.35623
                      -0.08139                       0.93069                      -0.35663
                      -0.07989                       0.93067                      -0.35704
                      -0.07818                       0.93065                      -0.35746
                      -0.07626                       0.93065                      -0.35789
                      -0.07414                       0.93065                      -0.35833
                      -0.07189                       0.93065                      -0.35878
                      -0.06961                       0.93065                      -0.35924
                      -0.06744                       0.93064                      -0.35966
                      -0.06560                       0.93063                      -0.36003
                      -0.06438                       0.93062                      -0.36029
                      -0.06414                       0.93061                      -0.36035
                      -0.06431                       0.93061                      -0.36033
                      -0.08682                       0.93099                      -0.35457
        </DataArray>
      </PointData>
      <Lines>
        <DataArray type="Int32" Name="connectivity" format="ascii">
      0      1
      1      2
      2      3
      3      4
      4      5
      5      6
      6      7
      7      8
      8      9
      9     10
     10     11
     11     12
     12     13
     13     14
     14     15
     15     16
     16     17
     18      0
        </DataArray>
        <DataArray type="Int32" Name="offsets" format="ascii">
      2
      4
      6
      8
     10
     12
     14
     16
     18
     20
     22
     24
     26
     28
     30
     32
     34
     36
        </DataArray>
      </Lines>
    </Piece>
  </PolyData>
</VTKFile>
