<?xml version="1.0"?>
<VTKFile type="PolyData" version="0.1" byte_order="LittleEndian">
  <PolyData>
    <Piece NumberOfPoints="     19" NumberOfVerts="  0" NumberOfLines="     18"
           NumberOfStrips="  0" NumberOfPolys="      0">
      <Points>
        <DataArray type="Float32" NumberOfComponents="3" format="ascii">
                       2.42098                      -3.07880                      88.88925
                       2.10888                      -6.41713                      87.53077
                       1.80452                      -9.75440                      86.16793
                       1.51101                     -13.09027                      84.79930
                       1.23108                     -16.42453                      83.42393
                       0.96764                     -19.75708                      82.04118
                       0.72421                     -23.08781                      80.65041
                       0.50501                     -26.41657                      79.25096
                       0.31504                     -29.74321                      77.84224
                       0.15979                     -33.06750                      76.42378
                       0.04482                     -36.38914                      74.99535
                      -0.02496                     -39.70779                      73.55710
                      -0.04623                     -43.02308                      72.10958
                      -0.01840                     -46.33472                      70.65378
                       0.05498                     -49.64271                      69.19118
                       0.16463                     -52.94763                      67.72375
                       0.29363                     -56.25085                      66.25393
                       0.36031                     -57.90225                      65.51876
                       2.57854                      -1.40941                      89.56761
        </DataArray>
      </Points>
      <PointData>
        <DataArray type="Float32" Name="TranslationalVelocity" NumberOfComponents="3" format="ascii">
                      -0.77579                       1.13901                      -2.87271
                      -1.12220                       2.43262                      -5.97205
                      -1.47022                       3.72867                      -9.06807
                      -1.82058                       5.02794                     -12.15975
                      -2.17400                       6.33086                     -15.24646
                      -2.53119                       7.63762                     -18.32783
                      -2.89287                       8.94836                     -21.40362
                      -3.25977                      10.26316                     -24.47362
                      -3.63259                      11.58197                     -27.53770
                      -4.01198                      12.90453                     -30.59574
                      -4.39850                      14.23031                     -33.64763
                      -4.79248                      15.55853                     -36.69331
                      -5.19394                      16.88820                     -39.73279
                      -5.60244                      18.21828                     -42.76623
                      -6.01694                      19.54791                     -45.79417
                      -6.43560                      20.87664                     -48.81781
                      -6.85562                      22.20475                     -51.83921
                      -7.06555                      22.86874                     -53.34966
                      -0.60289                       0.49269                      -1.32235
        </DataArray>
        <DataArray type="Float32" Name="RotationalVelocity" NumberOfComponents="3" format="ascii">
                       0.92749                      -0.01284                      -0.10879
                       0.92695                      -0.01265                      -0.10912
                       0.92619                      -0.01236                      -0.10966
                       0.92527                      -0.01198                      -0.11039
                       0.92427                      -0.01152                      -0.11130
                       0.92322                      -0.01097                      -0.11240
                       0.92214                      -0.01035                      -0.11368
                       0.92107                      -0.00965                      -0.11516
                       0.92003                      -0.00887                      -0.11681
                       0.91902                      -0.00804                      -0.11863
                       0.91807                      -0.00716                      -0.12058
                       0.91719                      -0.00626                      -0.12259
                       0.91642                      -0.00539                      -0.12455
                       0.91577                      -0.00460                      -0.12634
                       0.91527                      -0.00397                      -0.12777
                       0.91497                      -0.00361                      -0.12860
                       0.91491                      -0.00363                      -0.12854
                       0.91494                      -0.00375                      -0.12824
                       0.92769                      -0.01290                      -0.10868
        </DataArray>
        <DataArray type="Float32" Name="TranslationalAcceleration" NumberOfComponents="3" format="ascii">
                       1.20781                       2.67835                       1.04355
                       1.37817                       5.64433                       2.10704
                       1.53507                       8.60652                       3.17305
                       1.67293                      11.56362                       4.24299
                       1.78706                      14.51480                       5.31776
                       1.87668                      17.45978                       6.39680
                       1.94700                      20.39861                       7.47800
                       2.01034                      23.33166                       8.55768
                       2.08639                      26.25979                       9.63085
                       2.20129                      29.18446                      10.69185
                       2.38588                      32.10792                      11.73511
                       2.67276                      35.03336                      12.75608
                       3.09231                      37.96484                      13.75190
                       3.66770                      40.90684                      14.72190
                       4.40866                      43.86303                      15.66794
                       5.30434                      46.83441                      16.59455
                       6.31500                      49.81716                      17.50872
                       6.84202                      51.31053                      17.96372
                       1.11992                       1.19459                       0.51227
        </DataArray>
        <DataArray type="Float32" Name="RotationalAcceleration" NumberOfComponents="3" format="ascii">
                       0.04167                       0.02294                       0.00792
                       0.04155                       0.02408                       0.00514
                       0.04125                       0.02578                       0.00102
                       0.04063                       0.02813                      -0.00462
                       0.03996                       0.03083                      -0.01112
                       0.03964                       0.03332                      -0.01716
                       0.04007                       0.03484                      -0.02100
                       0.04164                       0.03459                      -0.02075
                       0.04463                       0.03180                      -0.01458
                       0.04912                       0.02586                      -0.00101
                       0.05498                       0.01644                       0.02083
                       0.06189                       0.00356                       0.05095
                       0.06942                      -0.01227                       0.08818
                       0.07701                      -0.02995                       0.12995
                       0.08391                      -0.04769                       0.17203
                       0.08926                      -0.06289                       0.20824
                       0.09216                      -0.07208                       0.23018
                       0.09290                      -0.07467                       0.23639
                       0.04174                       0.02247                       0.00907
        </DataArray>
        <DataArray type="Float32" Name="OrientationX" NumberOfComponents="3" format="ascii">
                       0.93922                       0.04941                      -0.33973
                       0.93939                       0.05116                      -0.33902
                       0.93964                       0.05391                      -0.33790
                       0.94428                       0.05229                      -0.32497
                       0.95407                       0.04456                      -0.29624
                       0.95944                       0.04271                      -0.27865
                       0.96461                       0.04172                      -0.26037
                       0.96974                       0.04148                      -0.24059
                       0.97459                       0.04244                      -0.21994
                       0.97889                       0.04510                      -0.19933
                       0.98274                       0.04917                      -0.17832
                       0.98598                       0.05462                      -0.15766
                       0.98826                       0.06186                      -0.13973
                       0.98994                       0.06933                      -0.12334
                       0.99135                       0.07519                      -0.10759
                       0.99259                       0.07786                      -0.09330
                       0.99340                       0.07686                      -0.08510
                       0.99369                       0.07534                      -0.08309
                       0.93917                       0.04883                      -0.33997
        </DataArray>
        <DataArray type="Float32" Name="OrientationY" NumberOfComponents="3" format="ascii">
                       0.33208                      -0.38183                       0.86251
                       0.33204                      -0.38217                       0.86237
                       0.33200                      -0.38264                       0.86218
                       0.31941                      -0.38389                       0.86637
                       0.28995                      -0.38597                       0.87576
                       0.27299                      -0.38733                       0.88059
                       0.25574                      -0.38868                       0.88517
                       0.23741                      -0.39003                       0.88967
                       0.21876                      -0.39137                       0.89385
                       0.20085                      -0.39267                       0.89748
                       0.18315                      -0.39398                       0.90069
                       0.16635                      -0.39528                       0.90337
                       0.15281                      -0.39645                       0.90525
                       0.14082                      -0.39756                       0.90671
                       0.12878                      -0.39868                       0.90800
                       0.11682                      -0.39978                       0.90914
                       0.10892                      -0.40046                       0.90982
                       0.10648                      -0.40064                       0.91003
                       0.33209                      -0.38170                       0.86257
        </DataArray>
        <DataArray type="Float32" Name="OrientationZ" NumberOfComponents="3" format="ascii">
                      -0.08710                      -0.92291                      -0.37503
                      -0.08544                      -0.92267                      -0.37600
                      -0.08282                      -0.92232                      -0.37744
                      -0.07944                      -0.92190                      -0.37920
                      -0.07532                      -0.92143                      -0.38116
                      -0.07032                      -0.92095                      -0.38328
                      -0.06427                      -0.92043                      -0.38559
                      -0.05694                      -0.91987                      -0.38807
                      -0.04814                      -0.91925                      -0.39071
                      -0.03779                      -0.91857                      -0.39344
                      -0.02597                      -0.91780                      -0.39619
                      -0.01298                      -0.91693                      -0.39883
                       0.00060                      -0.91597                      -0.40125
                       0.01383                      -0.91495                      -0.40332
                       0.02538                      -0.91400                      -0.40492
                       0.03348                      -0.91330                      -0.40591
                       0.03585                      -0.91309                      -0.40619
                       0.03527                      -0.91313                      -0.40614
                      -0.08765                      -0.92300                      -0.37469
        </DataArray>
      </PointData>
      <Lines>
        <DataArray type="Int32" Name="connectivity" format="ascii">
      0      1
      1      2
      2      3
      3      4
      4      5
      5      6
      6      7
      7      8
      8      9
      9     10
     10     11
     11     12
     12     13
     13     14
     14     15
     15     16
     16     17
     18      0
        </DataArray>
        <DataArray type="Int32" Name="offsets" format="ascii">
      2
      4
      6
      8
     10
     12
     14
     16
     18
     20
     22
     24
     26
     28
     30
     32
     34
     36
        </DataArray>
      </Lines>
    </Piece>
  </PolyData>
</VTKFile>
