<?xml version="1.0"?>
<VTKFile type="PolyData" version="0.1" byte_order="LittleEndian">
  <PolyData>
    <Piece NumberOfPoints="     19" NumberOfVerts="  0" NumberOfLines="     18"
           NumberOfStrips="  0" NumberOfPolys="      0">
      <Points>
        <DataArray type="Float32" NumberOfComponents="3" format="ascii">
                       3.14068                      -1.45533                      90.64083
                       3.13629                      -2.74951                      91.08011
                       3.09499                      -5.36745                      91.87156
                       3.04148                      -8.00000                      92.61988
                       2.97278                     -11.30035                      93.52649
                       2.97362                     -15.21913                      94.73554
                       3.03297                     -19.10024                      96.05486
                       3.11411                     -22.98352                      97.36668
                       3.22537                     -26.86850                      98.67141
                       3.37257                     -30.75562                      99.96629
                       3.55664                     -34.64541                     101.24849
                       3.79003                     -38.53699                     102.51734
                       4.07856                     -42.42931                     103.77265
                       4.42494                     -46.32119                     105.01483
                       4.82894                     -50.21146                     106.24483
                       5.20215                     -53.45178                     107.26250
                       5.51943                     -56.04058                     108.08068
                       5.84660                     -58.61256                     108.95019
                       6.00450                     -59.91119                     109.34560
        </DataArray>
      </Points>
      <PointData>
        <DataArray type="Float32" Name="Force" NumberOfComponents="3" format="ascii">
                       0.74105                       1.99208                       5.82338
                      85.17427                       8.19542                      24.53881
                     109.61504                      20.18024                      59.32517
                      99.83796                      26.61986                      77.63880
                     710.94960                    -122.80717                    -367.14031
                     918.39310                    -134.75458                    -417.33993
                    1063.94476                    -127.86709                    -419.14543
                    1375.09649                    -136.24884                    -485.62798
                    1499.64588                    -115.76621                    -471.67196
                    1740.23857                    -101.76134                    -505.52011
                    2154.78279                     -82.20988                    -577.28490
                    2460.47180                     -45.42942                    -620.71149
                    2911.42659                      -4.05590                    -721.84772
                    3161.22631                      55.08281                    -754.59262
                    3357.74396                     117.19560                    -768.92451
                    3430.76520                     162.57483                    -748.98163
                    3327.20339                     182.11467                    -692.57167
                    2433.75667                     141.61280                    -490.27293
                    1341.37373                     103.91153                    -188.84210
        </DataArray>
        <DataArray type="Float32" Name="Moment" NumberOfComponents="3" format="ascii">
                       0.00000                       0.00000                       0.00000
                       0.00000                       0.00000                       0.00000
                       0.00000                       0.00000                       0.00000
                       0.00000                       0.00000                       0.00000
                      -0.82629                     224.79434                     -76.79300
                      -3.82380                     463.77481                    -158.16252
                      -8.31048                     598.45861                    -203.66450
                     -17.16123                     825.37806                    -280.16331
                     -32.54891                    1113.66001                    -376.82129
                     -48.73280                    1235.68953                    -416.50594
                     -67.99306                    1314.36171                    -440.96733
                     -90.87632                    1382.68411                    -461.42721
                     -96.37877                    1191.77554                    -395.42057
                    -113.91187                    1184.61440                    -390.73970
                    -126.03935                    1145.46352                    -375.80359
                    -129.04570                    1086.52802                    -355.26023
                    -118.40832                     965.09356                    -315.07332
                     -60.30123                     486.60784                    -158.78627
                     -53.42940                     432.92565                    -141.29702
        </DataArray>
        <DataArray type="Float32" Name="TranslationalVelocity" NumberOfComponents="3" format="ascii">
                      -0.51359                      -0.44229                      -1.31014
                      -0.66785                      -0.84358                      -2.49394
                      -0.97914                      -1.56307                      -4.89049
                      -1.29178                      -2.24287                      -7.30583
                      -1.68303                      -3.06803                     -10.34359
                      -2.14745                      -4.18328                     -13.96553
                      -2.60546                      -5.41330                     -17.57113
                      -3.05810                      -6.64557                     -21.19844
                      -3.50180                      -7.88140                     -24.84744
                      -3.93204                      -9.11852                     -28.51864
                      -4.34589                     -10.35320                     -32.21038
                      -4.73628                     -11.58575                     -35.92353
                      -5.09817                     -12.81521                     -39.65641
                      -5.42814                     -14.04062                     -43.40666
                      -5.72580                     -15.26112                     -47.17113
                      -5.95251                     -16.27474                     -50.31614
                      -6.12262                     -17.09112                     -52.83334
                      -6.28766                     -17.95814                     -55.33566
                      -6.37115                     -18.35309                     -56.59912
        </DataArray>
        <DataArray type="Float32" Name="RotationalVelocity" NumberOfComponents="3" format="ascii">
                       0.91399                      -0.00852                      -0.11626
                       0.91468                      -0.00854                      -0.11630
                       0.91642                      -0.00855                      -0.11632
                       0.91859                      -0.00853                      -0.11627
                       0.92191                      -0.00848                      -0.11608
                       0.92649                      -0.00833                      -0.11559
                       0.93143                      -0.00801                      -0.11464
                       0.93653                      -0.00748                      -0.11302
                       0.94169                      -0.00664                      -0.11054
                       0.94683                      -0.00543                      -0.10697
                       0.95184                      -0.00378                      -0.10210
                       0.95663                      -0.00173                      -0.09607
                       0.96109                       0.00063                      -0.08914
                       0.96505                       0.00313                      -0.08181
                       0.96831                       0.00549                      -0.07489
                       0.97024                       0.00705                      -0.07032
                       0.97113                       0.00781                      -0.06810
                       0.97150                       0.00812                      -0.06718
                       0.97148                       0.00809                      -0.06726
        </DataArray>
        <DataArray type="Float32" Name="TranslationalAcceleration" NumberOfComponents="3" format="ascii">
                      -1.38315                       1.47473                      -0.64999
                      -1.43268                       2.55226                      -1.08686
                      -1.51575                       4.74071                      -1.88471
                      -1.58510                       6.95565                      -2.63816
                      -1.65459                       9.75489                      -3.54110
                      -1.73562                      13.10892                      -4.70897
                      -1.80741                      16.47300                      -5.95008
                      -1.85456                      19.88854                      -7.16171
                      -1.88754                      23.35648                      -8.34255
                      -1.92392                      26.87729                      -9.48737
                      -1.98292                      30.44531                     -10.59315
                      -2.09343                      34.06210                     -11.65226
                      -2.28473                      37.72173                     -12.66035
                      -2.58228                      41.41585                     -13.61471
                      -3.00144                      45.13411                     -14.51573
                      -3.44050                      48.24336                     -15.23124
                      -3.84603                      50.73206                     -15.79250
                      -4.28717                      53.20864                     -16.39650
                      -4.50722                      54.45652                     -16.65975
        </DataArray>
        <DataArray type="Float32" Name="OrientationX" NumberOfComponents="3" format="ascii">
                       0.93865                      -0.11415                      -0.32544
                       0.93865                      -0.11370                      -0.32559
                       0.93865                      -0.11242                      -0.32603
                       0.93865                      -0.11068                      -0.32662
                       0.93865                      -0.10778                      -0.32760
                       0.94915                      -0.09373                      -0.30056
                       0.95608                      -0.08138                      -0.28159
                       0.96166                      -0.06876                      -0.26548
                       0.96706                      -0.05442                      -0.24866
                       0.97204                      -0.03829                      -0.23165
                       0.97613                      -0.02067                      -0.21621
                       0.97953                      -0.00159                      -0.20129
                       0.98193                       0.01789                      -0.18837
                       0.98308                       0.03607                      -0.17959
                       0.98393                       0.05285                      -0.17054
                       0.98468                       0.06425                      -0.16212
                       0.98539                       0.07040                      -0.15510
                       0.98583                       0.07290                      -0.15110
                       0.98588                       0.07244                      -0.15095
        </DataArray>
        <DataArray type="Float32" Name="OrientationY" NumberOfComponents="3" format="ascii">
                       0.34487                       0.30321                       0.88833
                       0.34487                       0.30310                       0.88837
                       0.34486                       0.30283                       0.88846
                       0.34486                       0.30250                       0.88857
                       0.34487                       0.30200                       0.88874
                       0.31475                       0.30453                       0.89900
                       0.29285                       0.30581                       0.90593
                       0.27360                       0.30659                       0.91167
                       0.25316                       0.30719                       0.91736
                       0.23203                       0.30753                       0.92281
                       0.21198                       0.30753                       0.92762
                       0.19204                       0.30721                       0.93206
                       0.17394                       0.30656                       0.93582
                       0.16024                       0.30575                       0.93853
                       0.14674                       0.30479                       0.94105
                       0.13543                       0.30390                       0.94303
                       0.12699                       0.30321                       0.94442
                       0.12247                       0.30283                       0.94514
                       0.12246                       0.30283                       0.94514
        </DataArray>
        <DataArray type="Float32" Name="OrientationZ" NumberOfComponents="3" format="ascii">
                      -0.00273                      -0.94606                       0.32398
                      -0.00232                      -0.94615                       0.32372
                      -0.00115                      -0.94639                       0.32302
                       0.00045                      -0.94670                       0.32211
                       0.00314                      -0.94720                       0.32064
                       0.00727                      -0.94788                       0.31854
                       0.01239                      -0.94861                       0.31621
                       0.01871                      -0.94935                       0.31365
                       0.02646                      -0.95009                       0.31085
                       0.03590                      -0.95077                       0.30782
                       0.04732                      -0.95131                       0.30457
                       0.06036                      -0.95164                       0.30123
                       0.07449                      -0.95168                       0.29791
                       0.08877                      -0.95143                       0.29480
                       0.10171                      -0.95095                       0.29214
                       0.10986                      -0.95053                       0.29054
                       0.11351                      -0.95032                       0.28984
                       0.11466                      -0.95025                       0.28961
                       0.11418                      -0.95029                       0.28969
        </DataArray>
      </PointData>
      <Lines>
        <DataArray type="Int32" Name="connectivity" format="ascii">
      0      1
      1      2
      2      3
      3      4
      4      5
      5      6
      6      7
      7      8
      8      9
      9     10
     10     11
     11     12
     12     13
     13     14
     14     15
     15     16
     16     17
     17     18
        </DataArray>
        <DataArray type="Int32" Name="offsets" format="ascii">
      2
      4
      6
      8
     10
     12
     14
     16
     18
     20
     22
     24
     26
     28
     30
     32
     34
     36
        </DataArray>
      </Lines>
    </Piece>
  </PolyData>
</VTKFile>
