<?xml version="1.0"?>
<VTKFile type="PolyData" version="0.1" byte_order="LittleEndian">
  <PolyData>
    <Piece NumberOfPoints="     19" NumberOfVerts="  0" NumberOfLines="     18"
           NumberOfStrips="  0" NumberOfPolys="      0">
      <Points>
        <DataArray type="Float32" NumberOfComponents="3" format="ascii">
                       3.23829                      -0.34969                      93.39626
                       3.51344                      -0.73165                      96.98315
                       3.78962                      -1.11383                     100.56993
                       4.06725                      -1.49634                     104.15657
                       4.34667                      -1.87921                     107.74303
                       4.62821                      -2.26247                     111.32928
                       4.91218                      -2.64612                     114.91530
                       5.19890                      -3.03018                     118.50106
                       5.48870                      -3.41463                     122.08653
                       5.78188                      -3.79946                     125.67168
                       6.07872                      -4.18463                     129.25650
                       6.37938                      -4.57009                     132.84096
                       6.68390                      -4.95579                     136.42508
                       6.99210                      -5.34165                     140.00886
                       7.30348                      -5.72763                     143.59235
                       7.61715                      -6.11367                     147.17564
                       7.93173                      -6.49972                     150.75885
                       8.08903                      -6.69275                     152.55045
                       3.10093                      -0.15876                      91.60279
        </DataArray>
      </Points>
      <PointData>
        <DataArray type="Float32" Name="TranslationalVelocity" NumberOfComponents="3" format="ascii">
                      -0.00373                      -3.08580                      -0.32347
                      -0.03683                      -6.44821                      -0.67898
                      -0.05452                      -9.81707                      -1.03659
                      -0.05065                     -13.19444                      -1.39708
                      -0.01990                     -16.58151                      -1.76106
                       0.04290                     -19.97883                      -2.12907
                       0.14316                     -23.38667                      -2.50160
                       0.28664                     -26.80516                      -2.87923
                       0.47952                     -30.23414                      -3.26251
                       0.72803                     -33.67319                      -3.65199
                       1.03789                     -37.12160                      -4.04818
                       1.41345                     -40.57837                      -4.45143
                       1.85661                     -44.04222                      -4.86185
                       2.36544                     -47.51178                      -5.27919
                       2.93254                     -50.98554                      -5.70264
                       3.54323                     -54.46194                      -6.13062
                       4.17331                     -57.93952                      -6.56061
                       4.48951                     -59.67843                      -6.77572
                       0.01582                      -1.40589                      -0.14612
        </DataArray>
        <DataArray type="Float32" Name="RotationalVelocity" NumberOfComponents="3" format="ascii">
                       0.92813                       0.00099                      -0.11164
                       0.92960                       0.00431                      -0.11140
                       0.93176                       0.00952                      -0.11101
                       0.93440                       0.01626                      -0.11050
                       0.93725                       0.02441                      -0.10985
                       0.94020                       0.03401                      -0.10905
                       0.94323                       0.04514                      -0.10810
                       0.94627                       0.05793                      -0.10697
                       0.94925                       0.07246                      -0.10565
                       0.95209                       0.08869                      -0.10414
                       0.95470                       0.10638                      -0.10246
                       0.95701                       0.12501                      -0.10065
                       0.95894                       0.14374                      -0.09881
                       0.96047                       0.16130                      -0.09706
                       0.96155                       0.17594                      -0.09558
                       0.96214                       0.18538                      -0.09462
                       0.96229                       0.18666                      -0.09449
                       0.96226                       0.18486                      -0.09468
                       0.92760                      -0.00014                      -0.11172
        </DataArray>
        <DataArray type="Float32" Name="TranslationalAcceleration" NumberOfComponents="3" format="ascii">
                       0.40718                       0.66639                      -2.44348
                       0.33953                       1.54017                      -5.53279
                       0.32926                       2.31063                      -8.64986
                       0.40198                       2.94999                     -11.80390
                       0.58232                       3.44162                     -15.00153
                       0.90030                       3.77678                     -18.24800
                       1.39385                       3.95131                     -21.54860
                       2.11050                       3.96417                     -24.90926
                       3.10742                       3.81734                     -28.33653
                       4.44855                       3.51581                     -31.83737
                       6.19917                       3.06775                     -35.41865
                       8.41818                       2.48486                     -39.08625
                      11.14776                       1.78226                     -42.84367
                      14.40061                       0.97802                     -46.69022
                      18.14494                       0.09335                     -50.61830
                      22.28695                      -0.84714                     -54.61020
                      26.65069                      -1.81596                     -58.63510
                      28.86019                      -2.30388                     -60.65105
                       0.45180                       0.20793                      -0.90442
        </DataArray>
        <DataArray type="Float32" Name="RotationalAcceleration" NumberOfComponents="3" format="ascii">
                      -0.16056                       0.07686                       0.02774
                      -0.13647                       0.08928                       0.02722
                      -0.10287                       0.10977                       0.02683
                      -0.06322                       0.13670                       0.02666
                      -0.02030                       0.17102                       0.02703
                       0.02427                       0.21465                       0.02827
                       0.06962                       0.27000                       0.03069
                       0.11494                       0.33993                       0.03466
                       0.15943                       0.42689                       0.04052
                       0.20228                       0.53214                       0.04844
                       0.24259                       0.65515                       0.05845
                       0.27933                       0.79288                       0.07030
                       0.31161                       0.93910                       0.08339
                       0.33856                       1.08371                       0.09672
                       0.35903                       1.21211                       0.10882
                       0.37185                       1.30450                       0.11768
                       0.37603                       1.33509                       0.12061
                       0.37585                       1.33133                       0.12023
                      -0.16972                       0.07308                       0.02804
        </DataArray>
        <DataArray type="Float32" Name="OrientationX" NumberOfComponents="3" format="ascii">
                       0.96734                      -0.23338                      -0.09894
                       0.96732                      -0.23335                      -0.09917
                       0.96729                      -0.23332                      -0.09952
                       0.97039                      -0.22038                      -0.09885
                       0.97698                      -0.19017                      -0.09670
                       0.98029                      -0.17282                      -0.09575
                       0.98332                      -0.15519                      -0.09484
                       0.98618                      -0.13649                      -0.09389
                       0.98871                      -0.11749                      -0.09297
                       0.99078                      -0.09925                      -0.09218
                       0.99249                      -0.08125                      -0.09144
                       0.99380                      -0.06416                      -0.09080
                       0.99462                      -0.05037                      -0.09047
                       0.99519                      -0.03814                      -0.09018
                       0.99563                      -0.02591                      -0.08970
                       0.99594                      -0.01380                      -0.08891
                       0.99610                      -0.00587                      -0.08809
                       0.99614                      -0.00344                      -0.08770
                       0.96735                      -0.23339                      -0.09886
        </DataArray>
        <DataArray type="Float32" Name="OrientationY" NumberOfComponents="3" format="ascii">
                       0.24184                       0.96664                       0.08439
                       0.24184                       0.96664                       0.08438
                       0.24184                       0.96664                       0.08437
                       0.22894                       0.96966                       0.08569
                       0.19876                       0.97602                       0.08871
                       0.18147                       0.97923                       0.09040
                       0.16389                       0.98217                       0.09210
                       0.14526                       0.98493                       0.09388
                       0.12633                       0.98737                       0.09566
                       0.10817                       0.98935                       0.09735
                       0.09025                       0.99099                       0.09900
                       0.07325                       0.99223                       0.10056
                       0.05955                       0.99302                       0.10180
                       0.04741                       0.99356                       0.10290
                       0.03523                       0.99395                       0.10400
                       0.02316                       0.99419                       0.10508
                       0.01522                       0.99427                       0.10579
                       0.01277                       0.99428                       0.10600
                       0.24184                       0.96664                       0.08439
        </DataArray>
        <DataArray type="Float32" Name="OrientationZ" NumberOfComponents="3" format="ascii">
                       0.07594                      -0.10556                       0.99151
                       0.07617                      -0.10561                       0.99149
                       0.07652                      -0.10568                       0.99145
                       0.07697                      -0.10578                       0.99141
                       0.07751                      -0.10589                       0.99135
                       0.07814                      -0.10600                       0.99129
                       0.07885                      -0.10611                       0.99122
                       0.07966                      -0.10622                       0.99115
                       0.08055                      -0.10633                       0.99106
                       0.08153                      -0.10643                       0.99097
                       0.08257                      -0.10651                       0.99088
                       0.08365                      -0.10659                       0.99078
                       0.08471                      -0.10664                       0.99068
                       0.08568                      -0.10668                       0.99059
                       0.08647                      -0.10670                       0.99052
                       0.08695                      -0.10671                       0.99048
                       0.08696                      -0.10671                       0.99048
                       0.08683                      -0.10671                       0.99049
                       0.07587                      -0.10554                       0.99152
        </DataArray>
      </PointData>
      <Lines>
        <DataArray type="Int32" Name="connectivity" format="ascii">
      0      1
      1      2
      2      3
      3      4
      4      5
      5      6
      6      7
      7      8
      8      9
      9     10
     10     11
     11     12
     12     13
     13     14
     14     15
     15     16
     16     17
     18      0
        </DataArray>
        <DataArray type="Int32" Name="offsets" format="ascii">
      2
      4
      6
      8
     10
     12
     14
     16
     18
     20
     22
     24
     26
     28
     30
     32
     34
     36
        </DataArray>
      </Lines>
    </Piece>
  </PolyData>
</VTKFile>
