<?xml version="1.0"?>
<VTKFile type="PolyData" version="0.1" byte_order="LittleEndian">
  <PolyData>
    <Piece NumberOfPoints="     17" NumberOfVerts="  0" NumberOfLines="      0"
           NumberOfStrips="  0" NumberOfPolys="      0">
      <Points>
        <DataArray type="Float32" NumberOfComponents="3" format="ascii">
                       3.08853                       3.20646                      90.87806
                       3.03590                       6.73286                      91.68369
                       2.99124                      10.25950                      92.48879
                       2.95760                      13.78640                      93.29328
                       2.93750                      17.31357                      94.09701
                       2.93365                      20.84102                      94.89975
                       2.94946                      24.36870                      95.70129
                       2.98923                      27.89651                      96.50141
                       3.05814                      31.42426                      97.29974
                       3.16202                      34.95167                      98.09572
                       3.30684                      38.47833                      98.88857
                       3.49796                      42.00369                      99.67733
                       3.73915                      45.52712                     100.46103
                       4.03139                      49.04798                     101.23894
                       4.37141                      52.56592                     102.01085
                       4.74999                      56.08113                     102.77750
                       5.15005                      59.59470                     103.54102
        </DataArray>
      </Points>
      <PointData>
        <DataArray type="Float32" Name="Force" NumberOfComponents="3" format="ascii">
                     148.27099                      17.46014                     -66.28369
                     477.15328                      59.47987                    -233.83109
                    1932.04556                     -75.44809                     414.02157
                    3405.87270                    -166.10865                     829.00535
                    2077.94324                     -91.30079                     431.41419
                    4416.47331                    -164.59142                     705.45368
                    5244.75716                    -171.65200                     590.08853
                    5739.91581                    -178.63665                     405.05526
                    6148.08934                    -204.63145                     236.22607
                    7813.74451                    -297.56116                      81.54325
                    9096.97094                    -420.00279                    -112.34832
                   10622.60161                    -613.68511                    -276.79709
                    6204.20617                    -416.90214                    -218.72009
                   12647.03505                    -971.02742                    -561.60014
                   12624.20884                   -1103.45257                    -680.39872
                   18833.22211                   -1800.49821                   -1190.74574
                    8138.58177                    -786.17044                    -629.52681
        </DataArray>
        <DataArray type="Float32" Name="Moment" NumberOfComponents="3" format="ascii">
                     -19.04560                       7.10661                     -14.30901
                      63.76403                     133.63805                    -315.87940
                     549.20313                     795.15560                   -1880.12267
                     652.49465                    1340.30379                   -2526.08822
                      17.64886                     372.01657                    -133.07696
                    -461.58308                    -186.61409                    2160.54123
                    -288.74697                    -586.09098                    1359.95764
                    -146.11098                   -1133.24090                    -121.09990
                    -109.95149                   -1234.24450                    -899.00926
                    -132.11651                   -1189.89947                   -1748.09606
                    -152.59610                    -712.09533                   -3939.99362
                    -178.21153                     615.28811                   -6880.58106
                     -26.18636                    -401.31971                     307.48717
                     134.83830                   -2351.24861                    8030.80382
                     199.28581                   -2110.28390                    7723.67893
                     -77.52499                    -462.30570                     603.75498
                    -149.14255                    -121.43241                    -317.63868
        </DataArray>
      </PointData>
    </Piece>
  </PolyData>
</VTKFile>
