<?xml version="1.0"?>
<VTKFile type="PolyData" version="0.1" byte_order="LittleEndian">
  <PolyData>
    <Piece NumberOfPoints="     19" NumberOfVerts="  0" NumberOfLines="     18"
           NumberOfStrips="  0" NumberOfPolys="      0">
      <Points>
        <DataArray type="Float32" NumberOfComponents="3" format="ascii">
                       2.60777                      -0.93081                      87.00736
                       2.02255                      -1.92725                      83.57924
                       1.44695                      -2.92290                      80.14927
                       0.88466                      -3.91733                      76.71674
                       0.33877                      -4.91029                      73.28114
                      -0.18743                      -5.90165                      69.84202
                      -0.68992                      -6.89114                      66.39883
                      -1.16375                      -7.87841                      62.95094
                      -1.60293                      -8.86306                      59.49774
                      -2.00079                      -9.84480                      56.03872
                      -2.35049                     -10.82344                      52.57365
                      -2.64589                     -11.79897                      49.10266
                      -2.88266                     -12.77157                      45.62634
                      -3.05973                     -13.74152                      42.14569
                      -3.18104                     -14.70928                      38.66196
                      -3.25751                     -15.67553                      35.17643
                      -3.30940                     -16.64107                      31.69016
                      -3.33239                     -17.12377                      29.94696
                       2.90226                      -0.43246                      88.72106
        </DataArray>
      </Points>
      <PointData>
        <DataArray type="Float32" Name="TranslationalVelocity" NumberOfComponents="3" format="ascii">
                       0.14435                       2.92128                      -0.78831
                      -0.00867                       6.12802                      -1.69429
                      -0.17549                       9.32612                      -2.59465
                      -0.36201                      12.51301                      -3.48739
                      -0.57349                      15.68714                      -4.37122
                      -0.81377                      18.84796                      -5.24564
                      -1.08455                      21.99568                      -6.11077
                      -1.38497                      25.13100                      -6.96731
                      -1.71158                      28.25495                      -7.81660
                      -2.05844                      31.36862                      -8.66047
                      -2.41744                      34.47294                      -9.50098
                      -2.77889                      37.56855                     -10.34017
                      -3.13227                      40.65584                     -11.17969
                      -3.46735                      43.73520                     -12.02050
                      -3.77547                      46.80736                     -12.86288
                      -4.05116                      49.87386                     -13.70661
                      -4.29400                      52.93758                     -14.55128
                      -4.40754                      54.46921                     -14.97381
                       0.21816                       1.31611                      -0.33420
        </DataArray>
        <DataArray type="Float32" Name="RotationalVelocity" NumberOfComponents="3" format="ascii">
                       0.91676                       0.00938                      -0.11586
                       0.91445                       0.01240                      -0.11634
                       0.91116                       0.01710                      -0.11714
                       0.90716                       0.02337                      -0.11827
                       0.90282                       0.03094                      -0.11973
                       0.89846                       0.03928                      -0.12140
                       0.89425                       0.04771                      -0.12313
                       0.89041                       0.05553                      -0.12474
                       0.88706                       0.06202                      -0.12605
                       0.88427                       0.06656                      -0.12689
                       0.88203                       0.06863                      -0.12710
                       0.88032                       0.06790                      -0.12659
                       0.87906                       0.06433                      -0.12534
                       0.87819                       0.05817                      -0.12339
                       0.87766                       0.05005                      -0.12094
                       0.87744                       0.04106                      -0.11829
                       0.87755                       0.03276                      -0.11590
                       0.87770                       0.02902                      -0.11483
                       0.91763                       0.00829                      -0.11569
        </DataArray>
        <DataArray type="Float32" Name="TranslationalAcceleration" NumberOfComponents="3" format="ascii">
                      -0.26278                       1.03336                       2.48354
                       0.12814                       2.32298                       5.28788
                       0.47283                       3.61031                       8.08270
                       0.75314                       4.89314                      10.86627
                       0.95419                       6.17048                      13.63805
                       1.06774                       7.44341                      16.39785
                       1.09452                       8.71441                      19.14488
                       1.04550                       9.98702                      21.87719
                       0.94208                      11.26577                      24.59151
                       0.81524                      12.55546                      27.28352
                       0.70351                      13.86027                      29.94861
                       0.64990                      15.18304                      32.58307
                       0.69755                      16.52476                      35.18540
                       0.88422                      17.88433                      37.75733
                       1.23548                      19.25860                      40.30396
                       1.75647                      20.64251                      42.83285
                       2.42237                      22.02986                      45.35215
                       2.78626                      22.72357                      46.61041
                      -0.46745                       0.38825                       1.07930
        </DataArray>
        <DataArray type="Float32" Name="RotationalAcceleration" NumberOfComponents="3" format="ascii">
                       0.12427                      -0.02065                      -0.02506
                       0.12497                      -0.01119                      -0.02794
                       0.12551                       0.00313                      -0.03220
                       0.12566                       0.02206                      -0.03773
                       0.12584                       0.04421                      -0.04420
                       0.12643                       0.06745                      -0.05106
                       0.12770                       0.08914                      -0.05759
                       0.12997                       0.10642                      -0.06301
                       0.13346                       0.11653                      -0.06655
                       0.13817                       0.11713                      -0.06754
                       0.14390                       0.10658                      -0.06546
                       0.15029                       0.08426                      -0.06007
                       0.15688                       0.05092                      -0.05151
                       0.16318                       0.00893                      -0.04038
                       0.16861                      -0.03738                      -0.02785
                       0.17255                      -0.08143                      -0.01572
                       0.17452                      -0.11407                      -0.00656
                       0.17497                      -0.12623                      -0.00310
                       0.12395                      -0.02420                      -0.02398
        </DataArray>
        <DataArray type="Float32" Name="OrientationX" NumberOfComponents="3" format="ascii">
                       0.95160                       0.20983                      -0.22455
                       0.95194                       0.21041                      -0.22256
                       0.95247                       0.21131                      -0.21944
                       0.95650                       0.19996                      -0.21241
                       0.96449                       0.17210                      -0.20034
                       0.96908                       0.15700                      -0.19037
                       0.97354                       0.14198                      -0.17907
                       0.97800                       0.12636                      -0.16599
                       0.98228                       0.11093                      -0.15107
                       0.98618                       0.09676                      -0.13447
                       0.98973                       0.08331                      -0.11614
                       0.99278                       0.07114                      -0.09660
                       0.99507                       0.06236                      -0.07717
                       0.99677                       0.05497                      -0.05847
                       0.99803                       0.04702                      -0.04164
                       0.99886                       0.03806                      -0.02878
                       0.99923                       0.03124                      -0.02361
                       0.99931                       0.02873                      -0.02346
                       0.95149                       0.20964                      -0.22520
        </DataArray>
        <DataArray type="Float32" Name="OrientationY" NumberOfComponents="3" format="ascii">
                       0.26066                      -0.93812                       0.22802
                       0.26071                      -0.93803                       0.22831
                       0.26078                      -0.93791                       0.22872
                       0.24815                      -0.94051                       0.23207
                       0.21847                      -0.94613                       0.23898
                       0.20146                      -0.94889                       0.24296
                       0.18415                      -0.95141                       0.24679
                       0.16576                      -0.95380                       0.25057
                       0.14703                      -0.95594                       0.25409
                       0.12903                      -0.95771                       0.25717
                       0.11123                      -0.95922                       0.25985
                       0.09432                      -0.96043                       0.26205
                       0.08068                      -0.96126                       0.26358
                       0.06857                      -0.96189                       0.26469
                       0.05642                      -0.96245                       0.26551
                       0.04435                      -0.96293                       0.26607
                       0.03640                      -0.96320                       0.26632
                       0.03395                      -0.96327                       0.26637
                       0.26064                      -0.93815                       0.22790
        </DataArray>
        <DataArray type="Float32" Name="OrientationZ" NumberOfComponents="3" format="ascii">
                      -0.16281                      -0.27551                      -0.94741
                      -0.16073                      -0.27537                      -0.94781
                      -0.15749                      -0.27508                      -0.94844
                      -0.15337                      -0.27469                      -0.94922
                      -0.14842                      -0.27427                      -0.95013
                      -0.14249                      -0.27380                      -0.95117
                      -0.13533                      -0.27324                      -0.95238
                      -0.12666                      -0.27257                      -0.95376
                      -0.11622                      -0.27180                      -0.95531
                      -0.10390                      -0.27096                      -0.95697
                      -0.08975                      -0.27010                      -0.95864
                      -0.07413                      -0.26927                      -0.96021
                      -0.05774                      -0.26850                      -0.96155
                      -0.04170                      -0.26784                      -0.96256
                      -0.02760                      -0.26734                      -0.96321
                      -0.01758                      -0.26705                      -0.96352
                      -0.01442                      -0.26697                      -0.96360
                      -0.01494                      -0.26699                      -0.96358
                      -0.16350                      -0.27554                      -0.94728
        </DataArray>
      </PointData>
      <Lines>
        <DataArray type="Int32" Name="connectivity" format="ascii">
      0      1
      1      2
      2      3
      3      4
      4      5
      5      6
      6      7
      7      8
      8      9
      9     10
     10     11
     11     12
     12     13
     13     14
     14     15
     15     16
     16     17
     18      0
        </DataArray>
        <DataArray type="Int32" Name="offsets" format="ascii">
      2
      4
      6
      8
     10
     12
     14
     16
     18
     20
     22
     24
     26
     28
     30
     32
     34
     36
        </DataArray>
      </Lines>
    </Piece>
  </PolyData>
</VTKFile>
