<?xml version="1.0"?>
<VTKFile type="PolyData" version="0.1" byte_order="LittleEndian">
  <PolyData>
    <Piece NumberOfPoints="     19" NumberOfVerts="  0" NumberOfLines="     18"
           NumberOfStrips="  0" NumberOfPolys="      0">
      <Points>
        <DataArray type="Float32" NumberOfComponents="3" format="ascii">
                       2.83638                       1.32349                      89.42610
                       2.69986                       2.53094                      88.80055
                       2.41473                       4.98930                      87.63564
                       2.12391                       7.46827                      86.51149
                       1.75705                      10.57935                      85.13056
                       1.35416                      14.24750                      83.34048
                       0.96153                      17.85553                      81.43288
                       0.56664                      21.46221                      79.52319
                       0.17176                      25.06679                      77.60949
                      -0.22366                      28.67015                      75.69356
                      -0.62051                      32.27396                      73.77882
                      -1.01808                      35.87755                      71.86384
                      -1.41693                      39.48092                      69.94869
                      -1.81772                      43.08406                      68.03354
                      -2.21871                      46.68711                      66.11827
                      -2.55304                      49.68962                      64.52212
                      -2.82164                      52.08784                      63.23833
                      -3.09730                      54.46019                      61.90646
                      -3.23138                      55.66585                      61.27719
        </DataArray>
      </Points>
      <PointData>
        <DataArray type="Float32" Name="Force" NumberOfComponents="3" format="ascii">
                      -0.03499                      -0.15477                      -0.28929
                      63.47277                      -4.39890                     -22.17646
                      77.23873                     -17.36371                     -50.02099
                      67.58418                     -27.18495                     -66.76598
                     730.81855                     157.73682                     144.48923
                    1019.99337                     218.83605                     199.25860
                    1154.36943                     209.28631                     152.05729
                    1454.46381                     230.21134                     127.61381
                    1560.23446                     215.28461                      76.47701
                    1781.63408                     220.09653                      38.41384
                    2173.03990                     239.89898                      -7.23841
                    2465.11447                     246.74983                     -56.04090
                    2877.03430                     271.82031                     -95.28379
                    3122.29197                     273.06036                    -144.22369
                    3326.22057                     268.99961                    -194.40910
                    3427.31212                     256.97206                    -238.24497
                    3339.31338                     233.49493                    -264.11846
                    2412.60687                     160.23967                    -206.93332
                    1239.94300                      38.62724                    -190.20118
        </DataArray>
        <DataArray type="Float32" Name="Moment" NumberOfComponents="3" format="ascii">
                       0.00000                       0.00000                       0.00000
                       0.00000                       0.00000                       0.00000
                       0.00000                       0.00000                       0.00000
                       0.00000                       0.00000                       0.00000
                      20.96850                    -185.95851                      96.95071
                      35.94346                    -318.94016                     166.28399
                      51.97669                    -461.51343                     240.62074
                      73.54107                    -653.50526                     340.72718
                      99.46519                    -884.72299                     461.29197
                     112.57023                   -1002.45869                     522.69491
                     118.28268                   -1054.82610                     550.02029
                     125.01438                   -1116.68603                     582.30084
                     110.08410                    -985.09198                     513.70451
                     108.87996                    -976.11500                     509.04751
                     104.47237                    -938.19746                     489.29493
                      98.78516                    -888.10043                     463.18114
                      87.77595                    -789.53524                     411.78083
                      44.15460                    -397.24541                     207.18377
                      41.01593                    -368.99519                     192.44967
        </DataArray>
        <DataArray type="Float32" Name="TranslationalVelocity" NumberOfComponents="3" format="ascii">
                       0.15831                       0.66276                       1.22969
                       0.29696                       1.26375                       2.35949
                       0.57973                       2.38628                       4.65906
                       0.86729                       3.47079                       6.97574
                       1.23326                       4.80337                       9.87930
                       1.67431                       6.52076                      13.29678
                       2.12095                       8.34412                      16.65095
                       2.58215                      10.16721                      19.99620
                       3.06139                      11.99180                      23.33173
                       3.56326                      13.81670                      26.65825
                       4.08998                      15.63946                      29.97801
                       4.64933                      17.46163                      33.28931
                       5.24610                      19.28359                      36.59182
                       5.88314                      21.10557                      39.88538
                       6.55986                      22.92756                      43.17054
                       7.14950                      24.44591                      45.90282
                       7.63389                      25.66700                      48.08241
                       8.11951                      26.93320                      50.23722
                       8.36458                      27.53213                      51.33254
        </DataArray>
        <DataArray type="Float32" Name="RotationalVelocity" NumberOfComponents="3" format="ascii">
                       0.93622                      -0.00195                      -0.11349
                       0.93593                      -0.00211                      -0.11373
                       0.93523                      -0.00255                      -0.11442
                       0.93439                      -0.00313                      -0.11537
                       0.93313                      -0.00409                      -0.11692
                       0.93140                      -0.00548                      -0.11922
                       0.92953                      -0.00714                      -0.12199
                       0.92763                      -0.00912                      -0.12538
                       0.92575                      -0.01153                      -0.12959
                       0.92389                      -0.01446                      -0.13481
                       0.92204                      -0.01803                      -0.14127
                       0.92018                      -0.02216                      -0.14879
                       0.91830                      -0.02671                      -0.15710
                       0.91646                      -0.03138                      -0.16566
                       0.91480                      -0.03570                      -0.17360
                       0.91371                      -0.03851                      -0.17874
                       0.91319                      -0.03985                      -0.18120
                       0.91297                      -0.04039                      -0.18218
                       0.91299                      -0.04032                      -0.18206
        </DataArray>
        <DataArray type="Float32" Name="TranslationalAcceleration" NumberOfComponents="3" format="ascii">
                       0.31133                      -1.26979                       0.43059
                       0.40428                      -2.36202                       0.95071
                       0.59761                      -4.58458                       1.89978
                       0.85392                      -6.83059                       2.76406
                       1.31117                      -9.65504                       3.73643
                       2.12561                     -13.01840                       4.88667
                       3.29180                     -16.37740                       5.97999
                       4.86010                     -19.77180                       6.90026
                       6.91850                     -23.19660                       7.64601
                       9.57489                     -26.64401                       8.21308
                      12.86896                     -30.10443                       8.61341
                      16.98847                     -33.57136                       8.82324
                      22.03887                     -37.03818                       8.83479
                      28.07752                     -40.50041                       8.64448
                      35.07668                     -43.95942                       8.26301
                      41.52263                     -46.84094                       7.82310
                      46.98748                     -49.14546                       7.41585
                      52.54712                     -51.44317                       7.03880
                      55.31909                     -52.59582                       6.81179
        </DataArray>
        <DataArray type="Float32" Name="OrientationX" NumberOfComponents="3" format="ascii">
                       0.98721                       0.14546                       0.06530
                       0.98721                       0.14545                       0.06531
                       0.98721                       0.14544                       0.06531
                       0.98721                       0.14542                       0.06532
                       0.98721                       0.14539                       0.06534
                       0.99069                       0.13100                       0.03708
                       0.99257                       0.12051                       0.01669
                       0.99379                       0.11128                      -0.00111
                       0.99464                       0.10147                      -0.01991
                       0.99505                       0.09131                      -0.03923
                       0.99500                       0.08163                      -0.05747
                       0.99454                       0.07198                      -0.07552
                       0.99377                       0.06318                      -0.09183
                       0.99296                       0.05645                      -0.10416
                       0.99197                       0.04983                      -0.11628
                       0.99099                       0.04431                      -0.12640
                       0.99017                       0.04023                      -0.13393
                       0.98971                       0.03805                      -0.13797
                       0.98971                       0.03806                      -0.13797
        </DataArray>
        <DataArray type="Float32" Name="OrientationY" NumberOfComponents="3" format="ascii">
                       0.12453                      -0.44761                      -0.88552
                       0.12453                      -0.44761                      -0.88551
                       0.12453                      -0.44763                      -0.88551
                       0.12453                      -0.44764                      -0.88550
                       0.12453                      -0.44767                      -0.88549
                       0.09298                      -0.45211                      -0.88710
                       0.07018                      -0.45504                      -0.88770
                       0.05023                      -0.45741                      -0.88784
                       0.02913                      -0.45970                      -0.88760
                       0.00741                      -0.46184                      -0.88693
                      -0.01313                      -0.46366                      -0.88592
                      -0.03349                      -0.46526                      -0.88454
                      -0.05193                      -0.46654                      -0.88297
                      -0.06591                      -0.46740                      -0.88158
                      -0.07964                      -0.46816                      -0.88005
                      -0.09111                      -0.46871                      -0.87864
                      -0.09964                      -0.46908                      -0.87752
                      -0.10420                      -0.46926                      -0.87689
                      -0.10420                      -0.46926                      -0.87689
        </DataArray>
        <DataArray type="Float32" Name="OrientationZ" NumberOfComponents="3" format="ascii">
                      -0.09957                       0.88232                      -0.45999
                      -0.09957                       0.88232                      -0.46000
                      -0.09955                       0.88231                      -0.46001
                      -0.09953                       0.88231                      -0.46003
                      -0.09950                       0.88230                      -0.46005
                      -0.09944                       0.88229                      -0.46008
                      -0.09938                       0.88228                      -0.46012
                      -0.09931                       0.88227                      -0.46016
                      -0.09921                       0.88226                      -0.46019
                      -0.09910                       0.88225                      -0.46023
                      -0.09896                       0.88225                      -0.46027
                      -0.09881                       0.88224                      -0.46031
                      -0.09863                       0.88224                      -0.46035
                      -0.09845                       0.88224                      -0.46039
                      -0.09829                       0.88224                      -0.46043
                      -0.09818                       0.88224                      -0.46045
                      -0.09813                       0.88224                      -0.46046
                      -0.09811                       0.88224                      -0.46047
                      -0.09811                       0.88224                      -0.46047
        </DataArray>
      </PointData>
      <Lines>
        <DataArray type="Int32" Name="connectivity" format="ascii">
      0      1
      1      2
      2      3
      3      4
      4      5
      5      6
      6      7
      7      8
      8      9
      9     10
     10     11
     11     12
     12     13
     13     14
     14     15
     15     16
     16     17
     17     18
        </DataArray>
        <DataArray type="Int32" Name="offsets" format="ascii">
      2
      4
      6
      8
     10
     12
     14
     16
     18
     20
     22
     24
     26
     28
     30
     32
     34
     36
        </DataArray>
      </Lines>
    </Piece>
  </PolyData>
</VTKFile>
