<?xml version="1.0"?>
<VTKFile type="PolyData" version="0.1" byte_order="LittleEndian">
  <PolyData>
    <Piece NumberOfPoints="     17" NumberOfVerts="  0" NumberOfLines="      0"
           NumberOfStrips="  0" NumberOfPolys="      0">
      <Points>
        <DataArray type="Float32" NumberOfComponents="3" format="ascii">
                       2.53768                      -3.21050                      89.29218
                       2.27496                      -6.69849                      88.36899
                       2.02007                     -10.18578                      87.44099
                       1.77614                     -13.67215                      86.50661
                       1.54595                     -17.15745                      85.56484
                       1.33252                     -20.64163                      84.61497
                       1.13948                     -24.12457                      83.65631
                       0.97127                     -27.60617                      82.68815
                       0.83314                     -31.08624                      81.70983
                       0.73092                     -34.56452                      80.72081
                       0.67049                     -38.04061                      79.72082
                       0.65710                     -41.51405                      78.70993
                       0.69435                     -44.98429                      77.68867
                       0.78297                     -48.45085                      76.65807
                       0.91936                     -51.91359                      75.61966
                       1.09391                     -55.37300                      74.57564
                       1.28899                     -58.83052                      73.52879
        </DataArray>
      </Points>
      <PointData>
        <DataArray type="Float32" Name="Force" NumberOfComponents="3" format="ascii">
                     214.21345                     -37.19141                      79.33927
                     698.01344                    -109.28467                     220.76735
                    2282.55079                     137.99474                   -1123.63494
                    3760.63629                     248.77892                   -1880.65206
                    2286.46152                     133.86882                   -1043.19291
                    4968.09751                     261.47439                   -2063.74292
                    6038.15949                     294.48441                   -2258.81112
                    6744.72132                     321.57295                   -2270.10443
                    7281.26286                     366.78424                   -2240.22254
                    9245.79569                     514.80229                   -2611.32990
                   10705.62365                     685.36372                   -2793.38022
                   12300.43889                     926.91682                   -3019.59374
                    7103.67725                     599.13956                   -1663.96543
                   14290.92057                    1331.57557                   -3181.97460
                   13942.47935                    1429.96475                   -2918.56724
                   20035.37935                    2174.14760                   -3883.12955
                    8202.05891                     872.26154                   -1413.96313
        </DataArray>
        <DataArray type="Float32" Name="Moment" NumberOfComponents="3" format="ascii">
                     -18.61343                     -10.40276                      24.95153
                     206.93589                    -188.58949                     369.33747
                    1269.52289                   -1059.62740                    2102.90814
                    1348.24684                   -1466.68513                    2679.76312
                      68.12877                    -333.44181                     160.03051
                   -1106.46560                     384.06308                   -2361.09866
                    -720.02984                     594.77538                   -1531.10351
                    -130.91181                     881.97564                     100.56915
                     140.24436                     774.47582                     925.30929
                     381.31895                     360.94692                    1802.04687
                    1060.08200                    -508.80945                    4241.98990
                    1938.96443                   -2020.82385                    7484.48217
                    -136.35174                      98.70701                    -486.56195
                   -2365.37492                    2565.78130                   -9261.70664
                   -2121.83108                    2352.66975                   -8700.94187
                    -442.44081                     171.73859                   -1364.95256
                    -117.59322                      77.99388                     133.54892
        </DataArray>
      </PointData>
    </Piece>
  </PolyData>
</VTKFile>
