<?xml version="1.0"?>
<VTKFile type="PolyData" version="0.1" byte_order="LittleEndian">
  <PolyData>
    <Piece NumberOfPoints="     19" NumberOfVerts="  0" NumberOfLines="     18"
           NumberOfStrips="  0" NumberOfPolys="      0">
      <Points>
        <DataArray type="Float32" NumberOfComponents="3" format="ascii">
                       2.91918                      -0.31630                      88.69657
                       2.69121                      -0.58169                      87.37540
                       2.21202                      -1.01947                      84.71821
                       1.72534                      -1.41324                      82.05325
                       1.11848                      -1.87897                      78.71609
                       0.46071                      -2.57803                      74.72813
                      -0.14985                      -3.40406                      70.75832
                      -0.73729                      -4.23165                      66.78536
                      -1.29220                      -5.06197                      62.80831
                      -1.80638                      -5.89245                      58.82587
                      -2.27659                      -6.71922                      54.83730
                      -2.68645                      -7.54313                      50.84152
                      -3.02647                      -8.36416                      46.83865
                      -3.29085                      -9.18257                      42.82956
                      -3.47819                      -9.99872                      38.81566
                      -3.58387                     -10.67767                      35.46844
                      -3.64251                     -11.22814                      32.79145
                      -3.69250                     -11.83251                      30.12480
                      -3.71865                     -12.09378                      28.78358
        </DataArray>
      </Points>
      <PointData>
        <DataArray type="Float32" Name="Force" NumberOfComponents="3" format="ascii">
                       0.06894                      -2.71450                       0.54055
                      53.68620                     -23.99831                      -4.34742
                      73.04442                     -58.80825                      -0.49299
                      69.36924                     -78.70383                       4.30922
                     631.97276                     250.65040                    -155.58870
                     862.23274                     287.68135                    -197.17322
                    1050.13916                     290.93524                    -221.97808
                    1408.33601                     334.14140                    -276.13250
                    1606.18258                     322.24305                    -288.31826
                    1948.02335                     348.55741                    -318.76046
                    2513.58158                     406.36979                    -366.42486
                    3018.86624                     459.99442                    -383.58544
                    3594.82206                     554.25017                    -390.93467
                    4099.27173                     622.38112                    -364.85583
                    4520.58522                     682.65477                    -320.68015
                    4784.98381                     711.89372                    -281.41788
                    4752.00608                     686.76144                    -248.50737
                    3511.27745                     498.25487                    -173.34500
                    1253.95267                       9.96317                     -28.57860
        </DataArray>
        <DataArray type="Float32" Name="Moment" NumberOfComponents="3" format="ascii">
                       0.00000                       0.00000                       0.00000
                       0.00000                       0.00000                       0.00000
                       0.00000                       0.00000                       0.00000
                       0.00000                       0.00000                       0.00000
                      29.54046                      36.28359                     178.44010
                      65.79145                      83.10888                     408.96232
                      86.16234                     112.79837                     555.45785
                     118.25081                     162.18180                     799.35730
                     153.44828                     223.97236                    1105.16583
                     159.24423                     252.90679                    1249.72845
                     149.91482                     267.71383                    1325.27564
                     134.01586                     280.39122                    1390.96612
                      98.47701                     254.74443                    1266.70647
                      73.00587                     250.17240                    1246.99520
                      47.67691                     234.42034                    1171.12244
                      31.70009                     217.90657                    1090.23176
                      22.55819                     192.29302                     962.77256
                      10.14146                      96.26444                     482.12360
                       8.74462                      82.34424                     412.39782
        </DataArray>
        <DataArray type="Float32" Name="TranslationalVelocity" NumberOfComponents="3" format="ascii">
                       0.16335                       1.33454                      -0.22061
                       0.11955                       2.58214                      -0.46366
                       0.04109                       5.09297                      -0.86321
                      -0.03772                       7.60913                      -1.22072
                      -0.14435                      10.75442                      -1.64061
                      -0.30888                      14.49635                      -2.27005
                      -0.51593                      18.20531                      -3.01069
                      -0.75534                      21.90361                      -3.74639
                      -1.02973                      25.59129                      -4.47869
                      -1.33945                      29.26936                      -5.20635
                      -1.67952                      32.93994                      -5.92766
                      -2.05074                      36.60223                      -6.64516
                      -2.44824                      40.25621                      -7.36115
                      -2.86530                      43.90153                      -8.07793
                      -3.29344                      47.53790                      -8.79728
                      -3.65183                      50.56209                      -9.39919
                      -3.93615                      52.97678                      -9.88925
                      -4.21824                      55.38102                     -10.42859
                      -4.35301                      56.59041                     -10.66140
        </DataArray>
        <DataArray type="Float32" Name="RotationalVelocity" NumberOfComponents="3" format="ascii">
                       0.92449                       0.00900                      -0.11693
                       0.92413                       0.00965                      -0.11700
                       0.92320                       0.01140                      -0.11719
                       0.92200                       0.01377                      -0.11747
                       0.92009                       0.01774                      -0.11795
                       0.91741                       0.02386                      -0.11873
                       0.91458                       0.03112                      -0.11972
                       0.91177                       0.03915                      -0.12087
                       0.90910                       0.04755                      -0.12212
                       0.90668                       0.05588                      -0.12340
                       0.90462                       0.06361                      -0.12462
                       0.90292                       0.07033                      -0.12569
                       0.90158                       0.07562                      -0.12654
                       0.90058                       0.07913                      -0.12708
                       0.89990                       0.08052                      -0.12724
                       0.89958                       0.07980                      -0.12704
                       0.89948                       0.07796                      -0.12665
                       0.89950                       0.07518                      -0.12609
                       0.89955                       0.07346                      -0.12575
        </DataArray>
        <DataArray type="Float32" Name="TranslationalAcceleration" NumberOfComponents="3" format="ascii">
                      -0.78809                       0.10110                       1.38315
                      -0.66016                       0.36235                       2.53290
                      -0.38749                       0.81942                       4.84427
                      -0.07075                       1.28679                       7.14646
                       0.41331                       1.93728                       9.99717
                       1.15409                       2.98529                      13.32580
                       2.11335                       4.31771                      16.53494
                       3.30140                       5.82676                      19.65712
                       4.65906                       7.49909                      22.70913
                       6.06049                       9.30873                      25.72015
                       7.34879                      11.21620                      28.72304
                       8.29818                      13.20871                      31.74536
                       8.66003                      15.26283                      34.80492
                       8.20362                      17.35886                      37.90019
                       6.76855                      19.47934                      41.01086
                       4.82162                      21.25487                      43.59642
                       2.79801                      22.68181                      45.64971
                       0.47686                      24.14600                      47.67262
                      -0.71769                      24.84648                      48.70579
        </DataArray>
        <DataArray type="Float32" Name="OrientationX" NumberOfComponents="3" format="ascii">
                       0.95351                       0.21744                      -0.20866
                       0.95358                       0.21753                      -0.20824
                       0.95380                       0.21778                      -0.20699
                       0.95408                       0.21813                      -0.20529
                       0.95456                       0.21870                      -0.20246
                       0.96279                       0.18897                      -0.19322
                       0.96845                       0.16786                      -0.18421
                       0.97325                       0.14976                      -0.17422
                       0.97805                       0.13087                      -0.16213
                       0.98271                       0.11176                      -0.14761
                       0.98696                       0.09431                      -0.13044
                       0.99082                       0.07745                      -0.11082
                       0.99399                       0.06280                      -0.08968
                       0.99625                       0.05264                      -0.06871
                       0.99790                       0.04245                      -0.04900
                       0.99881                       0.03330                      -0.03563
                       0.99926                       0.02594                      -0.02856
                       0.99944                       0.02187                      -0.02538
                       0.99944                       0.02184                      -0.02554
        </DataArray>
        <DataArray type="Float32" Name="OrientationY" NumberOfComponents="3" format="ascii">
                       0.25113                      -0.95606                       0.15127
                       0.25115                      -0.95604                       0.15139
                       0.25120                      -0.95598                       0.15168
                       0.25126                      -0.95590                       0.15204
                       0.25135                      -0.95579                       0.15260
                       0.22089                      -0.96214                       0.15966
                       0.19880                      -0.96609                       0.16479
                       0.17941                      -0.96911                       0.16920
                       0.15882                      -0.97194                       0.17354
                       0.13750                      -0.97444                       0.17766
                       0.11725                      -0.97642                       0.18124
                       0.09708                      -0.97805                       0.18435
                       0.07872                      -0.97924                       0.18678
                       0.06477                      -0.97996                       0.18835
                       0.05102                      -0.98055                       0.18952
                       0.03949                      -0.98095                       0.19020
                       0.03091                      -0.98119                       0.19055
                       0.02632                      -0.98130                       0.19070
                       0.02632                      -0.98130                       0.19069
        </DataArray>
        <DataArray type="Float32" Name="OrientationZ" NumberOfComponents="3" format="ascii">
                      -0.16660                      -0.19664                      -0.96622
                      -0.16615                      -0.19666                      -0.96629
                      -0.16485                      -0.19667                      -0.96651
                      -0.16307                      -0.19664                      -0.96682
                      -0.16014                      -0.19655                      -0.96733
                      -0.15574                      -0.19640                      -0.96808
                      -0.15030                      -0.19622                      -0.96897
                      -0.14350                      -0.19593                      -0.97006
                      -0.13487                      -0.19549                      -0.97139
                      -0.12398                      -0.19488                      -0.97296
                      -0.11027                      -0.19417                      -0.97475
                      -0.09411                      -0.19342                      -0.97659
                      -0.07609                      -0.19271                      -0.97830
                      -0.05741                      -0.19210                      -0.97969
                      -0.04000                      -0.19162                      -0.98065
                      -0.02861                      -0.19138                      -0.98110
                      -0.02308                      -0.19129                      -0.98126
                      -0.02074                      -0.19126                      -0.98132
                      -0.02090                      -0.19126                      -0.98132
        </DataArray>
      </PointData>
      <Lines>
        <DataArray type="Int32" Name="connectivity" format="ascii">
      0      1
      1      2
      2      3
      3      4
      4      5
      5      6
      6      7
      7      8
      8      9
      9     10
     10     11
     11     12
     12     13
     13     14
     14     15
     15     16
     16     17
     17     18
        </DataArray>
        <DataArray type="Int32" Name="offsets" format="ascii">
      2
      4
      6
      8
     10
     12
     14
     16
     18
     20
     22
     24
     26
     28
     30
     32
     34
     36
        </DataArray>
      </Lines>
    </Piece>
  </PolyData>
</VTKFile>
