<?xml version="1.0"?>
<VTKFile type="PolyData" version="0.1" byte_order="LittleEndian">
  <PolyData>
    <Piece NumberOfPoints="     17" NumberOfVerts="  0" NumberOfLines="      0"
           NumberOfStrips="  0" NumberOfPolys="      0">
      <Points>
        <DataArray type="Float32" NumberOfComponents="3" format="ascii">
                       3.26539                       2.26624                      92.52603
                       3.43930                       4.78337                      95.11855
                       3.62090                       7.30238                      97.70872
                       3.81304                       9.82361                     100.29596
                       4.01802                      12.34728                     102.87983
                       4.23827                      14.87348                     105.45997
                       4.47687                      17.40208                     108.03610
                       4.73776                      19.93280                     110.60799
                       5.02575                      22.46523                     113.17529
                       5.34624                      24.99893                     115.73746
                       5.70482                      27.53342                     118.29377
                       6.10652                      30.06826                     120.84331
                       6.55490                      32.60301                     123.38514
                       7.05095                      35.13725                     125.91864
                       7.59166                      37.67072                     128.44381
                       8.16852                      40.20340                     130.96183
                       8.76566                      42.73563                     133.47565
        </DataArray>
      </Points>
      <PointData>
        <DataArray type="Float32" Name="Force" NumberOfComponents="3" format="ascii">
                     182.02155                      47.16536                     -57.78669
                     574.04135                     158.92119                    -194.31465
                    2201.34303                    -485.44438                     308.13389
                    3795.09863                    -923.23093                     599.35761
                    2308.50569                    -509.52508                     303.81683
                    4933.12099                    -944.92385                     482.21218
                    5913.74034                    -977.64462                     379.67568
                    6560.67322                    -949.13021                     222.79336
                    7016.61041                    -921.87330                      62.88160
                    8804.53443                   -1074.18942                    -126.87449
                   10052.72484                   -1171.96925                    -368.45657
                   11389.61973                   -1324.20749                    -636.37616
                    6482.24558                    -753.16182                    -459.10407
                   12788.93144                   -1474.34320                   -1109.46502
                   12120.46433                   -1367.09357                   -1283.35903
                   16712.17523                   -1756.01221                   -2123.12771
                    6781.42762                    -607.37189                   -1003.07177
        </DataArray>
        <DataArray type="Float32" Name="Moment" NumberOfComponents="3" format="ascii">
                     -20.17015                      17.96713                      -9.27947
                      98.34278                     314.42440                    -223.47203
                     726.36959                    1829.83826                   -1383.73227
                     875.41752                    2661.04605                   -1649.24578
                      53.96172                     413.31190                      74.78329
                    -572.53637                   -1405.01140                    1963.49656
                    -375.51041                   -1148.30818                    1085.25059
                    -188.67024                    -589.08808                    -459.56858
                    -112.22188                    -144.37705                   -1136.62491
                     -63.84977                     559.45084                   -1711.51931
                      64.08676                    2332.71322                   -3369.57775
                     217.66522                    4957.49757                   -5330.78604
                     -35.49660                    -320.42459                     271.32709
                    -269.68443                   -6202.67948                    6117.49250
                    -135.66833                   -5708.64820                    5564.06368
                    -232.64691                   -1211.37795                     802.00110
                    -160.46556                      39.12172                    -418.72805
        </DataArray>
      </PointData>
    </Piece>
  </PolyData>
</VTKFile>
