<?xml version="1.0"?>
<VTKFile type="PolyData" version="0.1" byte_order="LittleEndian">
  <PolyData>
    <Piece NumberOfPoints="     19" NumberOfVerts="  0" NumberOfLines="     18"
           NumberOfStrips="  0" NumberOfPolys="      0">
      <Points>
        <DataArray type="Float32" NumberOfComponents="3" format="ascii">
                       3.25947                      -2.87322                      91.84385
                       3.34200                      -5.98261                      93.69108
                       3.43197                      -9.09362                      95.53523
                       3.53232                     -12.20678                      97.37520
                       3.64560                     -15.32238                      99.21027
                       3.77447                     -18.44058                     101.03990
                       3.92198                     -21.56146                     102.86352
                       4.09171                     -24.68506                     104.68053
                       4.28781                     -27.81133                     106.49026
                       4.51474                     -30.94006                     108.29211
                       4.77694                     -34.07085                     110.08554
                       5.07822                     -37.20313                     111.87022
                       5.42099                     -40.33615                     113.64609
                       5.80533                     -43.46916                     115.41347
                       6.22782                     -46.60154                     117.17333
                       6.68026                     -49.73300                     118.92744
                       7.14814                     -52.86385                     120.67864
                       7.38368                     -54.42921                     121.55394
                       3.21965                      -1.31885                      90.91962
        </DataArray>
      </Points>
      <PointData>
        <DataArray type="Float32" Name="TranslationalVelocity" NumberOfComponents="3" format="ascii">
                      -0.37887                      -1.62071                      -2.61426
                      -0.74568                      -3.33636                      -5.48577
                      -1.10858                      -5.04853                      -8.35644
                      -1.46622                      -6.75624                     -11.22631
                      -1.81754                      -8.45888                     -14.09541
                      -2.16198                     -10.15610                     -16.96371
                      -2.49949                     -11.84762                     -19.83121
                      -2.83059                     -13.53315                     -22.69789
                      -3.15636                     -15.21248                     -25.56360
                      -3.47842                     -16.88549                     -28.42805
                      -3.79878                     -18.55218                     -31.29074
                      -4.11972                     -20.21277                     -34.15104
                      -4.44354                     -21.86773                     -37.00821
                      -4.77238                     -23.51773                     -39.86156
                      -5.10786                     -25.16376                     -42.71075
                      -5.45079                     -26.80712                     -45.55600
                      -5.80076                     -28.44936                     -48.39851
                      -5.97736                     -29.27040                     -49.81931
                      -0.19468                      -0.76217                      -1.17829
        </DataArray>
        <DataArray type="Float32" Name="RotationalVelocity" NumberOfComponents="3" format="ascii">
                       0.92384                      -0.00063                      -0.11812
                       0.92317                      -0.00017                      -0.11733
                       0.92231                       0.00050                      -0.11617
                       0.92133                       0.00135                      -0.11469
                       0.92029                       0.00233                      -0.11301
                       0.91919                       0.00335                      -0.11125
                       0.91807                       0.00434                      -0.10954
                       0.91691                       0.00521                      -0.10802
                       0.91571                       0.00589                      -0.10683
                       0.91448                       0.00630                      -0.10609
                       0.91322                       0.00639                      -0.10588
                       0.91196                       0.00614                      -0.10625
                       0.91074                       0.00555                      -0.10719
                       0.90960                       0.00468                      -0.10861
                       0.90862                       0.00361                      -0.11036
                       0.90789                       0.00250                      -0.11219
                       0.90752                       0.00157                      -0.11374
                       0.90744                       0.00119                      -0.11438
                       0.92411                      -0.00080                      -0.11842
        </DataArray>
        <DataArray type="Float32" Name="TranslationalAcceleration" NumberOfComponents="3" format="ascii">
                      -1.50719                       2.47320                      -1.49606
                      -1.74576                       5.13472                      -3.13537
                      -2.00842                       7.77725                      -4.79436
                      -2.30371                      10.39665                      -6.47698
                      -2.63766                      12.99039                      -8.18545
                      -3.00844                      15.55623                      -9.92228
                      -3.40313                      18.09203                     -11.69104
                      -3.79580                      20.59579                     -13.49694
                      -4.14731                      23.06591                     -15.34692
                      -4.40708                      25.50205                     -17.24934
                      -4.51679                      27.90601                     -19.21329
                      -4.41606                      30.28255                     -21.24762
                      -4.05006                      32.63943                     -23.35984
                      -3.37909                      34.98655                     -25.55446
                      -2.39001                      37.33402                     -27.83025
                      -1.10950                      39.68921                     -30.17667
                       0.38065                      42.05295                     -32.57023
                       1.16394                      43.23654                     -33.77495
                      -1.39291                       1.13837                      -0.68063
        </DataArray>
        <DataArray type="Float32" Name="RotationalAcceleration" NumberOfComponents="3" format="ascii">
                       0.01460                      -0.01404                      -0.00052
                       0.02137                      -0.01682                      -0.00548
                       0.03046                      -0.02074                      -0.01244
                       0.04068                      -0.02592                      -0.02158
                       0.05179                      -0.03153                      -0.03148
                       0.06399                      -0.03618                      -0.03981
                       0.07760                      -0.03811                      -0.04362
                       0.09304                      -0.03538                      -0.03969
                       0.11059                      -0.02618                      -0.02495
                       0.13022                      -0.00906                       0.00300
                       0.15158                       0.01673                       0.04545
                       0.17395                       0.05103                       0.10215
                       0.19635                       0.09242                       0.17078
                       0.21757                       0.13801                       0.24652
                       0.23592                       0.18314                       0.32161
                       0.24940                       0.22112                       0.38487
                       0.25582                       0.24291                       0.42122
                       0.25698                       0.24847                       0.43052
                       0.01202                      -0.01285                       0.00160
        </DataArray>
        <DataArray type="Float32" Name="OrientationX" NumberOfComponents="3" format="ascii">
                       0.94199                      -0.15338                      -0.29853
                       0.94195                      -0.15186                      -0.29943
                       0.94189                      -0.14949                      -0.30084
                       0.94616                      -0.13996                      -0.29187
                       0.95556                      -0.12111                      -0.26876
                       0.96041                      -0.10807                      -0.25676
                       0.96496                      -0.09411                      -0.24495
                       0.96935                      -0.07868                      -0.23274
                       0.97334                      -0.06207                      -0.22082
                       0.97665                      -0.04477                      -0.21012
                       0.97941                      -0.02660                      -0.20013
                       0.98150                      -0.00814                      -0.19131
                       0.98262                       0.00896                      -0.18544
                       0.98324                       0.02490                      -0.18063
                       0.98378                       0.03950                      -0.17500
                       0.98446                       0.05139                      -0.16792
                       0.98516                       0.05689                      -0.16193
                       0.98552                       0.05756                      -0.15951
                       0.94201                      -0.15388                      -0.29823
        </DataArray>
        <DataArray type="Float32" Name="OrientationY" NumberOfComponents="3" format="ascii">
                       0.33491                       0.48789                       0.80610
                       0.33491                       0.48773                       0.80620
                       0.33492                       0.48751                       0.80633
                       0.32236                       0.48919                       0.81042
                       0.29290                       0.49297                       0.81926
                       0.27598                       0.49472                       0.82407
                       0.25877                       0.49626                       0.82871
                       0.24049                       0.49764                       0.83338
                       0.22189                       0.49874                       0.83787
                       0.20404                       0.49949                       0.84195
                       0.18641                       0.49992                       0.84578
                       0.16968                       0.50002                       0.84923
                       0.15621                       0.49984                       0.85191
                       0.14428                       0.49949                       0.85422
                       0.13232                       0.49898                       0.85645
                       0.12043                       0.49835                       0.85857
                       0.11259                       0.49788                       0.85991
                       0.11017                       0.49774                       0.86030
                       0.33491                       0.48795                       0.80607
        </DataArray>
        <DataArray type="Float32" Name="OrientationZ" NumberOfComponents="3" format="ascii">
                       0.02201                      -0.85933                       0.51095
                       0.02361                      -0.85968                       0.51028
                       0.02613                      -0.86022                       0.50925
                       0.02935                      -0.86087                       0.50797
                       0.03327                      -0.86158                       0.50654
                       0.03797                      -0.86230                       0.50496
                       0.04357                      -0.86306                       0.50322
                       0.05025                      -0.86381                       0.50131
                       0.05812                      -0.86453                       0.49921
                       0.06725                      -0.86516                       0.49696
                       0.07755                      -0.86566                       0.49458
                       0.08875                      -0.86598                       0.49215
                       0.10032                      -0.86607                       0.48975
                       0.11150                      -0.86596                       0.48752
                       0.12115                      -0.86571                       0.48566
                       0.12780                      -0.86545                       0.48441
                       0.12954                      -0.86538                       0.48408
                       0.12892                      -0.86541                       0.48419
                       0.02148                      -0.85920                       0.51119
        </DataArray>
      </PointData>
      <Lines>
        <DataArray type="Int32" Name="connectivity" format="ascii">
      0      1
      1      2
      2      3
      3      4
      4      5
      5      6
      6      7
      7      8
      8      9
      9     10
     10     11
     11     12
     12     13
     13     14
     14     15
     15     16
     16     17
     18      0
        </DataArray>
        <DataArray type="Int32" Name="offsets" format="ascii">
      2
      4
      6
      8
     10
     12
     14
     16
     18
     20
     22
     24
     26
     28
     30
     32
     34
     36
        </DataArray>
      </Lines>
    </Piece>
  </PolyData>
</VTKFile>
