<?xml version="1.0"?>
<VTKFile type="PolyData" version="0.1" byte_order="LittleEndian">
  <PolyData>
    <Piece NumberOfPoints="     19" NumberOfVerts="  0" NumberOfLines="     18"
           NumberOfStrips="  0" NumberOfPolys="      0">
      <Points>
        <DataArray type="Float32" NumberOfComponents="3" format="ascii">
                       3.13972                      -0.65544                      91.47616
                       3.23021                      -1.24504                      92.70582
                       3.38487                      -2.50957                      95.12632
                       3.52999                      -3.81541                      97.52781
                       3.71068                      -5.47387                     100.51726
                       4.00004                      -7.33922                     104.15837
                       4.33729                      -9.09194                     107.84943
                       4.69350                     -10.84684                     111.53769
                       5.07610                     -12.60260                     115.22293
                       5.49010                     -14.36103                     118.90351
                       5.93628                     -16.12486                     122.57775
                       6.42548                     -17.89284                     126.24452
                       6.96267                     -19.66421                     129.90295
                       7.55009                     -21.43799                     133.55250
                       8.18777                     -23.21316                     137.19296
                       8.75106                     -24.69284                     140.22082
                       9.21764                     -25.86944                     142.64360
                       9.68998                     -26.99664                     145.08990
                       9.92328                     -27.59767                     146.29488
        </DataArray>
      </Points>
      <PointData>
        <DataArray type="Float32" Name="Force" NumberOfComponents="3" format="ascii">
                       0.18583                       3.20799                       1.51404
                      70.09778                      23.68289                       6.07012
                      88.79050                      55.35068                      19.65897
                      80.14810                      72.26326                      28.24127
                     674.76777                    -263.30669                    -179.45378
                     875.07682                    -298.17749                    -215.85489
                     979.36372                    -269.32907                    -216.04143
                    1209.55296                    -272.41957                    -245.86752
                    1229.29300                    -215.15137                    -230.05481
                    1319.95173                    -180.01359                    -235.18979
                    1513.24372                    -144.10758                    -257.19019
                    1528.15934                     -88.88713                    -252.59270
                    1612.08876                     -51.09840                    -268.91938
                    1458.79550                      -1.83007                    -243.02938
                    1261.04998                      35.78844                    -208.65455
                     898.86052                      53.76849                    -142.56376
                     903.40560                      64.14145                    -141.80775
                     821.79631                      51.88240                    -133.12825
                    1305.56425                      49.77539                    -226.68514
        </DataArray>
        <DataArray type="Float32" Name="Moment" NumberOfComponents="3" format="ascii">
                       0.00000                       0.00000                       0.00000
                       0.00000                       0.00000                       0.00000
                       0.00000                       0.00000                       0.00000
                       0.00000                       0.00000                       0.00000
                     -12.61923                      75.20235                    -157.79176
                     -30.05458                     170.22307                    -356.98407
                     -42.90449                     229.03969                    -480.02900
                     -65.43458                     326.40326                    -683.56007
                     -97.79916                     451.66290                    -944.99096
                    -120.11385                     508.97100                   -1063.67795
                    -143.15605                     551.72297                   -1151.43373
                    -168.04380                     587.04932                   -1223.22942
                    -149.57577                     474.39546                    -986.80232
                    -159.84160                     463.73228                    -962.94891
                    -164.59170                     443.14197                    -918.73863
                    -165.51175                     426.23015                    -882.79252
                    -145.55224                     367.59026                    -760.99463
                     -68.38999                     171.63879                    -355.27851
                     -75.76289                     190.57684                    -394.49998
        </DataArray>
        <DataArray type="Float32" Name="TranslationalVelocity" NumberOfComponents="3" format="ascii">
                       0.21174                      -1.29537                      -0.54508
                       0.15786                      -2.44176                      -1.09078
                       0.04073                      -4.69615                      -2.26108
                      -0.07851                      -6.93351                      -3.47056
                      -0.22463                      -9.72173                      -5.00882
                      -0.37513                     -13.13056                      -6.74374
                      -0.49770                     -16.59745                      -8.37939
                      -0.59945                     -20.07102                     -10.02288
                      -0.66914                     -23.55293                     -11.67507
                      -0.69094                     -27.04318                     -13.34065
                      -0.65354                     -30.53973                     -15.02423
                      -0.52953                     -34.04330                     -16.73047
                      -0.29770                     -37.55193                     -18.46363
                       0.05783                     -41.06262                     -20.22729
                       0.54190                     -44.57185                     -22.02322
                       1.03302                     -47.49342                     -23.54207
                       1.47460                     -49.83173                     -24.76237
                       1.94257                     -52.19256                     -25.94020
                       2.17396                     -53.35544                     -26.56483
        </DataArray>
        <DataArray type="Float32" Name="RotationalVelocity" NumberOfComponents="3" format="ascii">
                       0.92372                       0.01031                      -0.11349
                       0.92394                       0.01055                      -0.11339
                       0.92455                       0.01135                      -0.11305
                       0.92535                       0.01250                      -0.11257
                       0.92661                       0.01440                      -0.11175
                       0.92835                       0.01725                      -0.11052
                       0.93032                       0.02112                      -0.10883
                       0.93264                       0.02680                      -0.10629
                       0.93540                       0.03528                      -0.10246
                       0.93866                       0.04754                      -0.09686
                       0.94239                       0.06479                      -0.08892
                       0.94636                       0.08670                      -0.07878
                       0.95030                       0.11257                      -0.06675
                       0.95395                       0.14070                      -0.05362
                       0.95702                       0.16817                      -0.04077
                       0.95885                       0.18719                      -0.03185
                       0.95972                       0.19735                      -0.02707
                       0.96015                       0.20288                      -0.02447
                       0.96019                       0.20365                      -0.02411
        </DataArray>
        <DataArray type="Float32" Name="TranslationalAcceleration" NumberOfComponents="3" format="ascii">
                       0.30483                       0.63936                      -1.21998
                       0.15023                       1.22049                      -2.24326
                      -0.15690                       2.45035                      -4.25275
                      -0.47391                       3.70364                      -6.25311
                      -0.89482                       5.27388                      -8.76008
                      -1.44367                       7.02026                     -11.85435
                      -2.04914                       8.62897                     -15.02969
                      -2.74534                      10.20246                     -18.22927
                      -3.61728                      11.75238                     -21.44036
                      -4.79809                      13.29734                     -24.64005
                      -6.39948                      14.85466                     -27.80303
                      -8.65110                      16.43556                     -30.89120
                     -11.74741                      18.04378                     -33.86303
                     -15.84351                      19.67495                     -36.67877
                     -21.00590                      21.31877                     -39.30906
                     -26.05299                      22.69006                     -41.36251
                     -30.50850                      23.77689                     -42.92946
                     -35.15620                      24.81792                     -44.48716
                     -37.50757                      25.37306                     -45.24575
        </DataArray>
        <DataArray type="Float32" Name="OrientationX" NumberOfComponents="3" format="ascii">
                       0.95761                      -0.22614                      -0.17845
                       0.95758                      -0.22596                      -0.17881
                       0.95751                      -0.22547                      -0.17984
                       0.95740                      -0.22480                      -0.18125
                       0.95722                      -0.22368                      -0.18358
                       0.96538                      -0.19399                      -0.17438
                       0.97050                      -0.17161                      -0.16937
                       0.97439                      -0.15129                      -0.16639
                       0.97795                      -0.12935                      -0.16397
                       0.98098                      -0.10616                      -0.16253
                       0.98310                      -0.08324                      -0.16302
                       0.98452                      -0.05982                      -0.16476
                       0.98505                      -0.03768                      -0.16808
                       0.98467                      -0.01950                      -0.17336
                       0.98409                      -0.00203                      -0.17764
                       0.98377                       0.01154                      -0.17908
                       0.98377                       0.02070                      -0.17825
                       0.98385                       0.02531                      -0.17719
                       0.98392                       0.02514                      -0.17684
        </DataArray>
        <DataArray type="Float32" Name="OrientationY" NumberOfComponents="3" format="ascii">
                       0.28027                       0.87453                       0.39578
                       0.28027                       0.87452                       0.39581
                       0.28028                       0.87448                       0.39588
                       0.28028                       0.87444                       0.39598
                       0.28029                       0.87438                       0.39611
                       0.24964                       0.88095                       0.40200
                       0.22739                       0.88506                       0.40615
                       0.20787                       0.88821                       0.40972
                       0.18718                       0.89110                       0.41342
                       0.16582                       0.89358                       0.41716
                       0.14558                       0.89546                       0.42067
                       0.12548                       0.89685                       0.42416
                       0.10726                       0.89769                       0.42738
                       0.09347                       0.89803                       0.42989
                       0.07991                       0.89813                       0.43241
                       0.06857                       0.89804                       0.43453
                       0.06013                       0.89788                       0.43611
                       0.05560                       0.89777                       0.43695
                       0.05560                       0.89777                       0.43695
        </DataArray>
        <DataArray type="Float32" Name="OrientationZ" NumberOfComponents="3" format="ascii">
                       0.06656                      -0.42902                       0.90084
                       0.06694                      -0.42914                       0.90076
                       0.06801                      -0.42947                       0.90052
                       0.06947                      -0.42991                       0.90020
                       0.07192                      -0.43062                       0.89966
                       0.07563                      -0.43162                       0.89888
                       0.08021                      -0.43268                       0.89797
                       0.08580                      -0.43381                       0.89691
                       0.09264                      -0.43499                       0.89566
                       0.10094                      -0.43618                       0.89418
                       0.11096                      -0.43730                       0.89244
                       0.12239                      -0.43827                       0.89047
                       0.13478                      -0.43902                       0.88831
                       0.14730                      -0.43950                       0.88608
                       0.15867                      -0.43973                       0.88401
                       0.16584                      -0.43976                       0.88267
                       0.16908                      -0.43975                       0.88206
                       0.17013                      -0.43974                       0.88186
                       0.16975                      -0.43975                       0.88193
        </DataArray>
      </PointData>
      <Lines>
        <DataArray type="Int32" Name="connectivity" format="ascii">
      0      1
      1      2
      2      3
      3      4
      4      5
      5      6
      6      7
      7      8
      8      9
      9     10
     10     11
     11     12
     12     13
     13     14
     14     15
     15     16
     16     17
     17     18
        </DataArray>
        <DataArray type="Int32" Name="offsets" format="ascii">
      2
      4
      6
      8
     10
     12
     14
     16
     18
     20
     22
     24
     26
     28
     30
     32
     34
     36
        </DataArray>
      </Lines>
    </Piece>
  </PolyData>
</VTKFile>
