<?xml version="1.0"?>
<VTKFile type="PolyData" version="0.1" byte_order="LittleEndian">
  <PolyData>
    <Piece NumberOfPoints="     19" NumberOfVerts="  0" NumberOfLines="     18"
           NumberOfStrips="  0" NumberOfPolys="      0">
      <Points>
        <DataArray type="Float32" NumberOfComponents="3" format="ascii">
                       3.22594                      -1.28951                      90.96327
                       3.25983                      -2.44071                      91.69912
                       3.29623                      -4.79356                      93.09358
                       3.32081                      -7.17107                      94.45012
                       3.34969                     -10.15888                      96.12097
                       3.46516                     -13.67164                      98.23455
                       3.63644                     -17.11872                     100.44746
                       3.82801                     -20.56807                     102.65519
                       4.04762                     -24.01891                     104.85807
                       4.30046                     -27.47219                     107.05359
                       4.58711                     -30.92924                     109.23902
                       4.91891                     -34.38907                     111.41370
                       5.30097                     -37.85075                     113.57720
                       5.73554                     -41.31318                     115.72962
                       6.22241                     -44.77529                     117.87145
                       6.66123                     -47.65963                     119.64983
                       7.02917                     -49.96231                     121.07609
                       7.40577                     -52.23590                     122.54817
                       7.58889                     -53.39468                     123.24916
        </DataArray>
      </Points>
      <PointData>
        <DataArray type="Float32" Name="Force" NumberOfComponents="3" format="ascii">
                       0.59166                       2.99283                       4.62722
                      77.99976                      15.26208                      20.03574
                     100.86088                      35.38011                      50.04017
                      92.29381                      45.82417                      66.46899
                     674.44109                    -174.25876                    -310.23275
                     875.34021                    -192.95910                    -357.81050
                     998.83646                    -178.74169                    -353.29543
                    1277.23854                    -189.20559                    -405.26742
                    1376.89223                    -161.98089                    -390.78011
                    1586.34057                    -149.67196                    -419.47399
                    1962.81522                    -137.86030                    -484.98989
                    2244.77569                    -110.05053                    -532.07700
                    2673.82512                     -90.63441                    -637.47881
                    2951.37017                     -47.81391                    -696.32000
                    3220.86951                      -0.83175                    -753.06963
                    3388.05427                      39.02009                    -778.10951
                    3347.10970                      65.67904                    -747.29302
                    2465.31992                      58.97336                    -538.44751
                    1253.31237                      79.84769                    -193.00648
        </DataArray>
        <DataArray type="Float32" Name="Moment" NumberOfComponents="3" format="ascii">
                       0.00000                       0.00000                       0.00000
                       0.00000                       0.00000                       0.00000
                       0.00000                       0.00000                       0.00000
                       0.00000                       0.00000                       0.00000
                      -6.32596                     171.14029                    -109.88261
                     -15.90067                     380.72708                    -244.21655
                     -23.76676                     498.59294                    -319.44497
                     -38.05175                     693.57406                    -443.72985
                     -59.78264                     939.74336                    -600.17056
                     -77.15515                    1040.23297                    -662.94468
                     -95.72132                    1102.33995                    -700.74074
                    -116.88573                    1154.82914                    -731.98390
                    -115.16836                     986.47227                    -623.31229
                    -130.07413                     982.41405                    -618.78154
                    -139.94651                     954.71523                    -599.60394
                    -141.55883                     910.38266                    -570.72400
                    -129.21660                     810.26172                    -507.54513
                     -65.74451                     409.11959                    -256.20715
                     -57.62395                     359.79190                    -225.34093
        </DataArray>
        <DataArray type="Float32" Name="TranslationalVelocity" NumberOfComponents="3" format="ascii">
                      -0.14050                      -0.80194                      -1.14790
                      -0.27617                      -1.48521                      -2.21059
                      -0.55283                      -2.77648                      -4.38200
                      -0.83016                      -4.03051                      -6.57440
                      -1.17434                      -5.57354                      -9.32652
                      -1.57101                      -7.53207                     -12.55776
                      -1.94998                      -9.58472                     -15.72352
                      -2.31931                     -11.63079                     -18.88599
                      -2.68037                     -13.67117                     -22.04420
                      -3.03642                     -15.70393                     -25.19861
                      -3.39192                     -17.72701                     -28.35061
                      -3.75182                     -19.74074                     -31.49807
                      -4.12208                     -21.74575                     -34.63962
                      -4.50823                     -23.74320                     -37.77388
                      -4.91425                     -25.73465                     -40.89992
                      -5.26830                     -27.39117                     -43.49893
                      -5.56103                     -28.72135                     -45.57086
                      -5.85695                     -30.09396                     -47.61508
                      -6.00847                     -30.74807                     -48.65682
        </DataArray>
        <DataArray type="Float32" Name="RotationalVelocity" NumberOfComponents="3" format="ascii">
                       0.92336                       0.00047                      -0.11850
                       0.92310                       0.00062                      -0.11825
                       0.92248                       0.00101                      -0.11763
                       0.92173                       0.00150                      -0.11682
                       0.92063                       0.00230                      -0.11553
                       0.91916                       0.00348                      -0.11362
                       0.91758                       0.00475                      -0.11157
                       0.91590                       0.00594                      -0.10965
                       0.91412                       0.00685                      -0.10814
                       0.91222                       0.00730                      -0.10737
                       0.91019                       0.00702                      -0.10770
                       0.90810                       0.00600                      -0.10920
                       0.90599                       0.00422                      -0.11186
                       0.90398                       0.00183                      -0.11549
                       0.90220                      -0.00093                      -0.11970
                       0.90105                      -0.00317                      -0.12313
                       0.90043                      -0.00465                      -0.12540
                       0.90007                      -0.00580                      -0.12717
                       0.89999                      -0.00622                      -0.12781
        </DataArray>
        <DataArray type="Float32" Name="TranslationalAcceleration" NumberOfComponents="3" format="ascii">
                      -1.49853                       0.99890                      -0.93605
                      -1.61825                       1.97862                      -1.59200
                      -1.84405                       3.98123                      -2.83928
                      -2.06145                       5.99868                      -4.05983
                      -2.32423                       8.52180                      -5.57560
                      -2.64959                      11.46245                      -7.50548
                      -2.97656                      14.31601                      -9.53924
                      -3.27716                      17.14267                     -11.59102
                      -3.53325                      19.94079                     -13.66479
                      -3.71786                      22.71115                     -15.76325
                      -3.81002                      25.45907                     -17.88566
                      -3.76556                      28.18373                     -20.04116
                      -3.54906                      30.88997                     -22.23555
                      -3.13373                      33.58460                     -24.47372
                      -2.51067                      36.27554                     -26.75777
                      -1.84913                      38.51955                     -28.69303
                      -1.24318                      40.31302                     -30.26357
                      -0.61144                      42.07823                     -31.87601
                      -0.28636                      42.98263                     -32.65650
        </DataArray>
        <DataArray type="Float32" Name="OrientationX" NumberOfComponents="3" format="ascii">
                       0.94270                      -0.15994                      -0.29281
                       0.94269                      -0.15957                      -0.29304
                       0.94266                      -0.15852                      -0.29372
                       0.94261                      -0.15710                      -0.29463
                       0.94253                      -0.15472                      -0.29615
                       0.95252                      -0.13459                      -0.27311
                       0.95903                      -0.11822                      -0.25745
                       0.96421                      -0.10240                      -0.24458
                       0.96916                      -0.08484                      -0.23136
                       0.97366                      -0.06565                      -0.21833
                       0.97726                      -0.04557                      -0.20708
                       0.98018                      -0.02435                      -0.19661
                       0.98214                      -0.00334                      -0.18812
                       0.98293                       0.01535                      -0.18334
                       0.98348                       0.03283                      -0.17801
                       0.98402                       0.04532                      -0.17221
                       0.98459                       0.05270                      -0.16672
                       0.98497                       0.05601                      -0.16337
                       0.98503                       0.05562                      -0.16314
        </DataArray>
        <DataArray type="Float32" Name="OrientationY" NumberOfComponents="3" format="ascii">
                       0.33268                       0.51706                       0.78865
                       0.33268                       0.51700                       0.78869
                       0.33269                       0.51686                       0.78878
                       0.33269                       0.51670                       0.78889
                       0.33270                       0.51645                       0.78904
                       0.30248                       0.52072                       0.79834
                       0.28051                       0.52326                       0.80468
                       0.26122                       0.52511                       0.80995
                       0.24073                       0.52674                       0.81523
                       0.21955                       0.52804                       0.82035
                       0.19946                       0.52889                       0.82492
                       0.17948                       0.52933                       0.82921
                       0.16135                       0.52934                       0.83293
                       0.14761                       0.52904                       0.83566
                       0.13408                       0.52852                       0.83826
                       0.12275                       0.52796                       0.84035
                       0.11431                       0.52747                       0.84185
                       0.10979                       0.52719                       0.84262
                       0.10978                       0.52719                       0.84262
        </DataArray>
        <DataArray type="Float32" Name="OrientationZ" NumberOfComponents="3" format="ascii">
                       0.02526                      -0.84088                       0.54064
                       0.02566                      -0.84098                       0.54046
                       0.02677                      -0.84126                       0.53996
                       0.02830                      -0.84163                       0.53931
                       0.03086                      -0.84223                       0.53824
                       0.03476                      -0.84305                       0.53671
                       0.03959                      -0.84393                       0.53499
                       0.04549                      -0.84485                       0.53307
                       0.05270                      -0.84578                       0.53092
                       0.06143                      -0.84668                       0.52855
                       0.07193                      -0.84746                       0.52596
                       0.08388                      -0.84806                       0.52321
                       0.09680                      -0.84840                       0.52043
                       0.10982                      -0.84846                       0.51774
                       0.12161                      -0.84828                       0.51539
                       0.12900                      -0.84806                       0.51396
                       0.13231                      -0.84794                       0.51332
                       0.13332                      -0.84790                       0.51312
                       0.13287                      -0.84792                       0.51320
        </DataArray>
      </PointData>
      <Lines>
        <DataArray type="Int32" Name="connectivity" format="ascii">
      0      1
      1      2
      2      3
      3      4
      4      5
      5      6
      6      7
      7      8
      8      9
      9     10
     10     11
     11     12
     12     13
     13     14
     14     15
     15     16
     16     17
     17     18
        </DataArray>
        <DataArray type="Int32" Name="offsets" format="ascii">
      2
      4
      6
      8
     10
     12
     14
     16
     18
     20
     22
     24
     26
     28
     30
     32
     34
     36
        </DataArray>
      </Lines>
    </Piece>
  </PolyData>
</VTKFile>
