<?xml version="1.0"?>
<VTKFile type="PolyData" version="0.1" byte_order="LittleEndian">
  <PolyData>
    <Piece NumberOfPoints="     17" NumberOfVerts="  0" NumberOfLines="      0"
           NumberOfStrips="  0" NumberOfPolys="      0">
      <Points>
        <DataArray type="Float32" NumberOfComponents="3" format="ascii">
                       2.75216                       3.18475                      89.27012
                       2.48370                       6.67077                      88.34117
                       2.21979                      10.15656                      87.41006
                       1.96215                      13.64211                      86.47628
                       1.71218                      17.12741                      85.53949
                       1.47117                      20.61245                      84.59941
                       1.24055                      24.09726                      83.65590
                       1.02195                      27.58190                      82.70889
                       0.81719                      31.06642                      81.75834
                       0.62820                      34.55083                      80.80417
                       0.45682                      38.03514                      79.84629
                       0.30458                      41.51929                      78.88463
                       0.17231                      45.00319                      77.91914
                       0.05973                      48.48676                      76.94994
                      -0.03505                      51.96993                      75.97739
                      -0.11615                      55.45272                      75.00219
                      -0.19057                      58.93527                      74.02561
        </DataArray>
      </Points>
      <PointData>
        <DataArray type="Float32" Name="Force" NumberOfComponents="3" format="ascii">
                     153.49548                      -6.63803                     -69.59382
                     499.91997                     -26.32386                    -240.98617
                    2028.64916                     258.07329                     406.31463
                    3528.49806                     471.64079                     816.49624
                    2127.60178                     261.76839                     422.91895
                    4454.05432                     484.24598                     685.93095
                    5148.14541                     482.77611                     568.58350
                    5396.70542                     428.83821                     387.06799
                    5436.36681                     362.58503                     221.12576
                    6373.13551                     343.52516                      73.05612
                    6634.48692                     271.02815                    -106.80624
                    6846.89010                     196.17959                    -265.92700
                    3548.44629                      67.98540                    -202.82800
                    6234.17934                      55.75158                    -487.39451
                    5107.52540                     -16.11294                    -534.16808
                    6869.04915                     -89.36892                    -869.94109
                    3555.44675                     -53.74691                    -463.62560
        </DataArray>
        <DataArray type="Float32" Name="Moment" NumberOfComponents="3" format="ascii">
                     -19.30996                      -1.53942                     -16.46992
                      67.66461                     -29.70963                    -364.17062
                     568.58001                    -166.04873                   -2140.16224
                     652.33386                      66.91955                   -2964.85647
                      -3.47782                     307.61216                    -304.88568
                    -523.60875                     944.99116                    2035.28705
                    -302.84753                     305.72179                    1477.90381
                     -90.93088                    -746.49317                     485.32150
                     -25.60650                   -1164.74036                     -22.75825
                     -27.78262                   -1468.27629                    -491.45509
                     -42.23626                   -2014.50751                   -1849.92821
                    -151.84834                   -2099.98667                   -3610.12123
                      14.60545                    -424.16328                     451.14271
                     291.80683                     145.15653                    4749.89811
                     336.17950                    -141.98779                    3784.65463
                      -0.80045                   -1704.04093                     479.00512
                     -84.70328                    -791.18445                    -540.40703
        </DataArray>
      </PointData>
    </Piece>
  </PolyData>
</VTKFile>
