<?xml version="1.0"?>
<VTKFile type="PolyData" version="0.1" byte_order="LittleEndian">
  <PolyData>
    <Piece NumberOfPoints="     19" NumberOfVerts="  0" NumberOfLines="     18"
           NumberOfStrips="  0" NumberOfPolys="      0">
      <Points>
        <DataArray type="Float32" NumberOfComponents="3" format="ascii">
                       2.44649                      -1.17380                      89.16310
                       2.28581                      -2.20793                      88.28411
                       1.93517                      -4.21340                      86.45740
                       1.57376                      -6.18812                      84.59649
                       1.12092                      -8.63661                      82.24730
                       0.65550                     -11.66587                      79.52236
                       0.24364                     -14.77628                      76.88370
                      -0.14700                     -17.88364                      74.23821
                      -0.50805                     -20.98895                      71.58601
                      -0.83333                     -24.09072                      68.92498
                      -1.12145                     -27.18690                      66.25312
                      -1.35952                     -30.27779                      63.57015
                      -1.54116                     -33.36331                      60.87653
                      -1.66314                     -36.44349                      58.17335
                      -1.72530                     -39.51850                      55.46214
                      -1.73887                     -42.07777                      53.19840
                      -1.73026                     -44.12881                      51.39143
                      -1.71314                     -46.21615                      49.62482
                      -1.70868                     -47.23204                      48.71068
        </DataArray>
      </Points>
      <PointData>
        <DataArray type="Float32" Name="Force" NumberOfComponents="3" format="ascii">
                       0.41704                      -3.15187                       3.65266
                      69.33283                     -23.66691                      15.37356
                      97.88691                     -51.36772                      43.11699
                      91.83685                     -62.83191                      57.98383
                     747.00115                     187.13943                    -350.55697
                     987.68640                     214.99557                    -418.43067
                    1153.38778                     207.47584                    -427.46457
                    1488.93713                     229.66179                    -491.44309
                    1622.66789                     214.37348                    -472.75095
                    1884.51357                     226.05000                    -493.09768
                    2332.97963                     259.60394                    -543.27111
                    2688.66165                     291.05366                    -559.48293
                    3169.57238                     356.99493                    -602.80257
                    3496.92219                     403.86674                    -595.34083
                    3800.12609                     448.91146                    -578.24163
                    3993.26938                     470.28028                    -552.51008
                    3940.19203                     449.91738                    -504.75943
                    2894.75072                     319.18250                    -351.67855
                    1320.62890                      67.59591                     -70.93456
        </DataArray>
        <DataArray type="Float32" Name="Moment" NumberOfComponents="3" format="ascii">
                       0.00000                       0.00000                       0.00000
                       0.00000                       0.00000                       0.00000
                       0.00000                       0.00000                       0.00000
                       0.00000                       0.00000                       0.00000
                      23.72322                     161.85570                     136.95592
                      46.99494                     333.14609                     282.10455
                      59.78567                     445.36721                     377.47924
                      78.57873                     624.51931                     529.92303
                      97.48618                     844.43441                     717.52797
                      97.61867                     949.94996                     808.56169
                      86.80725                     993.89017                     847.71186
                      73.21985                    1051.21562                     898.72903
                      47.70608                     946.86673                     811.59989
                      29.26258                     949.64090                     816.09947
                      12.00793                     927.55285                     799.00982
                       1.41814                     888.00859                     766.09635
                      -2.84663                     792.33905                     684.03050
                      -2.14204                     399.89538                     345.31233
                      -1.63009                     339.12792                     292.81793
        </DataArray>
        <DataArray type="Float32" Name="TranslationalVelocity" NumberOfComponents="3" format="ascii">
                      -0.17865                       0.88972                      -1.05195
                      -0.28610                       1.72252                      -2.01210
                      -0.49406                       3.45546                      -3.87464
                      -0.69814                       5.22278                      -5.71020
                      -0.94980                       7.45619                      -7.98890
                      -1.25898                      10.04488                     -10.81268
                      -1.57309                      12.55247                     -13.71815
                      -1.88281                      15.06913                     -16.62709
                      -2.18919                      17.59365                     -19.53994
                      -2.49438                      20.12698                     -22.45444
                      -2.80108                      22.66996                     -25.36727
                      -3.11363                      25.22132                     -28.27802
                      -3.43681                      27.77924                     -31.18565
                      -3.77510                      30.34151                     -34.08950
                      -4.13171                      32.90578                     -36.98930
                      -4.44309                      35.04279                     -39.40318
                      -4.70169                      36.74630                     -41.33789
                      -4.97012                      38.41055                     -43.30677
                      -5.10208                      39.27220                     -44.26494
        </DataArray>
        <DataArray type="Float32" Name="RotationalVelocity" NumberOfComponents="3" format="ascii">
                       0.92788                      -0.00188                      -0.10559
                       0.92816                      -0.00195                      -0.10556
                       0.92884                      -0.00213                      -0.10547
                       0.92969                      -0.00237                      -0.10534
                       0.93100                      -0.00279                      -0.10508
                       0.93282                      -0.00348                      -0.10460
                       0.93475                      -0.00428                      -0.10400
                       0.93663                      -0.00503                      -0.10346
                       0.93835                      -0.00554                      -0.10318
                       0.93983                      -0.00561                      -0.10337
                       0.94101                      -0.00499                      -0.10432
                       0.94189                      -0.00364                      -0.10607
                       0.94251                      -0.00157                      -0.10863
                       0.94291                       0.00109                      -0.11185
                       0.94311                       0.00407                      -0.11542
                       0.94316                       0.00645                      -0.11824
                       0.94312                       0.00800                      -0.12006
                       0.94304                       0.00917                      -0.12144
                       0.94298                       0.00959                      -0.12192
        </DataArray>
        <DataArray type="Float32" Name="TranslationalAcceleration" NumberOfComponents="3" format="ascii">
                       1.21382                       0.99189                       1.06877
                       1.25765                       1.90745                       1.83458
                       1.35242                       3.68325                       3.43312
                       1.46207                       5.42778                       5.07054
                       1.62617                       7.58249                       7.14976
                       1.86518                      10.23634                       9.57127
                       2.16176                      12.95085                      11.93555
                       2.52404                      15.65161                      14.32986
                       2.95039                      18.33952                      16.75408
                       3.43296                      21.01305                      19.21045
                       3.95503                      23.67135                      21.69857
                       4.50404                      26.31370                      24.22096
                       5.05856                      28.94067                      26.77639
                       5.59609                      31.55331                      29.36187
                       6.09615                      34.15326                      31.97238
                       6.47486                      36.31218                      34.16184
                       6.74853                      38.04054                      35.91500
                       6.99449                      39.80344                      37.63694
                       7.11469                      40.65720                      38.52419
        </DataArray>
        <DataArray type="Float32" Name="OrientationX" NumberOfComponents="3" format="ascii">
                       0.94298                       0.11755                      -0.31140
                       0.94304                       0.11790                      -0.31110
                       0.94319                       0.11889                      -0.31026
                       0.94339                       0.12025                      -0.30912
                       0.94373                       0.12249                      -0.30721
                       0.95367                       0.10533                      -0.28182
                       0.96045                       0.09455                      -0.26190
                       0.96612                       0.08651                      -0.24317
                       0.97173                       0.07879                      -0.22256
                       0.97710                       0.07191                      -0.20026
                       0.98184                       0.06731                      -0.17739
                       0.98608                       0.06404                      -0.15344
                       0.98951                       0.06288                      -0.13005
                       0.99184                       0.06479                      -0.10979
                       0.99371                       0.06582                      -0.09055
                       0.99499                       0.06461                      -0.07627
                       0.99582                       0.06183                      -0.06728
                       0.99622                       0.05977                      -0.06298
                       0.99622                       0.05946                      -0.06326
        </DataArray>
        <DataArray type="Float32" Name="OrientationY" NumberOfComponents="3" format="ascii">
                       0.31155                      -0.64103                       0.70145
                       0.31153                      -0.64112                       0.70136
                       0.31149                      -0.64136                       0.70116
                       0.31145                      -0.64166                       0.70091
                       0.31139                      -0.64209                       0.70054
                       0.28103                      -0.64633                       0.70942
                       0.25893                      -0.64926                       0.71513
                       0.23950                      -0.65172                       0.71966
                       0.21887                      -0.65409                       0.72406
                       0.19755                      -0.65632                       0.72816
                       0.17730                      -0.65827                       0.73160
                       0.15717                      -0.66009                       0.73456
                       0.13889                      -0.66169                       0.73680
                       0.12502                      -0.66295                       0.73815
                       0.11136                      -0.66415                       0.73926
                       0.09991                      -0.66509                       0.74005
                       0.09137                      -0.66573                       0.74058
                       0.08679                      -0.66605                       0.74084
                       0.08679                      -0.66605                       0.74084
        </DataArray>
        <DataArray type="Float32" Name="OrientationZ" NumberOfComponents="3" format="ascii">
                      -0.11715                      -0.75846                      -0.64110
                      -0.11676                      -0.75833                      -0.64133
                      -0.11563                      -0.75797                      -0.64196
                      -0.11406                      -0.75751                      -0.64278
                      -0.11144                      -0.75678                      -0.64410
                      -0.10743                      -0.75576                      -0.64598
                      -0.10243                      -0.75466                      -0.64807
                      -0.09622                      -0.75351                      -0.65035
                      -0.08853                      -0.75231                      -0.65284
                      -0.07907                      -0.75105                      -0.65549
                      -0.06753                      -0.74976                      -0.65825
                      -0.05424                      -0.74845                      -0.66097
                      -0.03972                      -0.74714                      -0.66348
                      -0.02496                      -0.74585                      -0.66564
                      -0.01148                      -0.74469                      -0.66731
                      -0.00291                      -0.74396                      -0.66821
                       0.00100                      -0.74363                      -0.66859
                       0.00233                      -0.74351                      -0.66872
                       0.00192                      -0.74353                      -0.66870
        </DataArray>
      </PointData>
      <Lines>
        <DataArray type="Int32" Name="connectivity" format="ascii">
      0      1
      1      2
      2      3
      3      4
      4      5
      5      6
      6      7
      7      8
      8      9
      9     10
     10     11
     11     12
     12     13
     13     14
     14     15
     15     16
     16     17
     17     18
        </DataArray>
        <DataArray type="Int32" Name="offsets" format="ascii">
      2
      4
      6
      8
     10
     12
     14
     16
     18
     20
     22
     24
     26
     28
     30
     32
     34
     36
        </DataArray>
      </Lines>
    </Piece>
  </PolyData>
</VTKFile>
