<?xml version="1.0"?>
<VTKFile type="PolyData" version="0.1" byte_order="LittleEndian">
  <PolyData>
    <Piece NumberOfPoints="     19" NumberOfVerts="  0" NumberOfLines="     18"
           NumberOfStrips="  0" NumberOfPolys="      0">
      <Points>
        <DataArray type="Float32" NumberOfComponents="3" format="ascii">
                       2.59607                      -3.25405                      89.47971
                       2.35673                      -6.79109                      88.75901
                       2.12525                     -10.32764                      88.03335
                       1.90479                     -13.86353                      87.30110
                       1.69814                     -17.39866                      86.56123
                       1.50835                     -20.93298                      85.81300
                       1.33913                     -24.46641                      85.05571
                       1.19501                     -27.99882                      84.28862
                       1.08135                     -31.53004                      83.51102
                       1.00414                     -35.05977                      82.72235
                       0.96942                     -38.58760                      81.92228
                       0.98261                     -42.11297                      81.11087
                       1.04741                     -45.63527                      80.28862
                       1.16466                     -49.15392                      79.45652
                       1.33073                     -52.66871                      78.61616
                       1.53584                     -56.18007                      77.76981
                       1.76207                     -59.68945                      76.92043
                       1.87764                     -61.44391                      76.49539
                       2.71726                      -1.48543                      89.83906
        </DataArray>
      </Points>
      <PointData>
        <DataArray type="Float32" Name="TranslationalVelocity" NumberOfComponents="3" format="ascii">
                      -0.95550                       0.61646                      -3.02027
                      -1.33314                       1.30535                      -6.27578
                      -1.71186                       1.99772                      -9.52927
                      -2.09213                       2.69464                     -12.78012
                      -2.47440                       3.39672                     -16.02791
                      -2.85926                       4.10424                     -19.27236
                      -3.24753                       4.81740                     -22.51317
                      -3.64031                       5.53631                     -25.74997
                      -4.03897                       6.26092                     -28.98234
                      -4.44512                       6.99091                     -32.20979
                      -4.86041                       7.72566                     -35.43175
                      -5.28641                       8.46423                     -38.64767
                      -5.72430                       9.20536                     -41.85708
                      -6.17458                       9.94773                     -45.05974
                      -6.63668                      10.69012                     -48.25591
                      -7.10857                      11.43174                     -51.44676
                      -7.58621                      12.17266                     -54.63464
                      -7.82583                      12.54301                     -56.22821
                      -0.76688                       0.27272                      -1.39209
        </DataArray>
        <DataArray type="Float32" Name="RotationalVelocity" NumberOfComponents="3" format="ascii">
                       0.91954                      -0.01531                      -0.10976
                       0.91921                      -0.01524                      -0.11000
                       0.91873                      -0.01513                      -0.11040
                       0.91816                      -0.01498                      -0.11092
                       0.91753                      -0.01480                      -0.11158
                       0.91686                      -0.01459                      -0.11243
                       0.91613                      -0.01431                      -0.11353
                       0.91535                      -0.01396                      -0.11499
                       0.91451                      -0.01353                      -0.11685
                       0.91364                      -0.01299                      -0.11918
                       0.91274                      -0.01237                      -0.12197
                       0.91184                      -0.01166                      -0.12515
                       0.91098                      -0.01090                      -0.12860
                       0.91020                      -0.01014                      -0.13207
                       0.90957                      -0.00946                      -0.13521
                       0.90913                      -0.00896                      -0.13754
                       0.90898                      -0.00877                      -0.13842
                       0.90898                      -0.00877                      -0.13841
                       0.91966                      -0.01534                      -0.10969
        </DataArray>
        <DataArray type="Float32" Name="TranslationalAcceleration" NumberOfComponents="3" format="ascii">
                       0.62168                       2.53304                       0.60195
                       0.74665                       5.60295                       1.05605
                       0.88814                       8.66675                       1.52457
                       1.05227                      11.72293                       2.01054
                       1.24360                      14.77063                       2.51561
                       1.46200                      17.80948                       3.04156
                       1.70051                      20.83934                       3.59103
                       1.94427                      23.86007                       4.16763
                       2.17023                      26.87132                       4.77569
                       2.34819                      29.87210                       5.41957
                       2.44293                      32.86041                       6.10281
                       2.41748                      35.83296                       6.82720
                       2.23772                      38.78522                       7.59229
                       1.87815                      41.71224                       8.39520
                       1.32889                      44.61054                       9.23056
                       0.60393                      47.48107                      10.09076
                      -0.24943                      50.33249                      10.96659
                      -0.69989                      51.75507                      11.40719
                       0.56259                       0.99680                       0.37798
        </DataArray>
        <DataArray type="Float32" Name="RotationalAcceleration" NumberOfComponents="3" format="ascii">
                       0.05351                       0.04467                       0.00705
                       0.05060                       0.04412                       0.01076
                       0.04675                       0.04331                       0.01608
                       0.04254                       0.04217                       0.02310
                       0.03797                       0.04091                       0.03090
                       0.03281                       0.03985                       0.03786
                       0.02679                       0.03944                       0.04192
                       0.01958                       0.04016                       0.04085
                       0.01097                       0.04245                       0.03250
                       0.00091                       0.04665                       0.01518
                      -0.01041                       0.05296                      -0.01207
                      -0.02257                       0.06133                      -0.04917
                      -0.03502                       0.07140                      -0.09463
                      -0.04702                       0.08249                      -0.14524
                      -0.05758                       0.09349                      -0.19585
                      -0.06548                       0.10277                      -0.23895
                      -0.06941                       0.10820                      -0.26439
                      -0.07022                       0.10965                      -0.27125
                       0.05461                       0.04491                       0.00551
        </DataArray>
        <DataArray type="Float32" Name="OrientationX" NumberOfComponents="3" format="ascii">
                       0.93771                       0.00633                      -0.34737
                       0.93784                       0.00824                      -0.34698
                       0.93803                       0.01124                      -0.34636
                       0.94272                       0.01225                      -0.33335
                       0.95271                       0.01026                      -0.30371
                       0.95814                       0.01197                      -0.28606
                       0.96334                       0.01471                      -0.26788
                       0.96849                       0.01853                      -0.24834
                       0.97334                       0.02382                      -0.22814
                       0.97759                       0.03087                      -0.20825
                       0.98134                       0.03950                      -0.18819
                       0.98442                       0.04953                      -0.16869
                       0.98648                       0.06088                      -0.15219
                       0.98791                       0.07217                      -0.13722
                       0.98909                       0.08167                      -0.12260
                       0.99019                       0.08756                      -0.10890
                       0.99100                       0.08837                      -0.10058
                       0.99132                       0.08728                      -0.09833
                       0.93766                       0.00569                      -0.34750
        </DataArray>
        <DataArray type="Float32" Name="OrientationY" NumberOfComponents="3" format="ascii">
                       0.34091                      -0.20956                       0.91644
                       0.34088                      -0.21002                       0.91635
                       0.34084                      -0.21063                       0.91622
                       0.32827                      -0.21150                       0.92060
                       0.29886                      -0.21261                       0.93031
                       0.28193                      -0.21359                       0.93536
                       0.26471                      -0.21461                       0.94015
                       0.24641                      -0.21567                       0.94486
                       0.22780                      -0.21678                       0.94927
                       0.20992                      -0.21794                       0.95312
                       0.19226                      -0.21918                       0.95655
                       0.17551                      -0.22049                       0.95947
                       0.16202                      -0.22173                       0.96155
                       0.15008                      -0.22295                       0.96321
                       0.13810                      -0.22421                       0.96471
                       0.12618                      -0.22545                       0.96605
                       0.11831                      -0.22623                       0.96686
                       0.11587                      -0.22645                       0.96711
                       0.34092                      -0.20939                       0.91648
        </DataArray>
        <DataArray type="Float32" Name="OrientationZ" NumberOfComponents="3" format="ascii">
                      -0.06700                      -0.97777                      -0.19866
                      -0.06532                      -0.97766                      -0.19977
                      -0.06265                      -0.97750                      -0.20141
                      -0.05923                      -0.97730                      -0.20341
                      -0.05502                      -0.97708                      -0.20563
                      -0.04990                      -0.97685                      -0.20803
                      -0.04366                      -0.97659                      -0.21063
                      -0.03605                      -0.97629                      -0.21344
                      -0.02685                      -0.97593                      -0.21643
                      -0.01596                      -0.97547                      -0.21954
                      -0.00346                      -0.97488                      -0.22269
                       0.01033                      -0.97413                      -0.22575
                       0.02479                      -0.97321                      -0.22860
                       0.03892                      -0.97216                      -0.23108
                       0.05130                      -0.97111                      -0.23304
                       0.06004                      -0.97031                      -0.23428
                       0.06268                      -0.97006                      -0.23465
                       0.06214                      -0.97011                      -0.23459
                      -0.06755                      -0.97782                      -0.19827
        </DataArray>
      </PointData>
      <Lines>
        <DataArray type="Int32" Name="connectivity" format="ascii">
      0      1
      1      2
      2      3
      3      4
      4      5
      5      6
      6      7
      7      8
      8      9
      9     10
     10     11
     11     12
     12     13
     13     14
     14     15
     15     16
     16     17
     18      0
        </DataArray>
        <DataArray type="Int32" Name="offsets" format="ascii">
      2
      4
      6
      8
     10
     12
     14
     16
     18
     20
     22
     24
     26
     28
     30
     32
     34
     36
        </DataArray>
      </Lines>
    </Piece>
  </PolyData>
</VTKFile>
