<?xml version="1.0"?>
<VTKFile type="PolyData" version="0.1" byte_order="LittleEndian">
  <PolyData>
    <Piece NumberOfPoints="     19" NumberOfVerts="  0" NumberOfLines="     18"
           NumberOfStrips="  0" NumberOfPolys="      0">
      <Points>
        <DataArray type="Float32" NumberOfComponents="3" format="ascii">
                       3.18761                       3.05621                      91.35891
                       3.20129                       6.42300                      92.68249
                       3.22210                       9.78963                      94.00640
                       3.25277                      13.15600                      95.33077
                       3.29561                      16.52206                      96.65559
                       3.35311                      19.88779                      97.98069
                       3.42847                      23.25311                      99.30589
                       3.52576                      26.61792                     100.63096
                       3.64991                      29.98206                     101.95548
                       3.80651                      33.34528                     103.27884
                       4.00128                      36.70729                     104.60018
                       4.23938                      40.06770                     105.91845
                       4.52453                      43.42607                     107.23257
                       4.85778                      46.78200                     108.54165
                       5.23617                      50.13529                     109.84533
                       5.65115                      53.48619                     111.14413
                       6.08673                      56.83567                     112.43998
                       6.30715                      58.51023                     113.08751
                       3.18216                       1.37278                      90.69718
        </DataArray>
      </Points>
      <PointData>
        <DataArray type="Float32" Name="TranslationalVelocity" NumberOfComponents="3" format="ascii">
                       0.53106                      -1.15958                       2.89467
                       0.93658                      -2.38278                       6.00195
                       1.33890                      -3.60528                       9.10438
                       1.73670                      -4.82703                      12.20071
                       2.12875                      -6.04799                      15.29022
                       2.51352                      -7.26812                      18.37265
                       2.88888                      -8.48751                      21.44797
                       3.25202                      -9.70631                      24.51632
                       3.59943                     -10.92456                      27.57806
                       3.92709                     -12.14211                      30.63375
                       4.23074                     -13.35849                      33.68412
                       4.50644                     -14.57287                      36.73009
                       4.75119                     -15.78411                      39.77265
                       4.96370                     -16.99106                      42.81278
                       5.14542                     -18.19295                      45.85140
                       5.30162                     -19.38993                      48.88933
                       5.44273                     -20.58378                      51.92714
                       5.51118                     -21.18026                      53.44606
                       0.32768                      -0.54781                       1.34003
        </DataArray>
        <DataArray type="Float32" Name="RotationalVelocity" NumberOfComponents="3" format="ascii">
                       0.92353                       0.00852                      -0.11746
                       0.92237                       0.00827                      -0.11683
                       0.92078                       0.00788                      -0.11582
                       0.91892                       0.00737                      -0.11452
                       0.91694                       0.00673                      -0.11288
                       0.91493                       0.00591                      -0.11078
                       0.91296                       0.00485                      -0.10806
                       0.91107                       0.00347                      -0.10452
                       0.90935                       0.00169                      -0.10001
                       0.90784                      -0.00050                      -0.09441
                       0.90659                      -0.00312                      -0.08773
                       0.90566                      -0.00611                      -0.08013
                       0.90504                      -0.00933                      -0.07194
                       0.90471                      -0.01256                      -0.06371
                       0.90463                      -0.01548                      -0.05627
                       0.90470                      -0.01766                      -0.05074
                       0.90477                      -0.01850                      -0.04860
                       0.90478                      -0.01851                      -0.04858
                       0.92398                       0.00859                      -0.11766
        </DataArray>
        <DataArray type="Float32" Name="TranslationalAcceleration" NumberOfComponents="3" format="ascii">
                      -1.26497                      -2.69900                      -1.26454
                      -1.34664                      -5.55332                      -2.55257
                      -1.38628                      -8.36306                      -3.92835
                      -1.36873                     -11.11743                      -5.41332
                      -1.28364                     -13.81017                      -7.02070
                      -1.12971                     -16.43823                      -8.75790
                      -0.91618                     -19.00088                     -10.62750
                      -0.66400                     -21.49908                     -12.62806
                      -0.40628                     -23.93487                     -14.75468
                      -0.18661                     -26.31087                     -16.99891
                      -0.05587                     -28.62981                     -19.34855
                      -0.06763                     -30.89405                     -21.78754
                      -0.27192                     -33.10539                     -24.29642
                      -0.70756                     -35.26538                     -26.85364
                      -1.39311                     -37.37695                     -29.43741
                      -2.31627                     -39.44720                     -32.02828
                      -3.42164                     -41.49052                     -34.61259
                      -4.00986                     -42.50780                     -35.90188
                      -1.21561                      -1.26238                      -0.63915
        </DataArray>
        <DataArray type="Float32" Name="RotationalAcceleration" NumberOfComponents="3" format="ascii">
                      -0.03496                      -0.03612                      -0.01968
                      -0.05776                      -0.03263                      -0.02839
                      -0.08860                      -0.02753                      -0.04116
                      -0.12443                      -0.02096                      -0.05762
                      -0.16326                      -0.01375                      -0.07571
                      -0.20352                      -0.00692                      -0.09282
                      -0.24384                      -0.00157                      -0.10615
                      -0.28323                       0.00102                      -0.11247
                      -0.32081                      -0.00033                      -0.10876
                      -0.35574                      -0.00658                      -0.09262
                      -0.38719                      -0.01828                      -0.06265
                      -0.41439                      -0.03542                      -0.01884
                      -0.43671                      -0.05731                       0.03700
                      -0.45370                      -0.08238                       0.10090
                      -0.46499                      -0.10808                       0.16635
                      -0.47039                      -0.13067                       0.22387
                      -0.47005                      -0.14510                       0.26055
                      -0.46850                      -0.14954                       0.27185
                      -0.02603                      -0.03748                      -0.01627
        </DataArray>
        <DataArray type="Float32" Name="OrientationX" NumberOfComponents="3" format="ascii">
                       0.99348                      -0.04448                       0.10497
                       0.99347                      -0.04591                       0.10441
                       0.99346                      -0.04815                       0.10353
                       0.99486                      -0.04615                       0.09010
                       0.99746                      -0.03829                       0.06001
                       0.99847                      -0.03596                       0.04196
                       0.99913                      -0.03448                       0.02333
                       0.99942                      -0.03377                       0.00328
                       0.99926                      -0.03434                      -0.01754
                       0.99860                      -0.03669                      -0.03817
                       0.99743                      -0.04057                      -0.05909
                       0.99577                      -0.04599                      -0.07955
                       0.99384                      -0.05331                      -0.09715
                       0.99170                      -0.06102                      -0.11319
                       0.98940                      -0.06734                      -0.12868
                       0.98721                      -0.07067                      -0.14287
                       0.98599                      -0.07039                      -0.15125
                       0.98573                      -0.06923                      -0.15341
                       0.99348                      -0.04401                       0.10516
        </DataArray>
        <DataArray type="Float32" Name="OrientationY" NumberOfComponents="3" format="ascii">
                       0.11397                       0.36313                      -0.92474
                       0.11397                       0.36304                      -0.92478
                       0.11397                       0.36290                      -0.92483
                       0.10073                       0.36337                      -0.92618
                       0.06986                       0.36451                      -0.92857
                       0.05221                       0.36499                      -0.92954
                       0.03433                       0.36545                      -0.93020
                       0.01542                       0.36593                      -0.93052
                      -0.00373                       0.36642                      -0.93044
                      -0.02206                       0.36692                      -0.92999
                      -0.04009                       0.36748                      -0.92917
                      -0.05714                       0.36809                      -0.92803
                      -0.07083                       0.36866                      -0.92686
                      -0.08292                       0.36927                      -0.92562
                      -0.09501                       0.36998                      -0.92417
                      -0.10697                       0.37078                      -0.92254
                      -0.11483                       0.37133                      -0.92137
                      -0.11725                       0.37151                      -0.92100
                       0.11397                       0.36317                      -0.92473
        </DataArray>
        <DataArray type="Float32" Name="OrientationZ" NumberOfComponents="3" format="ascii">
                       0.00301                       0.93067                       0.36584
                       0.00455                       0.93064                       0.36590
                       0.00696                       0.93058                       0.36602
                       0.01000                       0.93050                       0.36616
                       0.01368                       0.93041                       0.36626
                       0.01811                       0.93031                       0.36631
                       0.02354                       0.93019                       0.36632
                       0.03023                       0.93003                       0.36624
                       0.03838                       0.92982                       0.36602
                       0.04812                       0.92953                       0.36559
                       0.05941                       0.92915                       0.36490
                       0.07197                       0.92865                       0.36390
                       0.08522                       0.92803                       0.36262
                       0.09828                       0.92732                       0.36114
                       0.10984                       0.92660                       0.35966
                       0.11817                       0.92603                       0.35848
                       0.12101                       0.92583                       0.35805
                       0.12075                       0.92585                       0.35809
                       0.00251                       0.93068                       0.36582
        </DataArray>
      </PointData>
      <Lines>
        <DataArray type="Int32" Name="connectivity" format="ascii">
      0      1
      1      2
      2      3
      3      4
      4      5
      5      6
      6      7
      7      8
      8      9
      9     10
     10     11
     11     12
     12     13
     13     14
     14     15
     15     16
     16     17
     18      0
        </DataArray>
        <DataArray type="Int32" Name="offsets" format="ascii">
      2
      4
      6
      8
     10
     12
     14
     16
     18
     20
     22
     24
     26
     28
     30
     32
     34
     36
        </DataArray>
      </Lines>
    </Piece>
  </PolyData>
</VTKFile>
