<?xml version="1.0"?>
<VTKFile type="PolyData" version="0.1" byte_order="LittleEndian">
  <PolyData>
    <Piece NumberOfPoints="     17" NumberOfVerts="  0" NumberOfLines="      0"
           NumberOfStrips="  0" NumberOfPolys="      0">
      <Points>
        <DataArray type="Float32" NumberOfComponents="3" format="ascii">
                      -5.28783                       2.86280                      88.36603
                      -5.60253                       5.99279                      86.57956
                      -5.91723                       9.12278                      84.79309
                      -6.23193                      12.25277                      83.00662
                      -6.54663                      15.38277                      81.22015
                      -6.86133                      18.51276                      79.43367
                      -7.17603                      21.64275                      77.64720
                      -7.49072                      24.77274                      75.86073
                      -7.80542                      27.90274                      74.07426
                      -8.12012                      31.03273                      72.28778
                      -8.43482                      34.16272                      70.50131
                      -8.74952                      37.29271                      68.71484
                      -9.06422                      40.42271                      66.92837
                      -9.37891                      43.55270                      65.14190
                      -9.69361                      46.68269                      63.35542
                     -10.00831                      49.81268                      61.56895
                     -10.32301                      52.94268                      59.78248
        </DataArray>
      </Points>
      <PointData>
        <DataArray type="Float32" Name="RefOrientationX" NumberOfComponents="3" format="ascii">
                       0.98405                       0.15185                       0.09271
                       0.98405                       0.15185                       0.09271
                       0.98405                       0.15185                       0.09271
                       0.98602                       0.14548                       0.08119
                       0.98995                       0.13054                       0.05433
                       0.99177                       0.12196                       0.03898
                       0.99329                       0.11324                       0.02343
                       0.99456                       0.10398                       0.00698
                       0.99547                       0.09456                      -0.00969
                       0.99601                       0.08551                      -0.02564
                       0.99621                       0.07656                      -0.04135
                       0.99610                       0.06807                      -0.05620
                       0.99579                       0.06122                      -0.06815
                       0.99537                       0.05514                      -0.07873
                       0.99480                       0.04904                      -0.08931
                       0.99408                       0.04299                      -0.09980
                       0.99353                       0.03900                      -0.10668
        </DataArray>
        <DataArray type="Float32" Name="RefOrientationY" NumberOfComponents="3" format="ascii">
                       0.15520                      -0.47788                      -0.86461
                       0.15520                      -0.47788                      -0.86461
                       0.15520                      -0.47788                      -0.86461
                       0.14209                      -0.47986                      -0.86576
                       0.11147                      -0.48413                      -0.86786
                       0.09395                      -0.48637                      -0.86869
                       0.07619                      -0.48847                      -0.86925
                       0.05738                      -0.49053                      -0.86954
                       0.03831                      -0.49243                      -0.86951
                       0.02004                      -0.49408                      -0.86919
                       0.00204                      -0.49555                      -0.86858
                      -0.01501                      -0.49678                      -0.86775
                      -0.02873                      -0.49767                      -0.86689
                      -0.04089                      -0.49838                      -0.86599
                      -0.05306                      -0.49902                      -0.86496
                      -0.06512                      -0.49958                      -0.86382
                      -0.07304                      -0.49991                      -0.86299
        </DataArray>
        <DataArray type="Float32" Name="RefOrientationZ" NumberOfComponents="3" format="ascii">
                      -0.08699                       0.86520                      -0.49382
                      -0.08699                       0.86520                      -0.49382
                      -0.08699                       0.86520                      -0.49382
                      -0.08699                       0.86520                      -0.49382
                      -0.08699                       0.86520                      -0.49382
                      -0.08699                       0.86520                      -0.49382
                      -0.08699                       0.86520                      -0.49382
                      -0.08699                       0.86520                      -0.49382
                      -0.08699                       0.86520                      -0.49382
                      -0.08699                       0.86520                      -0.49382
                      -0.08699                       0.86520                      -0.49382
                      -0.08699                       0.86520                      -0.49382
                      -0.08699                       0.86520                      -0.49382
                      -0.08699                       0.86520                      -0.49382
                      -0.08699                       0.86520                      -0.49382
                      -0.08699                       0.86520                      -0.49382
                      -0.08699                       0.86520                      -0.49382
        </DataArray>
      </PointData>
    </Piece>
  </PolyData>
</VTKFile>
