<?xml version="1.0"?>
<VTKFile type="PolyData" version="0.1" byte_order="LittleEndian">
  <PolyData>
    <Piece NumberOfPoints="     19" NumberOfVerts="  0" NumberOfLines="     18"
           NumberOfStrips="  0" NumberOfPolys="      0">
      <Points>
        <DataArray type="Float32" NumberOfComponents="3" format="ascii">
                       3.15338                      -0.73517                      91.43955
                       3.24017                      -1.39532                      92.63310
                       3.38685                      -2.79842                      94.97651
                       3.52386                      -4.24172                      97.29848
                       3.69457                      -6.07142                     100.18688
                       3.97348                      -8.14642                     103.71353
                       4.30197                     -10.11262                     107.29620
                       4.65061                     -12.08143                     110.87554
                       5.02736                     -14.05160                     114.45133
                       5.43793                     -16.02491                     118.02168
                       5.88354                     -18.00393                     121.58466
                       6.37630                     -19.98744                     125.13896
                       6.92204                     -21.97455                     128.68350
                       7.52367                     -23.96412                     132.21764
                       8.18133                     -25.95495                     135.74112
                       8.76519                     -27.61416                     138.67044
                       9.25035                     -28.93447                     141.01424
                       9.74248                     -30.20688                     143.38425
                       9.98547                     -30.87936                     144.54890
        </DataArray>
      </Points>
      <PointData>
        <DataArray type="Float32" Name="Force" NumberOfComponents="3" format="ascii">
                       0.22051                       3.28300                       1.78839
                      70.11145                      23.17601                       7.58820
                      89.20152                      54.04524                      23.04102
                      80.78985                      70.51061                      32.58501
                     670.00152                    -255.60835                    -193.93865
                     869.39681                    -288.64118                    -232.03983
                     973.72173                    -260.10613                    -230.70356
                    1207.32447                    -263.30311                    -261.94942
                    1239.15825                    -209.30131                    -246.00260
                    1348.27215                    -177.19888                    -254.06657
                    1575.05521                    -145.07641                    -282.90381
                    1638.60464                     -93.61849                    -286.90903
                    1777.62061                     -58.18462                    -316.03298
                    1695.59572                      -4.82306                    -301.32872
                    1583.93050                      36.03097                    -282.92715
                    1380.96595                      61.68786                    -243.14362
                    1449.05717                      76.63356                    -254.94130
                    1301.36106                      61.45084                    -235.09841
                    1295.61984                      59.19761                    -234.60318
        </DataArray>
        <DataArray type="Float32" Name="Moment" NumberOfComponents="3" format="ascii">
                       0.00000                       0.00000                       0.00000
                       0.00000                       0.00000                       0.00000
                       0.00000                       0.00000                       0.00000
                       0.00000                       0.00000                       0.00000
                     -12.18911                      84.23607                    -153.13174
                     -29.53710                     193.15678                    -350.94172
                     -42.39481                     260.01134                    -472.08326
                     -65.07730                     370.79136                    -672.64868
                     -98.04460                     513.70319                    -930.93129
                    -121.44041                     579.32158                   -1048.50419
                    -146.38921                     629.71833                   -1137.94280
                    -173.79771                     671.79604                   -1211.80660
                    -158.75022                     552.49462                    -994.65678
                    -171.58600                     542.21524                    -974.20396
                    -178.89034                     521.40065                    -935.09336
                    -180.08623                     500.14759                    -895.93102
                    -163.26873                     443.81493                    -794.59309
                     -82.94049                     223.80027                    -400.61017
                     -78.60058                     212.52794                    -380.45234
        </DataArray>
        <DataArray type="Float32" Name="TranslationalVelocity" NumberOfComponents="3" format="ascii">
                       0.22274                      -1.25546                      -0.62730
                       0.15794                      -2.36732                      -1.23756
                       0.01936                      -4.54813                      -2.53466
                      -0.12130                      -6.70968                      -3.87004
                      -0.29454                      -9.40161                      -5.56535
                      -0.47834                     -12.70137                      -7.49291
                      -0.63533                     -16.06501                      -9.32517
                      -0.77465                     -19.43462                     -11.16568
                      -0.89077                     -22.81109                     -13.01439
                      -0.97697                     -26.19329                     -14.87438
                      -1.02995                     -29.57857                     -16.74859
                      -1.03796                     -32.96689                     -18.63878
                      -0.99347                     -36.35653                     -20.54620
                      -0.89167                     -39.74535                     -22.47147
                      -0.73293                     -43.13117                     -24.41417
                      -0.56343                     -45.94973                     -26.04428
                      -0.40789                     -48.20633                     -27.34746
                      -0.24038                     -50.48827                     -28.60714
                      -0.16065                     -51.60974                     -29.27116
        </DataArray>
        <DataArray type="Float32" Name="RotationalVelocity" NumberOfComponents="3" format="ascii">
                       0.92308                       0.00809                      -0.11336
                       0.92332                       0.00835                      -0.11323
                       0.92397                       0.00910                      -0.11286
                       0.92480                       0.01016                      -0.11235
                       0.92611                       0.01193                      -0.11147
                       0.92794                       0.01463                      -0.11012
                       0.92994                       0.01805                      -0.10838
                       0.93209                       0.02242                      -0.10614
                       0.93440                       0.02804                      -0.10322
                       0.93685                       0.03520                      -0.09946
                       0.93937                       0.04426                      -0.09467
                       0.94188                       0.05497                      -0.08896
                       0.94424                       0.06693                      -0.08256
                       0.94635                       0.07936                      -0.07588
                       0.94807                       0.09098                      -0.06962
                       0.94906                       0.09858                      -0.06552
                       0.94950                       0.10226                      -0.06353
                       0.94968                       0.10379                      -0.06270
                       0.94967                       0.10366                      -0.06277
        </DataArray>
        <DataArray type="Float32" Name="TranslationalAcceleration" NumberOfComponents="3" format="ascii">
                       0.10837                       0.69397                      -1.31178
                      -0.06540                       1.23322                      -2.35218
                      -0.40708                       2.38723                      -4.39526
                      -0.74695                       3.58615                      -6.41781
                      -1.17467                       5.12519                      -8.92938
                      -1.69644                       6.89452                     -11.99303
                      -2.23207                       8.60456                     -15.10222
                      -2.81462                      10.36057                     -18.19860
                      -3.53146                      12.17315                     -21.26754
                      -4.52115                      14.05667                     -24.28318
                      -5.90551                      16.01498                     -27.22114
                      -7.92086                      18.05703                     -30.03400
                     -10.77293                      20.17333                     -32.67435
                     -14.62813                      22.34306                     -35.09636
                     -19.56286                      24.53791                     -37.26697
                     -24.43548                      26.36708                     -38.89044
                     -28.76404                      27.81651                     -40.08772
                     -33.30257                      29.22209                     -41.27127
                     -35.59676                      29.95470                     -41.83514
        </DataArray>
        <DataArray type="Float32" Name="OrientationX" NumberOfComponents="3" format="ascii">
                       0.95592                      -0.22223                      -0.19194
                       0.95589                      -0.22202                      -0.19231
                       0.95581                      -0.22144                      -0.19336
                       0.95570                      -0.22065                      -0.19480
                       0.95551                      -0.21933                      -0.19720
                       0.96388                      -0.19017                      -0.18648
                       0.96913                      -0.16803                      -0.18043
                       0.97313                      -0.14776                      -0.17659
                       0.97679                      -0.12578                      -0.17336
                       0.97991                      -0.10240                      -0.17116
                       0.98207                      -0.07905                      -0.17113
                       0.98348                      -0.05502                      -0.17248
                       0.98393                      -0.03209                      -0.17562
                       0.98340                      -0.01295                      -0.18101
                       0.98265                       0.00540                      -0.18539
                       0.98221                       0.01947                      -0.18680
                       0.98216                       0.02879                      -0.18583
                       0.98223                       0.03344                      -0.18470
                       0.98229                       0.03326                      -0.18439
        </DataArray>
        <DataArray type="Float32" Name="OrientationY" NumberOfComponents="3" format="ascii">
                       0.28662                       0.84826                       0.44532
                       0.28662                       0.84824                       0.44536
                       0.28663                       0.84819                       0.44545
                       0.28663                       0.84812                       0.44557
                       0.28665                       0.84803                       0.44574
                       0.25605                       0.85443                       0.45209
                       0.23384                       0.85841                       0.45656
                       0.21435                       0.86145                       0.46039
                       0.19369                       0.86421                       0.46435
                       0.17236                       0.86657                       0.46834
                       0.15215                       0.86833                       0.47206
                       0.13209                       0.86960                       0.47575
                       0.11390                       0.87032                       0.47914
                       0.10014                       0.87055                       0.48179
                       0.08662                       0.87053                       0.48444
                       0.07531                       0.87034                       0.48666
                       0.06688                       0.87010                       0.48831
                       0.06237                       0.86995                       0.48919
                       0.06237                       0.86995                       0.48919
        </DataArray>
        <DataArray type="Float32" Name="OrientationZ" NumberOfComponents="3" format="ascii">
                       0.06385                      -0.48070                       0.87456
                       0.06424                      -0.48083                       0.87446
                       0.06537                      -0.48119                       0.87418
                       0.06690                      -0.48167                       0.87380
                       0.06947                      -0.48243                       0.87317
                       0.07336                      -0.48351                       0.87226
                       0.07817                      -0.48466                       0.87120
                       0.08410                      -0.48588                       0.86997
                       0.09141                      -0.48715                       0.86852
                       0.10037                      -0.48843                       0.86681
                       0.11128                      -0.48964                       0.86480
                       0.12381                      -0.49067                       0.86250
                       0.13747                      -0.49145                       0.85999
                       0.15134                      -0.49192                       0.85739
                       0.16401                      -0.49209                       0.85496
                       0.17205                      -0.49207                       0.85338
                       0.17575                      -0.49203                       0.85265
                       0.17704                      -0.49201                       0.85240
                       0.17668                      -0.49202                       0.85247
        </DataArray>
      </PointData>
      <Lines>
        <DataArray type="Int32" Name="connectivity" format="ascii">
      0      1
      1      2
      2      3
      3      4
      4      5
      5      6
      6      7
      7      8
      8      9
      9     10
     10     11
     11     12
     12     13
     13     14
     14     15
     15     16
     16     17
     17     18
        </DataArray>
        <DataArray type="Int32" Name="offsets" format="ascii">
      2
      4
      6
      8
     10
     12
     14
     16
     18
     20
     22
     24
     26
     28
     30
     32
     34
     36
        </DataArray>
      </Lines>
    </Piece>
  </PolyData>
</VTKFile>
