<?xml version="1.0"?>
<VTKFile type="PolyData" version="0.1" byte_order="LittleEndian">
  <PolyData>
    <Piece NumberOfPoints="     19" NumberOfVerts="  0" NumberOfLines="     18"
           NumberOfStrips="  0" NumberOfPolys="      0">
      <Points>
        <DataArray type="Float32" NumberOfComponents="3" format="ascii">
                       2.74175                      -0.15331                      91.61705
                       2.83738                      -0.26580                      92.97576
                       3.00647                      -0.58495                      95.68713
                       3.16835                      -0.94842                      98.39559
                       3.37189                      -1.42911                     101.77933
                       3.68363                      -1.86302                     105.84636
                       4.03889                      -2.16684                     109.92031
                       4.41475                      -2.46773                     113.99262
                       4.81986                      -2.76446                     118.06240
                       5.26149                      -3.05958                     122.12844
                       5.74241                      -3.35710                     126.18976
                       6.27727                      -3.65587                     130.24419
                       6.87434                      -3.95570                     134.28977
                       7.53853                      -4.25614                     138.32480
                       8.27105                      -4.55666                     142.34795
                       8.92611                      -4.80673                     145.69222
                       9.47293                      -4.99852                     148.36369
                      10.02665                      -5.13530                     151.03824
                      10.30293                      -5.24523                     152.37215
        </DataArray>
      </Points>
      <PointData>
        <DataArray type="Float32" Name="Force" NumberOfComponents="3" format="ascii">
                       0.02263                       2.45451                       0.19555
                      76.89309                      25.77980                      -3.38772
                      95.25059                      61.24297                      -1.95649
                      84.46645                      80.02818                       0.19368
                     810.64505                    -324.04590                     -88.09287
                    1162.20331                    -475.89753                    -131.93202
                    1339.49003                    -451.82617                    -150.98059
                    1709.52609                    -485.58050                    -196.04786
                    1879.92272                    -456.99116                    -224.29539
                    2185.75339                    -463.12696                    -277.18854
                    2690.70558                    -498.11855                    -369.40484
                    3115.98451                    -514.29597                    -469.26913
                    3612.41782                    -549.70919                    -600.65580
                    3977.59711                    -553.46891                    -726.45582
                    4298.01030                    -544.44116                    -850.84662
                    4489.68388                    -515.66329                    -932.73249
                    4410.02843                    -455.28513                    -935.18291
                    3205.97072                    -294.58068                    -684.12330
                    1310.57145                      27.13972                    -267.44909
        </DataArray>
        <DataArray type="Float32" Name="Moment" NumberOfComponents="3" format="ascii">
                       0.00000                       0.00000                       0.00000
                       0.00000                       0.00000                       0.00000
                       0.00000                       0.00000                       0.00000
                       0.00000                       0.00000                       0.00000
                     -17.38406                      18.25428                    -227.11863
                     -28.32256                      28.25869                    -351.42953
                     -45.08037                      42.38355                    -526.78760
                     -71.32185                      62.54662                    -776.84082
                    -101.35943                      81.91103                   -1016.42981
                    -127.13261                      93.48185                   -1158.68611
                    -148.82523                      98.29322                   -1216.56920
                    -176.84446                     104.28638                   -1288.55410
                    -183.30443                      96.55666                   -1190.78225
                    -203.24806                      96.38218                   -1186.28471
                    -215.59369                      93.51773                   -1148.90133
                    -218.02476                      89.56233                   -1098.97132
                    -202.03223                      80.90122                    -992.10643
                    -105.78012                      41.90485                    -513.75583
                     -89.61070                      35.52225                    -435.51153
        </DataArray>
        <DataArray type="Float32" Name="TranslationalVelocity" NumberOfComponents="3" format="ascii">
                      -0.21562                      -1.42594                      -0.12337
                      -0.23634                      -2.70011                      -0.22741
                      -0.28836                      -5.24136                      -0.52336
                      -0.34708                      -7.78192                      -0.86105
                      -0.42724                     -10.96094                      -1.30855
                      -0.51482                     -14.79702                      -1.71252
                      -0.59703                     -18.65405                      -1.99458
                      -0.68906                     -22.52176                      -2.27339
                      -0.79342                     -26.39985                      -2.54716
                      -0.91406                     -30.28721                      -2.81745
                      -1.05348                     -34.18161                      -3.08728
                      -1.21819                     -38.08263                      -3.35392
                      -1.41271                     -41.98865                      -3.61548
                      -1.64010                     -45.89797                      -3.86978
                      -1.90058                     -49.80877                      -4.11504
                      -2.13961                     -53.06799                      -4.31236
                      -2.34155                     -55.67577                      -4.45853
                      -2.54201                     -58.28780                      -4.55086
                      -2.64708                     -59.59059                      -4.63656
        </DataArray>
        <DataArray type="Float32" Name="RotationalVelocity" NumberOfComponents="3" format="ascii">
                       0.92991                      -0.00621                      -0.10642
                       0.93029                      -0.00644                      -0.10647
                       0.93120                      -0.00706                      -0.10658
                       0.93231                      -0.00789                      -0.10673
                       0.93396                      -0.00921                      -0.10695
                       0.93622                      -0.01110                      -0.10726
                       0.93861                      -0.01331                      -0.10761
                       0.94095                      -0.01601                      -0.10799
                       0.94316                      -0.01944                      -0.10842
                       0.94516                      -0.02382                      -0.10891
                       0.94691                      -0.02945                      -0.10949
                       0.94846                      -0.03620                      -0.11014
                       0.94983                      -0.04387                      -0.11085
                       0.95102                      -0.05198                      -0.11159
                       0.95201                      -0.05970                      -0.11228
                       0.95262                      -0.06491                      -0.11274
                       0.95291                      -0.06757                      -0.11298
                       0.95303                      -0.06889                      -0.11309
                       0.95302                      -0.06897                      -0.11310
        </DataArray>
        <DataArray type="Float32" Name="TranslationalAcceleration" NumberOfComponents="3" format="ascii">
                       1.01686                       0.29592                      -1.31943
                       0.89122                       0.44765                      -2.50121
                       0.64712                       0.81147                      -4.85980
                       0.41964                       1.14323                      -7.23346
                       0.17070                       1.45344                     -10.23725
                      -0.05829                       1.48799                     -13.90555
                      -0.17985                       1.14491                     -17.62652
                      -0.17889                       0.53222                     -21.39832
                      -0.07313                      -0.34141                     -25.21854
                       0.08843                      -1.45365                     -29.08119
                       0.23646                      -2.75646                     -32.97365
                       0.27730                      -4.24896                     -36.88566
                       0.10121                      -5.90775                     -40.79578
                      -0.39617                      -7.71185                     -44.67696
                      -1.29168                      -9.63987                     -48.50051
                      -2.35167                     -11.32153                     -51.62915
                      -3.40005                     -12.71131                     -54.08615
                      -4.58558                     -14.16732                     -56.48666
                      -5.19650                     -14.85631                     -57.70346
        </DataArray>
        <DataArray type="Float32" Name="OrientationX" NumberOfComponents="3" format="ascii">
                       0.96859                      -0.23292                      -0.08706
                       0.96856                      -0.23289                      -0.08745
                       0.96848                      -0.23280                      -0.08858
                       0.96837                      -0.23267                      -0.09013
                       0.96818                      -0.23247                      -0.09269
                       0.97499                      -0.20112                      -0.09464
                       0.97910                      -0.17822                      -0.09800
                       0.98208                      -0.15800                      -0.10277
                       0.98462                      -0.13646                      -0.10910
                       0.98651                      -0.11408                      -0.11740
                       0.98740                      -0.09261                      -0.12828
                       0.98741                      -0.07110                      -0.14130
                       0.98642                      -0.05132                      -0.15605
                       0.98450                      -0.03595                      -0.17163
                       0.98232                      -0.02089                      -0.18606
                       0.98071                      -0.00854                      -0.19527
                       0.97989                       0.00044                      -0.19952
                       0.97952                       0.00520                      -0.20126
                       0.97955                       0.00519                      -0.20113
        </DataArray>
        <DataArray type="Float32" Name="OrientationY" NumberOfComponents="3" format="ascii">
                       0.23855                       0.96921                       0.06101
                       0.23854                       0.96922                       0.06085
                       0.23851                       0.96926                       0.06046
                       0.23848                       0.96929                       0.05999
                       0.23842                       0.96935                       0.05925
                       0.20734                       0.97635                       0.06125
                       0.18478                       0.98080                       0.06242
                       0.16498                       0.98426                       0.06338
                       0.14401                       0.98746                       0.06461
                       0.12238                       0.99028                       0.06611
                       0.10189                       0.99249                       0.06774
                       0.08156                       0.99423                       0.06968
                       0.06313                       0.99542                       0.07172
                       0.04917                       0.99609                       0.07342
                       0.03548                       0.99652                       0.07542
                       0.02408                       0.99671                       0.07736
                       0.01563                       0.99676                       0.07895
                       0.01111                       0.99675                       0.07984
                       0.01111                       0.99675                       0.07984
        </DataArray>
        <DataArray type="Float32" Name="OrientationZ" NumberOfComponents="3" format="ascii">
                       0.07017                      -0.07986                       0.99433
                       0.07058                      -0.07980                       0.99431
                       0.07178                      -0.07968                       0.99423
                       0.07340                      -0.07958                       0.99412
                       0.07608                      -0.07947                       0.99393
                       0.08008                      -0.07934                       0.99363
                       0.08500                      -0.07922                       0.99323
                       0.09114                      -0.07920                       0.99268
                       0.09892                      -0.07932                       0.99193
                       0.10872                      -0.07959                       0.99088
                       0.12104                      -0.07996                       0.98942
                       0.13553                      -0.08032                       0.98751
                       0.15165                      -0.08059                       0.98514
                       0.16832                      -0.08072                       0.98242
                       0.18384                      -0.08069                       0.97964
                       0.19397                      -0.08057                       0.97769
                       0.19890                      -0.08048                       0.97671
                       0.20102                      -0.08044                       0.97628
                       0.20089                      -0.08044                       0.97631
        </DataArray>
      </PointData>
      <Lines>
        <DataArray type="Int32" Name="connectivity" format="ascii">
      0      1
      1      2
      2      3
      3      4
      4      5
      5      6
      6      7
      7      8
      8      9
      9     10
     10     11
     11     12
     12     13
     13     14
     14     15
     15     16
     16     17
     17     18
        </DataArray>
        <DataArray type="Int32" Name="offsets" format="ascii">
      2
      4
      6
      8
     10
     12
     14
     16
     18
     20
     22
     24
     26
     28
     30
     32
     34
     36
        </DataArray>
      </Lines>
    </Piece>
  </PolyData>
</VTKFile>
