<?xml version="1.0"?>
<VTKFile type="PolyData" version="0.1" byte_order="LittleEndian">
  <PolyData>
    <Piece NumberOfPoints="     19" NumberOfVerts="  0" NumberOfLines="     18"
           NumberOfStrips="  0" NumberOfPolys="      0">
      <Points>
        <DataArray type="Float32" NumberOfComponents="3" format="ascii">
                       2.85927                       0.39241                      88.73647
                       2.63595                       0.78498                      87.44655
                       2.17161                       1.66098                      84.89728
                       1.70194                       2.58120                      82.36234
                       1.11685                       3.75977                      79.20194
                       0.47469                       5.04207                      75.35965
                      -0.13059                       6.20568                      71.47531
                      -0.71599                       7.37276                      67.58895
                      -1.27349                       8.54194                      63.69907
                      -1.79678                       9.71523                      59.80565
                      -2.28390                      10.89544                      55.90960
                      -2.72215                      12.08138                      52.00947
                      -3.10498                      13.27222                      48.10496
                      -3.42888                      14.46679                      44.19623
                      -3.69328                      15.66384                      40.28371
                      -3.87531                      16.66234                      37.02111
                      -4.00216                      17.45380                      34.40778
                      -4.12673                      18.19282                      31.77786
                      -4.18792                      18.60211                      30.47539
        </DataArray>
      </Points>
      <PointData>
        <DataArray type="Float32" Name="Force" NumberOfComponents="3" format="ascii">
                      -0.04190                      -1.12535                      -0.33189
                      58.66822                     -15.85632                     -14.89551
                      75.01660                     -43.09854                     -25.83267
                      68.57988                     -60.55522                     -29.87410
                     629.17740                     249.01577                     -30.01573
                     822.05941                     275.23823                     -50.94745
                     994.09650                     280.00273                     -72.46571
                    1320.98509                     320.42045                    -103.50717
                    1482.75166                     302.71158                    -121.66023
                    1750.77662                     309.95694                    -140.93702
                    2192.86652                     331.76740                    -167.35330
                    2540.97794                     332.00648                    -174.67741
                    2963.10661                     348.91637                    -170.50751
                    3226.04868                     327.95208                    -151.57462
                    3421.59212                     292.53831                    -128.99100
                    3504.91348                     247.68896                    -115.91821
                    3390.79078                     194.69343                    -111.16510
                    2458.69719                     113.22028                     -85.03763
                    1155.16828                     -37.93882                     -67.37032
        </DataArray>
        <DataArray type="Float32" Name="Moment" NumberOfComponents="3" format="ascii">
                       0.00000                       0.00000                       0.00000
                       0.00000                       0.00000                       0.00000
                       0.00000                       0.00000                       0.00000
                       0.00000                       0.00000                       0.00000
                      39.27931                     -70.87571                     235.35940
                      67.43597                    -124.71405                     414.35437
                      83.75080                    -159.82618                     531.34933
                     111.01923                    -220.59788                     733.96535
                     141.97106                    -297.37276                     990.37829
                     147.17209                    -330.38018                    1101.63981
                     140.40651                    -345.70179                    1154.44481
                     130.23213                    -361.13204                    1208.04850
                     100.58683                    -323.83672                    1085.33380
                      83.35248                    -321.29175                    1078.88023
                      65.90928                    -310.43372                    1044.26594
                      53.64951                    -294.69709                     992.45550
                      43.86253                    -261.26464                     880.33171
                      21.31323                    -131.06877                     441.72376
                      18.17921                    -111.05189                     374.24825
        </DataArray>
        <DataArray type="Float32" Name="TranslationalVelocity" NumberOfComponents="3" format="ascii">
                      -0.40008                       1.36369                       0.37820
                      -0.34229                       2.57663                       0.73734
                      -0.21624                       4.97467                       1.53826
                      -0.08450                       7.35447                       2.37722
                       0.08452                      10.31131                       3.44709
                       0.27422                      13.88147                       4.60399
                       0.45237                      17.46478                       5.64643
                       0.63269                      21.02610                       6.68563
                       0.81629                      24.56639                       7.72056
                       1.00586                      28.08618                       8.75324
                       1.20407                      31.58773                       9.78700
                       1.41568                      35.07067                      10.82046
                       1.64515                      38.53617                      11.85337
                       1.89632                      41.98541                      12.88547
                       2.17127                      45.41984                      13.91676
                       2.41752                      48.27264                      14.77557
                       2.62369                      50.55227                      15.45567
                       2.82978                      52.84487                      16.08998
                       2.93762                      53.98014                      16.44162
        </DataArray>
        <DataArray type="Float32" Name="RotationalVelocity" NumberOfComponents="3" format="ascii">
                       0.92101                      -0.00931                      -0.11627
                       0.92021                      -0.00945                      -0.11617
                       0.91824                      -0.00979                      -0.11594
                       0.91582                      -0.01020                      -0.11564
                       0.91215                      -0.01080                      -0.11519
                       0.90713                      -0.01148                      -0.11452
                       0.90183                      -0.01211                      -0.11380
                       0.89652                      -0.01287                      -0.11311
                       0.89141                      -0.01401                      -0.11257
                       0.88661                      -0.01578                      -0.11228
                       0.88224                      -0.01851                      -0.11234
                       0.87827                      -0.02222                      -0.11277
                       0.87472                      -0.02685                      -0.11355
                       0.87162                      -0.03214                      -0.11461
                       0.86908                      -0.03758                      -0.11581
                       0.86754                      -0.04158                      -0.11675
                       0.86681                      -0.04396                      -0.11734
                       0.86647                      -0.04554                      -0.11776
                       0.86647                      -0.04598                      -0.11789
        </DataArray>
        <DataArray type="Float32" Name="TranslationalAcceleration" NumberOfComponents="3" format="ascii">
                      -0.92050                      -0.07185                       1.27140
                      -0.77513                      -0.36798                       2.39924
                      -0.47829                      -1.05613                       4.62057
                      -0.15065                      -1.83756                       6.78874
                       0.31990                      -2.93428                       9.41284
                       1.00822                      -4.29792                      12.48443
                       1.85153                      -5.76753                      15.46900
                       2.82601                      -7.45750                      18.32857
                       3.87556                      -9.37507                      21.07483
                       4.89937                     -11.52648                      23.72440
                       5.78588                     -13.89085                      26.30314
                       6.36755                     -16.48449                      28.82303
                       6.47350                     -19.29093                      31.30135
                       5.95274                     -22.28287                      33.74856
                       4.71100                     -25.42266                      36.16796
                       3.14041                     -28.11794                      38.16557
                       1.56434                     -30.30242                      39.76125
                      -0.18538                     -32.46627                      41.40393
                      -1.09131                     -33.57177                      42.19343
        </DataArray>
        <DataArray type="Float32" Name="OrientationX" NumberOfComponents="3" format="ascii">
                       0.96767                       0.23276                      -0.09713
                       0.96774                       0.23264                      -0.09674
                       0.96793                       0.23230                      -0.09562
                       0.96819                       0.23184                      -0.09409
                       0.96862                       0.23107                      -0.09155
                       0.97489                       0.20013                      -0.09770
                       0.97908                       0.17711                      -0.10014
                       0.98256                       0.15640                      -0.10056
                       0.98591                       0.13414                      -0.09992
                       0.98903                       0.11072                      -0.09778
                       0.99177                       0.08777                      -0.09325
                       0.99413                       0.06441                      -0.08695
                       0.99598                       0.04249                      -0.07884
                       0.99731                       0.02475                      -0.06905
                       0.99815                       0.00757                      -0.06032
                       0.99844                      -0.00601                      -0.05551
                       0.99841                      -0.01541                      -0.05421
                       0.99833                      -0.02025                      -0.05415
                       0.99831                      -0.02016                      -0.05444
        </DataArray>
        <DataArray type="Float32" Name="OrientationY" NumberOfComponents="3" format="ascii">
                       0.19222                      -0.92994                      -0.31347
                       0.19221                      -0.92992                      -0.31354
                       0.19218                      -0.92987                      -0.31372
                       0.19214                      -0.92980                      -0.31393
                       0.19209                      -0.92971                      -0.31424
                       0.16101                      -0.93646                      -0.31165
                       0.13847                      -0.94065                      -0.30983
                       0.11869                      -0.94386                      -0.30827
                       0.09775                      -0.94681                      -0.30659
                       0.07614                      -0.94935                      -0.30485
                       0.05567                      -0.95128                      -0.30326
                       0.03534                      -0.95273                      -0.30176
                       0.01690                      -0.95362                      -0.30054
                       0.00292                      -0.95400                      -0.29978
                      -0.01084                      -0.95416                      -0.29911
                      -0.02235                      -0.95412                      -0.29858
                      -0.03092                      -0.95401                      -0.29818
                      -0.03551                      -0.95391                      -0.29797
                      -0.03551                      -0.95392                      -0.29797
        </DataArray>
        <DataArray type="Float32" Name="OrientationZ" NumberOfComponents="3" format="ascii">
                      -0.16329                       0.28467                      -0.94462
                      -0.16290                       0.28484                      -0.94463
                      -0.16179                       0.28528                      -0.94469
                      -0.16027                       0.28586                      -0.94477
                      -0.15772                       0.28679                      -0.94492
                      -0.15386                       0.28809                      -0.94516
                      -0.14907                       0.28949                      -0.94550
                      -0.14313                       0.29096                      -0.94597
                      -0.13573                       0.29250                      -0.94658
                      -0.12658                       0.29406                      -0.94737
                      -0.11532                       0.29557                      -0.94833
                      -0.10228                       0.29692                      -0.94941
                      -0.08795                       0.29800                      -0.95050
                      -0.07330                       0.29877                      -0.95151
                      -0.05982                       0.29921                      -0.95231
                      -0.05117                       0.29935                      -0.95277
                      -0.04712                       0.29939                      -0.95297
                      -0.04562                       0.29939                      -0.95304
                      -0.04593                       0.29940                      -0.95302
        </DataArray>
      </PointData>
      <Lines>
        <DataArray type="Int32" Name="connectivity" format="ascii">
      0      1
      1      2
      2      3
      3      4
      4      5
      5      6
      6      7
      7      8
      8      9
      9     10
     10     11
     11     12
     12     13
     13     14
     14     15
     15     16
     16     17
     17     18
        </DataArray>
        <DataArray type="Int32" Name="offsets" format="ascii">
      2
      4
      6
      8
     10
     12
     14
     16
     18
     20
     22
     24
     26
     28
     30
     32
     34
     36
        </DataArray>
      </Lines>
    </Piece>
  </PolyData>
</VTKFile>
