<?xml version="1.0"?>
<VTKFile type="PolyData" version="0.1" byte_order="LittleEndian">
  <PolyData>
    <Piece NumberOfPoints="     19" NumberOfVerts="  0" NumberOfLines="     18"
           NumberOfStrips="  0" NumberOfPolys="      0">
      <Points>
        <DataArray type="Float32" NumberOfComponents="3" format="ascii">
                       2.62667                      -0.14505                      86.89373
                       2.01672                      -0.27182                      83.33013
                       1.41433                      -0.39781                      79.76521
                       0.82238                      -0.52265                      76.19851
                       0.24329                      -0.64612                      72.62966
                      -0.32031                      -0.76809                      69.05828
                      -0.86510                      -0.88835                      65.48392
                      -1.38692                      -1.00656                      61.90608
                      -1.88068                      -1.12244                      58.32420
                      -2.34064                      -1.23578                      54.73775
                      -2.76088                      -1.34652                      51.14636
                      -3.13600                      -1.45485                      47.54991
                      -3.46212                      -1.56112                      43.94863
                      -3.73808                      -1.66580                      40.34309
                      -3.96691                      -1.76942                      36.73419
                      -4.15756                      -1.87254                      33.12298
                      -4.32685                      -1.97554                      29.51067
                      -4.40881                      -2.02703                      27.70438
                       2.93311                      -0.08153                      88.67527
        </DataArray>
      </Points>
      <PointData>
        <DataArray type="Float32" Name="TranslationalVelocity" NumberOfComponents="3" format="ascii">
                      -0.02180                       3.02865                      -0.09296
                      -0.03709                       6.39980                      -0.21026
                      -0.05367                       9.78094                      -0.32697
                      -0.07144                      13.17464                      -0.44280
                      -0.09005                      16.58247                      -0.55767
                      -0.11030                      20.00494                      -0.67137
                      -0.13528                      23.44163                      -0.78320
                      -0.17101                      26.89138                      -0.89199
                      -0.22645                      30.35250                      -0.99637
                      -0.31318                      33.82304                      -1.09502
                      -0.44457                      37.30102                      -1.18704
                      -0.63443                      40.78457                      -1.27235
                      -0.89517                      44.27202                      -1.35185
                      -1.23542                      47.76191                      -1.42728
                      -1.65714                      51.25311                      -1.50077
                      -2.15212                      54.74491                      -1.57410
                      -2.69809                      58.23696                      -1.64761
                      -2.98002                      59.98302                      -1.68433
                      -0.01441                       1.34520                      -0.03421
        </DataArray>
        <DataArray type="Float32" Name="RotationalVelocity" NumberOfComponents="3" format="ascii">
                       0.92454                      -0.00008                      -0.11863
                       0.92678                       0.00022                      -0.11903
                       0.92981                       0.00065                      -0.11957
                       0.93339                       0.00092                      -0.12019
                       0.93725                       0.00116                      -0.12087
                       0.94110                       0.00189                      -0.12156
                       0.94471                       0.00388                      -0.12225
                       0.94791                       0.00798                      -0.12295
                       0.95063                       0.01498                      -0.12367
                       0.95286                       0.02550                      -0.12443
                       0.95467                       0.03986                      -0.12526
                       0.95618                       0.05791                      -0.12616
                       0.95745                       0.07895                      -0.12713
                       0.95855                       0.10155                      -0.12813
                       0.95949                       0.12346                      -0.12907
                       0.96019                       0.14144                      -0.12983
                       0.96045                       0.15119                      -0.13023
                       0.96042                       0.15340                      -0.13030
                       0.92364                      -0.00013                      -0.11847
        </DataArray>
        <DataArray type="Float32" Name="TranslationalAcceleration" NumberOfComponents="3" format="ascii">
                      -0.84256                       0.12894                       2.67399
                      -0.27535                       0.34130                       5.76238
                       0.32535                       0.58406                       8.86307
                       0.97348                       0.86572                      11.97865
                       1.68150                       1.19134                      15.11043
                       2.46039                       1.56298                      18.25843
                       3.31920                       1.98056                      21.42164
                       4.26489                       2.44259                      24.59854
                       5.30237                       2.94663                      27.78779
                       6.43425                       3.49004                      30.98896
                       7.66052                       4.07076                      34.20326
                       8.97805                       4.68770                      37.43390
                      10.37994                       5.34088                      40.68579
                      11.85457                       6.03071                      43.96442
                      13.38446                       6.75631                      47.27382
                      14.94482                       7.51301                      50.61367
                      16.50189                       8.28933                      53.97569
                      17.27477                       8.68044                      55.66060
                      -1.11965                       0.02909                       1.13247
        </DataArray>
        <DataArray type="Float32" Name="RotationalAcceleration" NumberOfComponents="3" format="ascii">
                       0.02542                      -0.04340                       0.00205
                       0.03236                      -0.05017                       0.00109
                       0.04214                      -0.06091                      -0.00022
                       0.05383                      -0.07516                      -0.00172
                       0.06644                      -0.09262                      -0.00328
                       0.07931                      -0.11287                      -0.00478
                       0.09207                      -0.13534                      -0.00618
                       0.10434                      -0.15948                      -0.00743
                       0.11583                      -0.18467                      -0.00852
                       0.12635                      -0.21021                      -0.00942
                       0.13575                      -0.23521                      -0.01015
                       0.14394                      -0.25869                      -0.01072
                       0.15087                      -0.27944                      -0.01118
                       0.15650                      -0.29604                      -0.01156
                       0.16071                      -0.30685                      -0.01190
                       0.16333                      -0.30995                      -0.01224
                       0.16415                      -0.30308                      -0.01263
                       0.16408                      -0.29685                      -0.01284
                       0.02278                      -0.04107                       0.00242
        </DataArray>
        <DataArray type="Float32" Name="OrientationX" NumberOfComponents="3" format="ascii">
                       0.95802                       0.22865                      -0.17294
                       0.95830                       0.22871                      -0.17132
                       0.95873                       0.22880                      -0.16878
                       0.96226                       0.21594                      -0.16560
                       0.96920                       0.18574                      -0.16169
                       0.97313                       0.16851                      -0.15692
                       0.97692                       0.15105                      -0.15106
                       0.98068                       0.13256                      -0.14384
                       0.98428                       0.11383                      -0.13504
                       0.98757                       0.09591                      -0.12456
                       0.99057                       0.07829                      -0.11244
                       0.99318                       0.06163                      -0.09899
                       0.99522                       0.04831                      -0.08485
                       0.99681                       0.03654                      -0.07093
                       0.99798                       0.02470                      -0.05856
                       0.99869                       0.01285                      -0.04957
                       0.99891                       0.00498                      -0.04644
                       0.99891                       0.00251                      -0.04670
                       0.95793                       0.22863                      -0.17348
        </DataArray>
        <DataArray type="Float32" Name="OrientationY" NumberOfComponents="3" format="ascii">
                       0.23128                      -0.97287                      -0.00510
                       0.23132                      -0.97287                      -0.00487
                       0.23137                      -0.97286                      -0.00455
                       0.21865                      -0.97580                      -0.00196
                       0.18878                      -0.98201                       0.00352
                       0.17168                      -0.98513                       0.00674
                       0.15429                      -0.98798                       0.00990
                       0.13583                      -0.99065                       0.01309
                       0.11705                      -0.99300                       0.01614
                       0.09901                      -0.99491                       0.01887
                       0.08118                      -0.99647                       0.02134
                       0.06425                      -0.99766                       0.02345
                       0.05060                      -0.99841                       0.02497
                       0.03848                      -0.99892                       0.02614
                       0.02632                      -0.99929                       0.02709
                       0.01425                      -0.99951                       0.02785
                       0.00629                      -0.99958                       0.02826
                       0.00384                      -0.99959                       0.02837
                       0.23126                      -0.97288                      -0.00519
        </DataArray>
        <DataArray type="Float32" Name="OrientationZ" NumberOfComponents="3" format="ascii">
                      -0.16942                      -0.03511                      -0.98492
                      -0.16779                      -0.03497                      -0.98520
                      -0.16524                      -0.03469                      -0.98564
                      -0.16202                      -0.03433                      -0.98619
                      -0.15813                      -0.03393                      -0.98683
                      -0.15345                      -0.03350                      -0.98759
                      -0.14775                      -0.03298                      -0.98848
                      -0.14076                      -0.03237                      -0.98951
                      -0.13226                      -0.03169                      -0.99071
                      -0.12211                      -0.03097                      -0.99203
                      -0.11038                      -0.03027                      -0.99343
                      -0.09731                      -0.02965                      -0.99481
                      -0.08351                      -0.02914                      -0.99608
                      -0.06990                      -0.02878                      -0.99714
                      -0.05785                      -0.02858                      -0.99792
                      -0.04918                      -0.02852                      -0.99838
                      -0.04628                      -0.02852                      -0.99852
                      -0.04661                      -0.02852                      -0.99851
                      -0.16996                      -0.03515                      -0.98482
        </DataArray>
      </PointData>
      <Lines>
        <DataArray type="Int32" Name="connectivity" format="ascii">
      0      1
      1      2
      2      3
      3      4
      4      5
      5      6
      6      7
      7      8
      8      9
      9     10
     10     11
     11     12
     12     13
     13     14
     14     15
     15     16
     16     17
     18      0
        </DataArray>
        <DataArray type="Int32" Name="offsets" format="ascii">
      2
      4
      6
      8
     10
     12
     14
     16
     18
     20
     22
     24
     26
     28
     30
     32
     34
     36
        </DataArray>
      </Lines>
    </Piece>
  </PolyData>
</VTKFile>
