<?xml version="1.0"?>
<VTKFile type="PolyData" version="0.1" byte_order="LittleEndian">
  <PolyData>
    <Piece NumberOfPoints="     17" NumberOfVerts="  0" NumberOfLines="      0"
           NumberOfStrips="  0" NumberOfPolys="      0">
      <Points>
        <DataArray type="Float32" NumberOfComponents="3" format="ascii">
                       3.00857                       0.78906                      93.33361
                       3.26911                       1.67284                      96.83195
                       3.53869                       2.55448                     100.33015
                       3.82081                       3.43322                     103.82809
                       4.11843                       4.30863                     107.32557
                       4.43475                       5.18046                     110.82229
                       4.77374                       6.04845                     114.31785
                       5.14032                       6.91226                     117.81164
                       5.54041                       7.77159                     121.30285
                       5.98061                       8.62626                     124.79035
                       6.46763                       9.47623                     128.27276
                       7.00746                      10.32166                     131.74846
                       7.60426                      11.16291                     135.21587
                       8.25899                      12.00046                     138.67374
                       8.96777                      12.83503                     142.12174
                       9.72001                      13.66752                     145.56113
                      10.49622                      14.49900                     148.99550
        </DataArray>
      </Points>
      <PointData>
        <DataArray type="Float32" Name="Force" NumberOfComponents="3" format="ascii">
                     195.40739                      73.23788                     -32.93428
                     639.66571                     226.30861                    -106.48509
                    2488.29280                    -834.53172                      11.24035
                    4285.00854                   -1603.30339                      45.81176
                    2602.20795                    -895.06323                      -2.38907
                    5539.40193                   -1661.49625                     -94.47850
                    6601.23537                   -1704.64366                    -230.85502
                    7306.61940                   -1642.24726                    -385.38974
                    7784.54205                   -1554.42200                    -545.92160
                    9714.46573                   -1743.29309                    -857.52722
                   11094.81626                   -1819.77844                   -1194.41461
                   12561.29605                   -1951.26597                   -1595.77769
                    7178.18267                   -1072.53910                   -1019.72324
                   14289.29334                   -2044.64898                   -2247.10499
                   13753.54832                   -1860.61215                   -2396.18968
                   19463.99120                   -2411.32256                   -3681.71096
                    7885.01285                    -830.39107                   -1566.31665
        </DataArray>
        <DataArray type="Float32" Name="Moment" NumberOfComponents="3" format="ascii">
                     -20.24115                      23.07247                       0.91751
                     150.38853                     440.01762                     -57.59466
                    1012.73665                    2560.24437                    -374.78512
                    1314.50907                    3564.59576                      47.66544
                     102.84832                     391.01764                     463.56964
                    -839.39329                   -2433.60946                    1453.33172
                    -538.83092                   -1673.01090                     773.89370
                    -210.16038                    -246.30351                    -293.16716
                     -64.37168                     535.89088                    -706.64353
                      73.56578                    1520.47066                    -863.81025
                     429.70517                    4155.11727                   -1476.98862
                     886.79195                    7731.27568                   -1981.92746
                     -51.70161                    -460.48973                     237.77957
                   -1001.21654                   -9437.04670                    2704.76911
                    -816.25068                   -8753.02692                    2506.02458
                    -221.82616                   -1340.51433                     595.20197
                    -137.50207                      45.30806                     -86.42802
        </DataArray>
      </PointData>
    </Piece>
  </PolyData>
</VTKFile>
