<?xml version="1.0"?>
<VTKFile type="PolyData" version="0.1" byte_order="LittleEndian">
  <PolyData>
    <Piece NumberOfPoints="     19" NumberOfVerts="  0" NumberOfLines="     18"
           NumberOfStrips="  0" NumberOfPolys="      0">
      <Points>
        <DataArray type="Float32" NumberOfComponents="3" format="ascii">
                       2.62633                      -0.10718                      86.89278
                       2.01624                      -0.19179                      83.32795
                       1.41368                      -0.27551                      79.76182
                       0.82156                      -0.35790                      76.19392
                       0.24229                      -0.43875                      72.62387
                      -0.32150                      -0.51792                      69.05131
                      -0.86654                      -0.59519                      65.47581
                      -1.38873                      -0.67025                      61.89686
                      -1.88311                      -0.74282                      58.31392
                      -2.34406                      -0.81274                      54.72649
                      -2.76584                      -0.87997                      51.13420
                      -3.14323                      -0.94471                      47.53694
                      -3.47250                      -1.00734                      43.93492
                      -3.75259                      -1.06834                      40.32870
                      -3.98657                      -1.12827                      36.71913
                      -4.18328                      -1.18769                      33.10727
                      -4.35927                      -1.24697                      29.49430
                      -4.44469                      -1.27661                      27.68768
                       2.93285                      -0.06472                      88.67493
        </DataArray>
      </Points>
      <PointData>
        <DataArray type="Float32" Name="TranslationalVelocity" NumberOfComponents="3" format="ascii">
                      -0.03249                       3.03021                      -0.05902
                      -0.04101                       6.40368                      -0.13763
                      -0.05039                       9.78749                      -0.21548
                      -0.06036                      13.18428                      -0.29226
                      -0.07041                      16.59567                      -0.36789
                      -0.08118                      20.02222                      -0.44212
                      -0.09567                      23.46351                      -0.51428
                      -0.11978                      26.91834                      -0.58325
                      -0.16237                      30.38500                      -0.64764
                      -0.23495                      33.86153                      -0.70616
                      -0.35084                      37.34592                      -0.75790
                      -0.52385                      40.83628                      -0.80275
                      -0.76642                      44.33098                      -0.84154
                      -1.08731                      47.82854                      -0.87593
                      -1.48869                      51.32781                      -0.90801
                      -1.96268                      54.82806                      -0.93955
                      -2.48752                      58.32879                      -0.97100
                      -2.75892                      60.07922                      -0.98663
                      -0.02840                       1.34566                      -0.01958
        </DataArray>
        <DataArray type="Float32" Name="RotationalVelocity" NumberOfComponents="3" format="ascii">
                       0.92483                      -0.00054                      -0.11861
                       0.92715                      -0.00032                      -0.11901
                       0.93029                      -0.00002                      -0.11956
                       0.93400                       0.00007                      -0.12020
                       0.93800                       0.00009                      -0.12089
                       0.94199                       0.00057                      -0.12159
                       0.94575                       0.00227                      -0.12228
                       0.94909                       0.00605                      -0.12295
                       0.95195                       0.01271                      -0.12360
                       0.95432                       0.02288                      -0.12425
                       0.95626                       0.03688                      -0.12492
                       0.95788                       0.05458                      -0.12562
                       0.95927                       0.07529                      -0.12636
                       0.96046                       0.09761                      -0.12710
                       0.96148                       0.11931                      -0.12779
                       0.96224                       0.13720                      -0.12835
                       0.96252                       0.14701                      -0.12863
                       0.96249                       0.14928                      -0.12868
                       0.92391                      -0.00055                      -0.11845
        </DataArray>
        <DataArray type="Float32" Name="TranslationalAcceleration" NumberOfComponents="3" format="ascii">
                      -0.86763                       0.11899                       2.75729
                      -0.35159                       0.27725                       5.85938
                       0.19952                       0.45870                       8.97457
                       0.79990                       0.67000                      12.10568
                       1.46194                       0.91510                      15.25422
                       2.19720                       1.19564                      18.42016
                       3.01656                       1.51175                      21.60219
                       3.93047                       1.86261                      24.79819
                       4.94897                       2.24675                      28.00597
                       6.08130                       2.66258                      31.22422
                       7.33504                       3.10897                      34.45333
                       8.71487                       3.58556                      37.69603
                      10.22086                       4.09289                      40.95725
                      11.84613                       4.63177                      44.24293
                      13.57407                       5.20183                      47.55794
                      15.37487                       5.79922                      50.90275
                      17.20162                       6.41397                      54.26941
                      18.11442                       6.72398                      55.95655
                      -1.11880                       0.04466                       1.20909
        </DataArray>
        <DataArray type="Float32" Name="RotationalAcceleration" NumberOfComponents="3" format="ascii">
                       0.02129                      -0.02881                       0.00187
                       0.02661                      -0.03592                       0.00112
                       0.03421                      -0.04714                       0.00008
                       0.04331                      -0.06183                      -0.00114
                       0.05313                      -0.07974                      -0.00241
                       0.06320                      -0.10074                      -0.00364
                       0.07330                      -0.12469                      -0.00481
                       0.08315                      -0.15153                      -0.00587
                       0.09252                      -0.18109                      -0.00678
                       0.10121                      -0.21300                      -0.00752
                       0.10907                      -0.24658                      -0.00807
                       0.11593                      -0.28073                      -0.00844
                       0.12171                      -0.31383                      -0.00865
                       0.12635                      -0.34363                      -0.00874
                       0.12973                      -0.36718                      -0.00876
                       0.13175                      -0.38066                      -0.00879
                       0.13237                      -0.37934                      -0.00893
                       0.13232                      -0.37432                      -0.00904
                       0.01930                      -0.02639                       0.00216
        </DataArray>
        <DataArray type="Float32" Name="OrientationX" NumberOfComponents="3" format="ascii">
                       0.95836                       0.22922                      -0.17029
                       0.95864                       0.22925                      -0.16867
                       0.95907                       0.22931                      -0.16612
                       0.96258                       0.21642                      -0.16308
                       0.96948                       0.18616                      -0.15952
                       0.97338                       0.16887                      -0.15495
                       0.97714                       0.15133                      -0.14931
                       0.98087                       0.13275                      -0.14235
                       0.98443                       0.11391                      -0.13385
                       0.98768                       0.09587                      -0.12371
                       0.99064                       0.07809                      -0.11198
                       0.99320                       0.06127                      -0.09895
                       0.99522                       0.04778                      -0.08523
                       0.99678                       0.03583                      -0.07173
                       0.99793                       0.02384                      -0.05976
                       0.99862                       0.01188                      -0.05113
                       0.99883                       0.00396                      -0.04823
                       0.99882                       0.00150                      -0.04854
                       0.95827                       0.22920                      -0.17083
        </DataArray>
        <DataArray type="Float32" Name="OrientationY" NumberOfComponents="3" format="ascii">
                       0.22983                      -0.97309                      -0.01634
                       0.22987                      -0.97309                      -0.01614
                       0.22992                      -0.97308                      -0.01586
                       0.21718                      -0.97604                      -0.01335
                       0.18730                      -0.98227                      -0.00800
                       0.17018                      -0.98540                      -0.00486
                       0.15278                      -0.98826                      -0.00178
                       0.13431                      -0.99094                       0.00133
                       0.11552                      -0.99330                       0.00431
                       0.09747                      -0.99521                       0.00698
                       0.07964                      -0.99678                       0.00940
                       0.06271                      -0.99797                       0.01146
                       0.04905                      -0.99871                       0.01296
                       0.03694                      -0.99922                       0.01410
                       0.02478                      -0.99958                       0.01505
                       0.01271                      -0.99979                       0.01581
                       0.00475                      -0.99986                       0.01623
                       0.00230                      -0.99986                       0.01635
                       0.22982                      -0.97309                      -0.01642
        </DataArray>
        <DataArray type="Float32" Name="OrientationZ" NumberOfComponents="3" format="ascii">
                      -0.16946                      -0.02348                      -0.98526
                      -0.16783                      -0.02330                      -0.98554
                      -0.16529                      -0.02298                      -0.98598
                      -0.16207                      -0.02257                      -0.98652
                      -0.15818                      -0.02213                      -0.98716
                      -0.15351                      -0.02164                      -0.98791
                      -0.14783                      -0.02108                      -0.98879
                      -0.14088                      -0.02042                      -0.98982
                      -0.13247                      -0.01970                      -0.99099
                      -0.12245                      -0.01895                      -0.99229
                      -0.11089                      -0.01823                      -0.99367
                      -0.09805                      -0.01759                      -0.99503
                      -0.08450                      -0.01708                      -0.99628
                      -0.07117                      -0.01671                      -0.99732
                      -0.05938                      -0.01650                      -0.99810
                      -0.05094                      -0.01644                      -0.99857
                      -0.04815                      -0.01644                      -0.99870
                      -0.04851                      -0.01644                      -0.99869
                      -0.17000                      -0.02352                      -0.98516
        </DataArray>
      </PointData>
      <Lines>
        <DataArray type="Int32" Name="connectivity" format="ascii">
      0      1
      1      2
      2      3
      3      4
      4      5
      5      6
      6      7
      7      8
      8      9
      9     10
     10     11
     11     12
     12     13
     13     14
     14     15
     15     16
     16     17
     18      0
        </DataArray>
        <DataArray type="Int32" Name="offsets" format="ascii">
      2
      4
      6
      8
     10
     12
     14
     16
     18
     20
     22
     24
     26
     28
     30
     32
     34
     36
        </DataArray>
      </Lines>
    </Piece>
  </PolyData>
</VTKFile>
