<?xml version="1.0"?>
<VTKFile type="PolyData" version="0.1" byte_order="LittleEndian">
  <PolyData>
    <Piece NumberOfPoints="     17" NumberOfVerts="  0" NumberOfLines="      0"
           NumberOfStrips="  0" NumberOfPolys="      0">
      <Points>
        <DataArray type="Float32" NumberOfComponents="3" format="ascii">
                       3.19415                       3.04150                      91.39500
                       3.21289                       6.39279                      92.75731
                       3.23872                       9.74392                      94.11989
                       3.27437                      13.09480                      95.48285
                       3.32212                      16.44538                      96.84616
                       3.38444                      19.79565                      98.20966
                       3.46451                      23.14554                      99.57316
                       3.56635                      26.49492                     100.93642
                       3.69487                      29.84363                     102.29905
                       3.85558                      33.19145                     103.66043
                       4.05416                      36.53808                     105.01972
                       4.29571                      39.88313                     106.37588
                       4.58390                      43.22619                     107.72783
                       4.91977                      46.56687                     109.07471
                       5.30038                      49.90497                     110.41617
                       5.71725                      53.24075                     111.75275
                       6.15451                      56.57514                     113.08637
        </DataArray>
      </Points>
      <PointData>
        <DataArray type="Float32" Name="Force" NumberOfComponents="3" format="ascii">
                     154.45468                      25.97154                     -65.79114
                     492.25268                      89.83652                    -230.31430
                    1956.94170                    -179.94018                     393.65428
                    3416.57198                    -360.94409                     778.42709
                    2074.00565                    -196.64617                     401.28864
                    4398.63397                    -354.01561                     652.46930
                    5229.34168                    -358.37843                     545.66237
                    5752.66703                    -348.11175                     378.96788
                    6188.63482                    -358.36375                     228.83994
                    7897.45541                    -463.54529                      96.98274
                    9225.74299                    -585.22549                     -72.30572
                   10766.38496                    -781.09267                    -224.03131
                    6297.12339                    -504.80141                    -188.46661
                   12848.01525                   -1128.61652                    -503.92439
                   12777.87780                   -1230.02576                    -633.28664
                   18792.27922                   -1911.34628                   -1154.43721
                    7821.25460                    -773.01513                    -619.13551
        </DataArray>
        <DataArray type="Float32" Name="Moment" NumberOfComponents="3" format="ascii">
                     -19.44072                      10.04953                     -13.37129
                      68.12716                     183.29290                    -292.89679
                     569.35918                    1076.15451                   -1753.07692
                     670.14252                    1685.68317                   -2288.52816
                      23.79158                     368.86411                     -76.06952
                    -460.20540                    -544.17969                    2093.98107
                    -293.05618                    -762.76667                    1250.10939
                    -151.39317                    -979.00630                    -265.83310
                    -103.55944                    -863.96215                   -1017.53421
                     -98.45271                    -536.69308                   -1804.11022
                     -61.48482                     422.13353                   -3866.67190
                      -5.21856                    2199.04854                   -6591.43889
                     -15.66410                    -217.87039                     337.52010
                     -12.19238                   -3239.30741                    7869.68475
                      52.22738                   -2997.68488                    7575.64988
                     -64.55699                    -177.44289                     951.30462
                    -132.76285                     -18.76539                    -127.82158
        </DataArray>
      </PointData>
    </Piece>
  </PolyData>
</VTKFile>
