<?xml version="1.0"?>
<VTKFile type="PolyData" version="0.1" byte_order="LittleEndian">
  <PolyData>
    <Piece NumberOfPoints="     19" NumberOfVerts="  0" NumberOfLines="     18"
           NumberOfStrips="  0" NumberOfPolys="      0">
      <Points>
        <DataArray type="Float32" NumberOfComponents="3" format="ascii">
                       3.21553                       1.27657                      90.88902
                       3.24123                       2.46541                      91.56271
                       3.28186                       4.79594                      92.99412
                       3.32039                       7.10452                      94.46484
                       3.37240                       9.97763                      96.32619
                       3.48410                      13.49797                      98.42871
                       3.62243                      17.08343                     100.41378
                       3.77918                      20.67074                     102.39414
                       3.96150                      24.26059                     104.36763
                       4.17495                      27.85173                     106.33557
                       4.42117                      31.44203                     108.30104
                       4.71126                      35.03181                     110.26134
                       5.05069                      38.62063                     112.21536
                       5.44219                      42.20803                     114.16215
                       5.88617                      45.79354                     116.10106
                       6.28976                      48.78008                     117.71136
                       6.62838                      51.17236                     118.98985
                       6.96447                      53.59141                     120.22005
                       7.13662                      54.78052                     120.87125
        </DataArray>
      </Points>
      <PointData>
        <DataArray type="Float32" Name="Force" NumberOfComponents="3" format="ascii">
                      -0.03520                       0.15576                      -0.27512
                      68.84839                      10.57395                     -21.45292
                      80.20986                      26.04597                     -49.55654
                      67.73343                      34.41769                     -64.14087
                     700.41020                    -106.69898                     154.97488
                     961.04793                    -145.16621                     203.29033
                    1079.38833                    -129.56006                     158.88835
                    1357.50156                    -137.27842                     138.88247
                    1460.20142                    -125.91207                      90.35244
                    1676.10664                    -133.44523                      55.38134
                    2070.22210                    -158.31172                      13.57236
                    2387.54599                    -186.58231                     -34.77565
                    2819.25166                    -241.99342                     -76.80157
                    3147.25906                    -292.93387                    -130.17508
                    3476.14013                    -348.53273                    -185.74426
                    3698.20530                    -382.59210                    -235.92025
                    3666.45139                    -377.69926                    -264.53530
                    2686.51008                    -271.60898                    -210.68670
                    1111.05936                     -55.19919                    -190.74298
        </DataArray>
        <DataArray type="Float32" Name="Moment" NumberOfComponents="3" format="ascii">
                       0.00000                       0.00000                       0.00000
                       0.00000                       0.00000                       0.00000
                       0.00000                       0.00000                       0.00000
                       0.00000                       0.00000                       0.00000
                      -5.00666                    -179.74912                    -101.12821
                     -10.30834                    -320.55165                    -180.16822
                     -16.99186                    -454.40542                    -255.09722
                     -27.93391                    -638.12044                    -357.71134
                     -44.67286                    -865.66911                    -484.40107
                     -58.97024                    -964.07716                    -538.28747
                     -73.70594                   -1012.16391                    -563.62729
                     -91.41844                   -1060.12094                    -588.51277
                     -95.40724                    -945.48870                    -523.10085
                    -109.53479                    -945.24139                    -521.15311
                    -118.36679                    -913.10683                    -501.82932
                    -119.58435                    -863.79119                    -473.75241
                    -109.23631                    -766.31070                    -419.88583
                     -55.61043                    -386.03114                    -211.44414
                     -47.17663                    -328.24723                    -179.80769
        </DataArray>
        <DataArray type="Float32" Name="TranslationalVelocity" NumberOfComponents="3" format="ascii">
                       0.11270                      -0.73340                       1.22015
                       0.25320                      -1.35827                       2.31748
                       0.52898                      -2.68274                       4.46646
                       0.80341                      -4.03826                       6.58826
                       1.14716                      -5.74505                       9.21671
                       1.57217                      -7.66550                      12.41687
                       2.00882                      -9.46762                      15.65014
                       2.44739                     -11.25294                      18.85781
                       2.88381                     -13.02064                      22.04076
                       3.31154                     -14.77300                      25.19908
                       3.72444                     -16.51488                      28.33520
                       4.11231                     -18.24416                      31.44966
                       4.46596                     -19.96096                      34.54560
                       4.77786                     -21.66525                      37.62676
                       5.04434                     -23.35729                      40.69716
                       5.23414                     -24.75916                      43.25075
                       5.36797                     -25.87042                      45.29512
                       5.49566                     -26.93933                      47.36226
                       5.55602                     -27.50472                      48.37862
        </DataArray>
        <DataArray type="Float32" Name="RotationalVelocity" NumberOfComponents="3" format="ascii">
                       0.92411                      -0.00080                      -0.11842
                       0.92300                      -0.00069                      -0.11858
                       0.92027                      -0.00044                      -0.11891
                       0.91692                      -0.00014                      -0.11931
                       0.91183                       0.00031                      -0.11993
                       0.90490                       0.00092                      -0.12073
                       0.89755                       0.00139                      -0.12129
                       0.89011                       0.00151                      -0.12122
                       0.88285                       0.00105                      -0.12013
                       0.87597                      -0.00024                      -0.11758
                       0.86971                      -0.00265                      -0.11306
                       0.86417                      -0.00614                      -0.10666
                       0.85949                      -0.01060                      -0.09856
                       0.85575                      -0.01572                      -0.08933
                       0.85305                      -0.02096                      -0.07992
                       0.85168                      -0.02478                      -0.07310
                       0.85115                      -0.02698                      -0.06917
                       0.85105                      -0.02838                      -0.06669
                       0.85114                      -0.02872                      -0.06608
        </DataArray>
        <DataArray type="Float32" Name="TranslationalAcceleration" NumberOfComponents="3" format="ascii">
                      -1.39517                      -1.11410                      -0.62264
                      -1.48169                      -2.15016                      -1.18727
                      -1.66621                      -4.17541                      -2.38889
                      -1.85935                      -6.15976                      -3.62832
                      -2.11104                      -8.58956                      -5.20453
                      -2.41649                     -11.50362                      -7.00666
                      -2.73304                     -14.39789                      -8.73924
                      -3.06043                     -17.21638                     -10.49452
                      -3.35731                     -19.96276                     -12.27056
                      -3.55360                     -22.64244                     -14.06900
                      -3.58133                     -25.26835                     -15.89290
                      -3.31936                     -27.84671                     -17.75147
                      -2.65561                     -30.39390                     -19.65835
                      -1.49589                     -32.92983                     -21.63025
                       0.20982                     -35.47596                     -23.68175
                       2.02347                     -37.61627                     -25.45381
                       3.70180                     -39.34657                     -26.90572
                       5.50222                     -41.10853                     -28.34533
                       6.41527                     -41.97173                     -29.09169
        </DataArray>
        <DataArray type="Float32" Name="OrientationX" NumberOfComponents="3" format="ascii">
                       0.99247                      -0.07562                       0.09634
                       0.99246                      -0.07595                       0.09616
                       0.99244                      -0.07688                       0.09563
                       0.99241                      -0.07816                       0.09492
                       0.99236                      -0.08028                       0.09373
                       0.99562                      -0.06801                       0.06423
                       0.99727                      -0.06075                       0.04200
                       0.99820                      -0.05580                       0.02179
                       0.99868                      -0.05141                      -0.00007
                       0.99857                      -0.04807                      -0.02321
                       0.99783                      -0.04691                      -0.04620
                       0.99645                      -0.04719                      -0.06978
                       0.99452                      -0.04937                      -0.09218
                       0.99238                      -0.05395                      -0.11075
                       0.99002                      -0.05769                      -0.12856
                       0.98808                      -0.05875                      -0.14229
                       0.98678                      -0.05768                      -0.15146
                       0.98612                      -0.05657                      -0.15607
                       0.98616                      -0.05632                      -0.15593
        </DataArray>
        <DataArray type="Float32" Name="OrientationY" NumberOfComponents="3" format="ascii">
                       0.12104                       0.48528                      -0.86594
                       0.12104                       0.48516                      -0.86601
                       0.12103                       0.48484                      -0.86619
                       0.12102                       0.48446                      -0.86640
                       0.12100                       0.48386                      -0.86674
                       0.08926                       0.48543                      -0.86971
                       0.06631                       0.48606                      -0.87141
                       0.04623                       0.48638                      -0.87252
                       0.02500                       0.48669                      -0.87322
                       0.00314                       0.48699                      -0.87340
                      -0.01752                       0.48724                      -0.87309
                      -0.03800                       0.48753                      -0.87228
                      -0.05652                       0.48784                      -0.87110
                      -0.07055                       0.48808                      -0.86994
                      -0.08432                       0.48846                      -0.86850
                      -0.09579                       0.48891                      -0.86706
                      -0.10429                       0.48932                      -0.86584
                      -0.10884                       0.48955                      -0.86515
                      -0.10884                       0.48955                      -0.86515
        </DataArray>
        <DataArray type="Float32" Name="OrientationZ" NumberOfComponents="3" format="ascii">
                       0.01873                       0.87108                       0.49078
                       0.01912                       0.87112                       0.49069
                       0.02023                       0.87122                       0.49048
                       0.02173                       0.87132                       0.49024
                       0.02423                       0.87145                       0.48988
                       0.02797                       0.87163                       0.48937
                       0.03253                       0.87181                       0.48876
                       0.03809                       0.87196                       0.48808
                       0.04493                       0.87206                       0.48733
                       0.05328                       0.87208                       0.48645
                       0.06347                       0.87201                       0.48536
                       0.07518                       0.87183                       0.48401
                       0.08797                       0.87153                       0.48238
                       0.10099                       0.87113                       0.48055
                       0.11290                       0.87068                       0.47872
                       0.12051                       0.87035                       0.47746
                       0.12405                       0.87019                       0.47684
                       0.12535                       0.87014                       0.47660
                       0.12506                       0.87015                       0.47665
        </DataArray>
      </PointData>
      <Lines>
        <DataArray type="Int32" Name="connectivity" format="ascii">
      0      1
      1      2
      2      3
      3      4
      4      5
      5      6
      6      7
      7      8
      8      9
      9     10
     10     11
     11     12
     12     13
     13     14
     14     15
     15     16
     16     17
     17     18
        </DataArray>
        <DataArray type="Int32" Name="offsets" format="ascii">
      2
      4
      6
      8
     10
     12
     14
     16
     18
     20
     22
     24
     26
     28
     30
     32
     34
     36
        </DataArray>
      </Lines>
    </Piece>
  </PolyData>
</VTKFile>
