<?xml version="1.0"?>
<VTKFile type="PolyData" version="0.1" byte_order="LittleEndian">
  <PolyData>
    <Piece NumberOfPoints="     19" NumberOfVerts="  0" NumberOfLines="     18"
           NumberOfStrips="  0" NumberOfPolys="      0">
      <Points>
        <DataArray type="Float32" NumberOfComponents="3" format="ascii">
                       2.65253                       0.91477                      88.98310
                       2.46573                       1.76760                      87.93160
                       2.07811                       3.54637                      85.89007
                       1.68704                       5.35900                      83.87611
                       1.20149                       7.64422                      81.37290
                       0.67371                      10.27318                      78.26800
                       0.17806                      12.79733                      75.07373
                      -0.29794                      15.31593                      71.87214
                      -0.74635                      17.82800                      68.66153
                      -1.16051                      20.33552                      65.44292
                      -1.53791                      22.84196                      62.21914
                      -1.86523                      25.34599                      58.98819
                      -2.13510                      27.84732                      55.74997
                      -2.34321                      30.34537                      52.50481
                      -2.48842                      32.83962                      49.25342
                      -2.56844                      34.91525                      46.54020
                      -2.61229                      36.56779                      44.36309
                      -2.65468                      38.17635                      42.15192
                      -2.67310                      39.01347                      41.07183
        </DataArray>
      </Points>
      <PointData>
        <DataArray type="Float32" Name="Force" NumberOfComponents="3" format="ascii">
                      -0.03346                      -0.35197                      -0.27818
                      63.98964                      -8.59392                     -18.24733
                      83.22144                     -31.24933                     -39.79245
                      74.48692                     -47.48633                     -51.19209
                     813.78271                     280.21876                      88.18420
                    1004.01542                     301.92545                      78.68213
                    1188.38350                     303.02617                      56.81092
                    1539.00287                     337.15671                      40.95801
                    1705.39572                     314.50232                      14.26321
                    1981.91789                     309.83717                      -4.42381
                    2441.56932                     314.94493                     -22.73811
                    2806.88887                     293.76948                     -32.18736
                    3246.33581                     278.29600                     -24.13730
                    3539.21670                     229.46635                     -15.40925
                    3772.62077                     168.92474                      -7.53141
                    3878.85850                     110.04976                     -12.01656
                    3748.30681                      57.53519                     -28.73818
                    2700.21610                      14.58284                     -35.51898
                    1290.93601                     -79.41825                     -85.68321
        </DataArray>
        <DataArray type="Float32" Name="Moment" NumberOfComponents="3" format="ascii">
                       0.00000                       0.00000                       0.00000
                       0.00000                       0.00000                       0.00000
                       0.00000                       0.00000                       0.00000
                       0.00000                       0.00000                       0.00000
                      46.12219                    -219.66271                     272.38632
                      56.57742                    -278.04970                     345.00440
                      69.86351                    -357.12370                     443.45677
                      90.71554                    -487.72596                     606.19656
                     112.18781                    -644.72472                     802.26058
                     115.82002                    -727.90831                     907.07386
                     107.38906                    -763.68970                     953.36124
                      96.29506                    -809.16615                    1012.23585
                      70.78916                    -744.76629                     933.82011
                      52.26755                    -743.41508                     934.33821
                      34.09183                    -720.89381                     908.02875
                      22.18481                    -687.27372                     866.92224
                      15.26363                    -609.87675                     769.82622
                       6.77169                    -307.67291                     388.47651
                       5.92613                    -265.95715                     335.79628
        </DataArray>
        <DataArray type="Float32" Name="TranslationalVelocity" NumberOfComponents="3" format="ascii">
                      -0.51215                       1.09116                       0.80537
                      -0.40050                       2.07749                       1.58550
                      -0.17069                       3.99589                       3.21346
                       0.06072                       5.89150                       4.87501
                       0.34870                       8.25126                       6.97449
                       0.67744                      11.17636                       9.39734
                       0.98847                      14.18884                      11.73178
                       1.29256                      17.21505                      14.06931
                       1.59329                      20.25624                      16.40877
                       1.89730                      23.31112                      18.75136
                       2.21180                      26.37586                      21.09883
                       2.54746                      29.45152                      23.44979
                       2.91495                      32.53629                      25.80303
                       3.32355                      35.62762                      28.15728
                       3.77881                      38.72233                      30.51156
                       4.19253                      41.30188                      32.47294
                       4.54322                      43.36972                      34.03548
                       4.90081                      45.46961                      35.55617
                       5.08449                      46.49500                      36.34768
        </DataArray>
        <DataArray type="Float32" Name="RotationalVelocity" NumberOfComponents="3" format="ascii">
                       0.91799                      -0.01692                      -0.11045
                       0.91841                      -0.01669                      -0.11034
                       0.91946                      -0.01616                      -0.11009
                       0.92073                      -0.01548                      -0.10977
                       0.92266                      -0.01440                      -0.10923
                       0.92527                      -0.01280                      -0.10841
                       0.92809                      -0.01121                      -0.10763
                       0.93099                      -0.01003                      -0.10719
                       0.93391                      -0.00972                      -0.10746
                       0.93676                      -0.01078                      -0.10881
                       0.93942                      -0.01377                      -0.11170
                       0.94178                      -0.01872                      -0.11612
                       0.94375                      -0.02552                      -0.12195
                       0.94523                      -0.03370                      -0.12882
                       0.94620                      -0.04240                      -0.13601
                       0.94658                      -0.04898                      -0.14139
                       0.94666                      -0.05298                      -0.14463
                       0.94658                      -0.05573                      -0.14685
                       0.94650                      -0.05655                      -0.14749
        </DataArray>
        <DataArray type="Float32" Name="TranslationalAcceleration" NumberOfComponents="3" format="ascii">
                       0.33840                      -1.11954                       0.96100
                       0.42193                      -1.85135                       1.86847
                       0.58400                      -3.36396                       3.64849
                       0.75375                      -4.86187                       5.45580
                       0.98924                      -6.67395                       7.79388
                       1.33410                      -8.61130                      10.81266
                       1.76131                     -10.27325                      14.05082
                       2.26889                     -11.74741                      17.45036
                       2.84406                     -13.03847                      21.00901
                       3.45263                     -14.16162                      24.72050
                       4.04690                     -15.15073                      28.56247
                       4.56290                     -16.00607                      32.54354
                       4.92577                     -16.74323                      36.65333
                       5.06428                     -17.37554                      40.87713
                       4.92619                     -17.91611                      45.19418
                       4.59432                     -18.30934                      48.84336
                       4.19227                     -18.58562                      51.78722
                       3.70398                     -18.79133                      54.74676
                       3.44414                     -18.93777                      56.22288
        </DataArray>
        <DataArray type="Float32" Name="OrientationX" NumberOfComponents="3" format="ascii">
                       0.97841                       0.20656                      -0.00678
                       0.97846                       0.20632                      -0.00648
                       0.97861                       0.20565                      -0.00564
                       0.97881                       0.20472                      -0.00449
                       0.97914                       0.20318                      -0.00258
                       0.98408                       0.17659                      -0.01990
                       0.98726                       0.15608                      -0.03085
                       0.98980                       0.13700                      -0.03901
                       0.99215                       0.11602                      -0.04664
                       0.99422                       0.09332                      -0.05313
                       0.99591                       0.07005                      -0.05701
                       0.99720                       0.04564                      -0.05916
                       0.99803                       0.02179                      -0.05889
                       0.99846                       0.00115                      -0.05542
                       0.99844                      -0.01863                      -0.05261
                       0.99807                      -0.03352                      -0.05231
                       0.99761                      -0.04309                      -0.05401
                       0.99732                      -0.04789                      -0.05533
                       0.99732                      -0.04778                      -0.05547
        </DataArray>
        <DataArray type="Float32" Name="OrientationY" NumberOfComponents="3" format="ascii">
                       0.15500                      -0.75511                      -0.63701
                       0.15505                      -0.75530                      -0.63677
                       0.15515                      -0.75579                      -0.63617
                       0.15528                      -0.75638                      -0.63544
                       0.15547                      -0.75728                      -0.63432
                       0.12440                      -0.76456                      -0.63243
                       0.10199                      -0.76967                      -0.63024
                       0.08237                      -0.77391                      -0.62791
                       0.06156                      -0.77785                      -0.62542
                       0.04005                      -0.78133                      -0.62283
                       0.01964                      -0.78412                      -0.62030
                      -0.00067                      -0.78631                      -0.61784
                      -0.01913                      -0.78781                      -0.61562
                      -0.03316                      -0.78872                      -0.61385
                      -0.04699                      -0.78920                      -0.61234
                      -0.05855                      -0.78923                      -0.61130
                      -0.06714                      -0.78905                      -0.61065
                      -0.07174                      -0.78890                      -0.61032
                      -0.07174                      -0.78890                      -0.61032
        </DataArray>
        <DataArray type="Float32" Name="OrientationZ" NumberOfComponents="3" format="ascii">
                      -0.13670                       0.62221                      -0.77082
                      -0.13628                       0.62205                      -0.77103
                      -0.13509                       0.62169                      -0.77153
                      -0.13348                       0.62128                      -0.77214
                      -0.13084                       0.62068                      -0.77307
                      -0.12690                       0.61989                      -0.77436
                      -0.12212                       0.61907                      -0.77579
                      -0.11622                       0.61830                      -0.77730
                      -0.10884                       0.61764                      -0.77889
                      -0.09963                       0.61710                      -0.78055
                      -0.08815                       0.61664                      -0.78229
                      -0.07472                       0.61615                      -0.78408
                      -0.05981                       0.61553                      -0.78584
                      -0.04442                       0.61475                      -0.78747
                      -0.03011                       0.61386                      -0.78884
                      -0.02079                       0.61318                      -0.78967
                      -0.01630                       0.61281                      -0.79006
                      -0.01443                       0.61265                      -0.79022
                      -0.01460                       0.61266                      -0.79021
        </DataArray>
      </PointData>
      <Lines>
        <DataArray type="Int32" Name="connectivity" format="ascii">
      0      1
      1      2
      2      3
      3      4
      4      5
      5      6
      6      7
      7      8
      8      9
      9     10
     10     11
     11     12
     12     13
     13     14
     14     15
     15     16
     16     17
     17     18
        </DataArray>
        <DataArray type="Int32" Name="offsets" format="ascii">
      2
      4
      6
      8
     10
     12
     14
     16
     18
     20
     22
     24
     26
     28
     30
     32
     34
     36
        </DataArray>
      </Lines>
    </Piece>
  </PolyData>
</VTKFile>
