<?xml version="1.0"?>
<VTKFile type="PolyData" version="0.1" byte_order="LittleEndian">
  <PolyData>
    <Piece NumberOfPoints="     19" NumberOfVerts="  0" NumberOfLines="     18"
           NumberOfStrips="  0" NumberOfPolys="      0">
      <Points>
        <DataArray type="Float32" NumberOfComponents="3" format="ascii">
                       2.62443                      -2.76050                      88.32771
                       2.22927                      -5.77856                      86.37258
                       1.83441                      -8.79650                      84.41721
                       1.43997                     -11.81430                      82.46153
                       1.04606                     -14.83194                      80.50550
                       0.65280                     -17.84941                      78.54908
                       0.26028                     -20.86672                      76.59225
                      -0.13137                     -23.88386                      74.63501
                      -0.52205                     -26.90086                      72.67734
                      -0.91163                     -29.91772                      70.71924
                      -1.30004                     -32.93446                      68.76072
                      -1.68720                     -35.95110                      66.80180
                      -2.07310                     -38.96766                      64.84252
                      -2.45779                     -41.98416                      62.88290
                      -2.84144                     -45.00062                      60.92301
                      -3.22434                     -48.01706                      58.96294
                      -3.60695                     -51.03347                      57.00278
                      -3.79826                     -52.54168                      56.02270
                       2.82206                      -1.25145                      89.30523
        </DataArray>
      </Points>
      <PointData>
        <DataArray type="Float32" Name="TranslationalVelocity" NumberOfComponents="3" format="ascii">
                      -0.29369                       1.70962                      -2.59298
                      -0.62481                       3.58481                      -5.42070
                      -0.94677                       5.46415                      -8.25629
                      -1.25568                       7.34882                     -11.10220
                      -1.54801                       9.23944                     -13.96006
                      -1.82027                      11.13625                     -16.83086
                      -2.06895                      13.03924                     -19.71526
                      -2.29049                      14.94822                     -22.61368
                      -2.48127                      16.86287                     -25.52629
                      -2.63782                      18.78270                     -28.45305
                      -2.75713                      20.70714                     -31.39363
                      -2.83719                      22.63552                     -34.34742
                      -2.87749                      24.56714                     -37.31343
                      -2.87988                      26.50129                     -40.29025
                      -2.84941                      28.43730                     -43.27592
                      -2.79530                      30.37454                     -46.26778
                      -2.73221                      32.31247                     -49.26232
                      -2.70061                      33.28155                     -50.75976
                      -0.12637                       0.77289                      -1.18073
        </DataArray>
        <DataArray type="Float32" Name="RotationalVelocity" NumberOfComponents="3" format="ascii">
                       0.93550                      -0.00274                      -0.11265
                       0.93749                      -0.00399                      -0.11113
                       0.94036                      -0.00596                      -0.10868
                       0.94383                      -0.00852                      -0.10543
                       0.94764                      -0.01164                      -0.10138
                       0.95164                      -0.01530                      -0.09653
                       0.95574                      -0.01950                      -0.09087
                       0.95988                      -0.02426                      -0.08437
                       0.96396                      -0.02955                      -0.07702
                       0.96793                      -0.03534                      -0.06888
                       0.97169                      -0.04151                      -0.06012
                       0.97517                      -0.04787                      -0.05100
                       0.97827                      -0.05413                      -0.04197
                       0.98089                      -0.05985                      -0.03366
                       0.98289                      -0.06449                      -0.02692
                       0.98409                      -0.06729                      -0.02284
                       0.98432                      -0.06733                      -0.02281
                       0.98417                      -0.06654                      -0.02400
                       0.93475                      -0.00232                      -0.11316
        </DataArray>
        <DataArray type="Float32" Name="TranslationalAcceleration" NumberOfComponents="3" format="ascii">
                       0.57581                       2.11557                       1.87788
                       0.93579                       4.67110                       3.80459
                       1.43540                       7.32323                       5.58175
                       2.13641                      10.09858                       7.16423
                       3.09616                      13.01243                       8.52233
                       4.37050                      16.07082                       9.63867
                       6.01257                      19.27433                      10.50373
                       8.07260                      22.61977                      11.11379
                      10.59765                      26.10045                      11.47054
                      13.62880                      29.70708                      11.58040
                      17.19684                      33.42848                      11.45430
                      21.31655                      37.25190                      11.10802
                      25.97932                      41.16364                      10.56252
                      31.14416                      45.14933                       9.84462
                      36.72749                      49.19352                       8.98867
                      42.59120                      53.27916                       8.03866
                      48.52900                      57.38738                       7.05039
                      51.48591                      59.44467                       6.55447
                       0.42252                       0.85791                       0.88378
        </DataArray>
        <DataArray type="Float32" Name="RotationalAcceleration" NumberOfComponents="3" format="ascii">
                      -0.07854                      -0.00117                       0.02836
                      -0.03827                      -0.02091                       0.05069
                       0.01902                      -0.05210                       0.08726
                       0.08792                      -0.09307                       0.13657
                       0.16335                      -0.14321                       0.19872
                       0.24194                      -0.20193                       0.27348
                       0.32180                      -0.26851                       0.36012
                       0.40102                      -0.34246                       0.45826
                       0.47798                      -0.42298                       0.56702
                       0.55133                      -0.50879                       0.68466
                       0.61978                      -0.59783                       0.80828
                       0.68200                      -0.68708                       0.93348
                       0.73668                      -0.77225                       1.05391
                       0.78230                      -0.84760                       1.16101
                       0.81671                      -0.90569                       1.24373
                       0.83726                      -0.93710                       1.28807
                       0.84081                      -0.93016                       1.27664
                       0.83791                      -0.91550                       1.25459
                      -0.09371                       0.00555                       0.02105
        </DataArray>
        <DataArray type="Float32" Name="OrientationX" NumberOfComponents="3" format="ascii">
                       0.93932                       0.09120                      -0.33070
                       0.93933                       0.09126                      -0.33066
                       0.93934                       0.09137                      -0.33059
                       0.94360                       0.08425                      -0.32018
                       0.95286                       0.06748                      -0.29582
                       0.95774                       0.05797                      -0.28173
                       0.96238                       0.04835                      -0.26737
                       0.96695                       0.03818                      -0.25208
                       0.97123                       0.02788                      -0.23650
                       0.97500                       0.01804                      -0.22147
                       0.97839                       0.00836                      -0.20658
                       0.98131                      -0.00078                      -0.19241
                       0.98346                      -0.00808                      -0.18092
                       0.98521                      -0.01455                      -0.17071
                       0.98681                      -0.02107                      -0.16049
                       0.98824                      -0.02763                      -0.15039
                       0.98909                      -0.03202                      -0.14379
                       0.98933                      -0.03341                      -0.14178
                       0.93932                       0.09117                      -0.33071
        </DataArray>
        <DataArray type="Float32" Name="OrientationY" NumberOfComponents="3" format="ascii">
                       0.32518                      -0.54376                       0.77368
                       0.32517                      -0.54379                       0.77367
                       0.32517                      -0.54383                       0.77364
                       0.31263                      -0.54504                       0.77794
                       0.28323                      -0.54744                       0.78746
                       0.26634                      -0.54860                       0.79253
                       0.24915                      -0.54960                       0.79741
                       0.23089                      -0.55046                       0.80230
                       0.21231                      -0.55114                       0.80695
                       0.19445                      -0.55160                       0.81112
                       0.17679                      -0.55188                       0.81497
                       0.16002                      -0.55198                       0.81836
                       0.14648                      -0.55195                       0.82091
                       0.13446                      -0.55184                       0.82304
                       0.12240                      -0.55164                       0.82505
                       0.11042                      -0.55136                       0.82693
                       0.10254                      -0.55113                       0.82809
                       0.10011                      -0.55105                       0.82845
                       0.32518                      -0.54375                       0.77369
        </DataArray>
        <DataArray type="Float32" Name="OrientationZ" NumberOfComponents="3" format="ascii">
                      -0.10926                      -0.83427                      -0.54042
                      -0.10920                      -0.83425                      -0.54047
                      -0.10910                      -0.83421                      -0.54055
                      -0.10897                      -0.83417                      -0.54064
                      -0.10880                      -0.83412                      -0.54074
                      -0.10861                      -0.83407                      -0.54085
                      -0.10839                      -0.83403                      -0.54097
                      -0.10813                      -0.83399                      -0.54109
                      -0.10785                      -0.83395                      -0.54120
                      -0.10753                      -0.83391                      -0.54132
                      -0.10720                      -0.83388                      -0.54144
                      -0.10684                      -0.83386                      -0.54154
                      -0.10650                      -0.83384                      -0.54164
                      -0.10618                      -0.83382                      -0.54172
                      -0.10592                      -0.83381                      -0.54179
                      -0.10576                      -0.83381                      -0.54183
                      -0.10576                      -0.83380                      -0.54183
                      -0.10581                      -0.83380                      -0.54183
                      -0.10928                      -0.83428                      -0.54040
        </DataArray>
      </PointData>
      <Lines>
        <DataArray type="Int32" Name="connectivity" format="ascii">
      0      1
      1      2
      2      3
      3      4
      4      5
      5      6
      6      7
      7      8
      8      9
      9     10
     10     11
     11     12
     12     13
     13     14
     14     15
     15     16
     16     17
     18      0
        </DataArray>
        <DataArray type="Int32" Name="offsets" format="ascii">
      2
      4
      6
      8
     10
     12
     14
     16
     18
     20
     22
     24
     26
     28
     30
     32
     34
     36
        </DataArray>
      </Lines>
    </Piece>
  </PolyData>
</VTKFile>
