<?xml version="1.0"?>
<VTKFile type="PolyData" version="0.1" byte_order="LittleEndian">
  <PolyData>
    <Piece NumberOfPoints="     19" NumberOfVerts="  0" NumberOfLines="     18"
           NumberOfStrips="  0" NumberOfPolys="      0">
      <Points>
        <DataArray type="Float32" NumberOfComponents="3" format="ascii">
                       3.10510                       3.18848                      90.95292
                       3.06270                       6.69558                      91.83940
                       3.02812                      10.20279                      92.72574
                       3.00438                      13.71012                      93.61197
                       2.99396                      17.21757                      94.49798
                       2.99955                      20.72513                      95.38358
                       3.02455                      24.23276                      96.26856
                       3.07323                      27.74034                      97.15269
                       3.15076                      31.24771                      98.03559
                       3.26296                      34.75458                      98.91665
                       3.41578                      38.26057                      99.79506
                       3.61457                      41.76516                     100.66982
                       3.86310                      45.26774                     101.53990
                       4.16238                      48.76772                     102.40450
                       4.50917                      52.26478                     103.26336
                       4.89432                      55.75914                     104.11713
                       5.30090                      59.25186                     104.96785
                       5.50688                      60.99801                     105.39281
                       3.12783                       1.43497                      90.50963
        </DataArray>
      </Points>
      <PointData>
        <DataArray type="Float32" Name="TranslationalVelocity" NumberOfComponents="3" format="ascii">
                       0.65474                      -0.75598                       2.98911
                       1.06380                      -1.56723                       6.21812
                       1.46701                      -2.38276                       9.46089
                       1.86234                      -3.20377                      12.72077
                       2.24847                      -4.03093                      15.99981
                       2.62453                      -4.86453                      19.29909
                       2.98979                      -5.70470                      22.61886
                       3.34354                      -6.55145                      25.95877
                       3.68515                      -7.40458                      29.31801
                       4.01408                      -8.26363                      32.69550
                       4.32993                      -9.12781                      36.08986
                       4.63259                      -9.99601                      39.49949
                       4.92240                     -10.86687                      42.92249
                       5.20035                     -11.73900                      46.35664
                       5.46837                     -12.61119                      49.79944
                       5.72964                     -13.48273                      53.24812
                       5.98896                     -14.35377                      56.69960
                       6.11885                     -14.78924                      58.42563
                       0.44904                      -0.35125                       1.37754
        </DataArray>
        <DataArray type="Float32" Name="RotationalVelocity" NumberOfComponents="3" format="ascii">
                       0.91894                       0.00819                      -0.11524
                       0.92227                       0.00791                      -0.11397
                       0.92678                       0.00750                      -0.11207
                       0.93202                       0.00697                      -0.10971
                       0.93769                       0.00638                      -0.10709
                       0.94356                       0.00575                      -0.10428
                       0.94940                       0.00507                      -0.10127
                       0.95510                       0.00434                      -0.09808
                       0.96057                       0.00357                      -0.09475
                       0.96575                       0.00277                      -0.09129
                       0.97061                       0.00195                      -0.08778
                       0.97511                       0.00113                      -0.08432
                       0.97915                       0.00036                      -0.08103
                       0.98264                      -0.00033                      -0.07814
                       0.98541                      -0.00085                      -0.07592
                       0.98724                      -0.00113                      -0.07472
                       0.98779                      -0.00105                      -0.07499
                       0.98770                      -0.00091                      -0.07555
                       0.91763                       0.00829                      -0.11569
        </DataArray>
        <DataArray type="Float32" Name="TranslationalAcceleration" NumberOfComponents="3" format="ascii">
                      -0.64768                      -2.98888                      -0.39822
                      -0.65676                      -6.08777                      -0.83168
                      -0.67496                      -9.17183                      -1.42681
                      -0.70932                     -12.23730                      -2.22395
                      -0.76952                     -15.28219                      -3.24675
                      -0.86589                     -18.30595                      -4.50577
                      -1.00561                     -21.30871                      -6.00195
                      -1.19141                     -24.29101                      -7.72938
                      -1.42195                     -27.25370                      -9.67732
                      -1.69161                     -30.19788                     -11.83190
                      -1.99085                     -33.12495                     -14.17731
                      -2.30697                     -36.03673                     -16.69639
                      -2.62516                     -38.93561                     -19.37071
                      -2.92997                     -41.82457                     -22.18000
                      -3.20712                     -44.70715                     -25.10102
                      -3.44577                     -47.58710                     -28.10568
                      -3.64061                     -50.46775                     -31.15851
                      -3.72684                     -51.90860                     -32.69198
                      -0.64467                      -1.43632                      -0.21571
        </DataArray>
        <DataArray type="Float32" Name="RotationalAcceleration" NumberOfComponents="3" format="ascii">
                       0.10932                      -0.02449                      -0.02359
                       0.07194                      -0.02535                      -0.02221
                       0.02108                      -0.02676                      -0.01935
                      -0.03827                      -0.02883                      -0.01435
                      -0.10204                      -0.03170                      -0.00640
                      -0.16719                      -0.03524                       0.00411
                      -0.23153                      -0.03909                       0.01590
                      -0.29353                      -0.04296                       0.02790
                      -0.35220                      -0.04657                       0.03901
                      -0.40695                      -0.04961                       0.04810
                      -0.45746                      -0.05183                       0.05421
                      -0.50342                      -0.05307                       0.05663
                      -0.54441                      -0.05320                       0.05498
                      -0.57969                      -0.05224                       0.04928
                      -0.60800                      -0.05031                       0.04013
                      -0.62741                      -0.04768                       0.02869
                      -0.63511                      -0.04476                       0.01671
                      -0.63562                      -0.04328                       0.01083
                       0.12395                      -0.02420                      -0.02398
        </DataArray>
        <DataArray type="Float32" Name="OrientationX" NumberOfComponents="3" format="ascii">
                       0.99383                      -0.01490                       0.10990
                       0.99385                      -0.01652                       0.10950
                       0.99388                      -0.01906                       0.10885
                       0.99528                      -0.01903                       0.09520
                       0.99781                      -0.01534                       0.06428
                       0.99882                      -0.01569                       0.04599
                       0.99948                      -0.01701                       0.02722
                       0.99979                      -0.01937                       0.00711
                       0.99964                      -0.02316                      -0.01360
                       0.99901                      -0.02876                      -0.03392
                       0.99787                      -0.03599                      -0.05434
                       0.99625                      -0.04472                      -0.07412
                       0.99435                      -0.05498                      -0.09081
                       0.99223                      -0.06538                      -0.10589
                       0.98993                      -0.07422                      -0.12057
                       0.98773                      -0.07972                      -0.13430
                       0.98649                      -0.08059                      -0.14265
                       0.98623                      -0.07966                      -0.14493
                       0.99382                      -0.01437                       0.11004
        </DataArray>
        <DataArray type="Float32" Name="OrientationY" NumberOfComponents="3" format="ascii">
                       0.11020                       0.24494                      -0.96326
                       0.11020                       0.24470                      -0.96332
                       0.11020                       0.24438                      -0.96340
                       0.09697                       0.24427                      -0.96485
                       0.06608                       0.24439                      -0.96742
                       0.04843                       0.24425                      -0.96850
                       0.03055                       0.24414                      -0.96926
                       0.01163                       0.24408                      -0.96968
                      -0.00754                       0.24411                      -0.96972
                      -0.02588                       0.24423                      -0.96937
                      -0.04393                       0.24449                      -0.96866
                      -0.06100                       0.24488                      -0.96763
                      -0.07471                       0.24531                      -0.96656
                      -0.08683                       0.24582                      -0.96542
                      -0.09894                       0.24651                      -0.96408
                      -0.11091                       0.24734                      -0.96256
                      -0.11878                       0.24795                      -0.96146
                      -0.12120                       0.24815                      -0.96111
                       0.11020                       0.24503                      -0.96323
        </DataArray>
        <DataArray type="Float32" Name="OrientationZ" NumberOfComponents="3" format="ascii">
                      -0.01256                       0.96942                       0.24507
                      -0.01088                       0.96946                       0.24502
                      -0.00824                       0.96949                       0.24499
                      -0.00489                       0.96952                       0.24496
                      -0.00087                       0.96955                       0.24487
                       0.00396                       0.96958                       0.24473
                       0.00985                       0.96959                       0.24453
                       0.01704                       0.96956                       0.24426
                       0.02578                       0.96947                       0.24385
                       0.03616                       0.96929                       0.24325
                       0.04815                       0.96898                       0.24239
                       0.06143                       0.96852                       0.24124
                       0.07541                       0.96788                       0.23982
                       0.08915                       0.96711                       0.23824
                       0.10127                       0.96629                       0.23668
                       0.10996                       0.96564                       0.23546
                       0.11286                       0.96541                       0.23503
                       0.11253                       0.96544                       0.23508
                      -0.01312                       0.96941                       0.24510
        </DataArray>
      </PointData>
      <Lines>
        <DataArray type="Int32" Name="connectivity" format="ascii">
      0      1
      1      2
      2      3
      3      4
      4      5
      5      6
      6      7
      7      8
      8      9
      9     10
     10     11
     11     12
     12     13
     13     14
     14     15
     15     16
     16     17
     18      0
        </DataArray>
        <DataArray type="Int32" Name="offsets" format="ascii">
      2
      4
      6
      8
     10
     12
     14
     16
     18
     20
     22
     24
     26
     28
     30
     32
     34
     36
        </DataArray>
      </Lines>
    </Piece>
  </PolyData>
</VTKFile>
