<?xml version="1.0"?>
<VTKFile type="PolyData" version="0.1" byte_order="LittleEndian">
  <PolyData>
    <Piece NumberOfPoints="     19" NumberOfVerts="  0" NumberOfLines="     18"
           NumberOfStrips="  0" NumberOfPolys="      0">
      <Points>
        <DataArray type="Float32" NumberOfComponents="3" format="ascii">
                       3.30373                      -2.39751                      92.44005
                       3.46723                      -4.99861                      94.94901
                       3.63788                      -7.60258                      97.45452
                       3.81855                     -10.21029                      99.95543
                       4.01177                     -12.82225                     102.45095
                       4.22027                     -15.43871                     104.94052
                       4.44724                     -18.05982                     107.42357
                       4.69651                     -20.68566                     109.89946
                       4.97255                     -23.31616                     112.36754
                       5.28024                     -25.95109                     114.82711
                       5.62445                     -28.58999                     117.27757
                       6.00944                     -31.23214                     119.71843
                       6.43798                     -33.87663                     122.14948
                       6.91041                     -36.52248                     124.57092
                       7.42336                     -39.16879                     126.98366
                       7.96835                     -41.81494                     129.38960
                       8.53023                     -44.46084                     131.79199
                       8.81302                     -45.78376                     132.99278
                       3.22336                      -1.09755                      91.18487
        </DataArray>
      </Points>
      <PointData>
        <DataArray type="Float32" Name="TranslationalVelocity" NumberOfComponents="3" format="ascii">
                      -0.00644                      -2.15721                      -2.14936
                      -0.28984                      -4.48770                      -4.54696
                      -0.57511                      -6.81402                      -6.94526
                      -0.86305                      -9.13493                      -9.34449
                      -1.15442                     -11.44974                     -11.74474
                      -1.44994                     -13.75812                     -14.14601
                      -1.75034                     -16.05992                     -16.54832
                      -2.05631                     -18.35509                     -18.95167
                      -2.36856                     -20.64372                     -21.35598
                      -2.68771                     -22.92601                     -23.76103
                      -3.01424                     -25.20227                     -26.16644
                      -3.34843                     -27.47293                     -28.57162
                      -3.69022                     -29.73852                     -30.97587
                      -4.03909                     -31.99967                     -33.37851
                      -4.39394                     -34.25713                     -35.77912
                      -4.75296                     -36.51192                     -38.17777
                      -5.11340                     -38.76530                     -40.57536
                      -5.29356                     -39.89182                     -41.77407
                       0.13491                      -0.99109                      -0.95069
        </DataArray>
        <DataArray type="Float32" Name="RotationalVelocity" NumberOfComponents="3" format="ascii">
                       0.92158                       0.00799                      -0.11645
                       0.92096                       0.00775                      -0.11665
                       0.92008                       0.00737                      -0.11700
                       0.91904                       0.00684                      -0.11747
                       0.91789                       0.00619                      -0.11808
                       0.91670                       0.00539                      -0.11883
                       0.91550                       0.00446                      -0.11971
                       0.91431                       0.00340                      -0.12074
                       0.91315                       0.00220                      -0.12191
                       0.91204                       0.00089                      -0.12320
                       0.91100                      -0.00052                      -0.12458
                       0.91005                      -0.00196                      -0.12602
                       0.90921                      -0.00338                      -0.12743
                       0.90851                      -0.00467                      -0.12872
                       0.90796                      -0.00570                      -0.12975
                       0.90763                      -0.00630                      -0.13036
                       0.90755                      -0.00627                      -0.13031
                       0.90758                      -0.00606                      -0.13010
                       0.92182                       0.00807                      -0.11638
        </DataArray>
        <DataArray type="Float32" Name="TranslationalAcceleration" NumberOfComponents="3" format="ascii">
                      -1.00861                       1.61672                      -2.08392
                      -1.30166                       3.66967                      -4.42439
                      -1.58914                       5.77921                      -6.70042
                      -1.87341                       7.95979                      -8.89482
                      -2.15950                      10.22005                     -10.99667
                      -2.45193                      12.56361                     -13.00063
                      -2.75112                      14.99016                     -14.90602
                      -3.05173                      17.49646                     -16.71596
                      -3.34259                      20.07728                     -18.43665
                      -3.60686                      22.72636                     -20.07663
                      -3.82326                      25.43725                     -21.64620
                      -3.96812                      28.20391                     -23.15700
                      -4.01827                      31.02087                     -24.62155
                      -3.95481                      33.88292                     -26.05284
                      -3.76771                      36.78424                     -27.46370
                      -3.46123                      39.71680                     -28.86589
                      -3.06000                      42.66826                     -30.26923
                      -2.84026                      44.14683                     -30.97227
                      -0.86062                       0.60219                      -0.90014
        </DataArray>
        <DataArray type="Float32" Name="RotationalAcceleration" NumberOfComponents="3" format="ascii">
                       0.08412                       0.01106                      -0.01270
                       0.06495                       0.01147                      -0.01106
                       0.03866                       0.01152                      -0.00935
                       0.00765                       0.01057                      -0.00837
                      -0.02597                       0.00840                      -0.00848
                      -0.06036                       0.00558                      -0.00923
                      -0.09407                       0.00324                      -0.00952
                      -0.12599                       0.00254                      -0.00822
                      -0.15533                       0.00465                      -0.00418
                      -0.18165                       0.01062                       0.00367
                      -0.20476                       0.02117                       0.01605
                      -0.22460                       0.03653                       0.03319
                      -0.24117                       0.05628                       0.05469
                      -0.25439                       0.07923                       0.07927
                      -0.26409                       0.10316                       0.10466
                      -0.26988                       0.12478                       0.12739
                      -0.27095                       0.13952                       0.14272
                      -0.27017                       0.14452                       0.14785
                       0.09162                       0.01086                      -0.01338
        </DataArray>
        <DataArray type="Float32" Name="OrientationX" NumberOfComponents="3" format="ascii">
                       0.94745                      -0.18996                      -0.25740
                       0.94737                      -0.18869                      -0.25863
                       0.94724                      -0.18670                      -0.26054
                       0.95120                      -0.17525                      -0.25399
                       0.95994                      -0.15136                      -0.23580
                       0.96436                      -0.13578                      -0.22711
                       0.96844                      -0.11933                      -0.21883
                       0.97232                      -0.10132                      -0.21053
                       0.97576                      -0.08217                      -0.20284
                       0.97849                      -0.06258                      -0.19656
                       0.98063                      -0.04223                      -0.19124
                       0.98208                      -0.02180                      -0.18719
                       0.98259                      -0.00333                      -0.18575
                       0.98262                       0.01379                      -0.18511
                       0.98260                       0.02976                      -0.18334
                       0.98281                       0.04332                      -0.17946
                       0.98328                       0.05024                      -0.17504
                       0.98360                       0.05149                      -0.17287
                       0.94748                      -0.19038                      -0.25699
        </DataArray>
        <DataArray type="Float32" Name="OrientationY" NumberOfComponents="3" format="ascii">
                       0.31681                       0.66889                       0.67247
                       0.31683                       0.66856                       0.67279
                       0.31686                       0.66810                       0.67323
                       0.30426                       0.66998                       0.67716
                       0.27469                       0.67448                       0.68529
                       0.25773                       0.67643                       0.68994
                       0.24049                       0.67814                       0.69448
                       0.22219                       0.67966                       0.69906
                       0.20359                       0.68089                       0.70352
                       0.18575                       0.68172                       0.70764
                       0.16814                       0.68221                       0.71156
                       0.15146                       0.68234                       0.71517
                       0.13805                       0.68214                       0.71807
                       0.12618                       0.68176                       0.72061
                       0.11429                       0.68125                       0.72307
                       0.10246                       0.68064                       0.72542
                       0.09465                       0.68020                       0.72689
                       0.09223                       0.68008                       0.72731
                       0.31680                       0.66902                       0.67235
        </DataArray>
        <DataArray type="Float32" Name="OrientationZ" NumberOfComponents="3" format="ascii">
                       0.04443                      -0.71868                       0.69392
                       0.04596                      -0.71933                       0.69315
                       0.04838                      -0.72027                       0.69201
                       0.05150                      -0.72140                       0.69061
                       0.05532                      -0.72261                       0.68903
                       0.05994                      -0.72388                       0.68732
                       0.06553                      -0.72518                       0.68543
                       0.07226                      -0.72649                       0.68336
                       0.08030                      -0.72776                       0.68111
                       0.08972                      -0.72893                       0.67868
                       0.10042                      -0.72994                       0.67610
                       0.11213                      -0.73071                       0.67341
                       0.12432                      -0.73121                       0.67073
                       0.13614                      -0.73144                       0.66818
                       0.14642                      -0.73144                       0.66600
                       0.15357                      -0.73133                       0.66450
                       0.15558                      -0.73130                       0.66408
                       0.15501                      -0.73133                       0.66418
                       0.04393                      -0.71845                       0.69419
        </DataArray>
      </PointData>
      <Lines>
        <DataArray type="Int32" Name="connectivity" format="ascii">
      0      1
      1      2
      2      3
      3      4
      4      5
      5      6
      6      7
      7      8
      8      9
      9     10
     10     11
     11     12
     12     13
     13     14
     14     15
     15     16
     16     17
     18      0
        </DataArray>
        <DataArray type="Int32" Name="offsets" format="ascii">
      2
      4
      6
      8
     10
     12
     14
     16
     18
     20
     22
     24
     26
     28
     30
     32
     34
     36
        </DataArray>
      </Lines>
    </Piece>
  </PolyData>
</VTKFile>
