<?xml version="1.0"?>
<VTKFile type="PolyData" version="0.1" byte_order="LittleEndian">
  <PolyData>
    <Piece NumberOfPoints="     17" NumberOfVerts="  0" NumberOfLines="      0"
           NumberOfStrips="  0" NumberOfPolys="      0">
      <Points>
        <DataArray type="Float32" NumberOfComponents="3" format="ascii">
                       2.65204                       2.90097                      88.56009
                       2.28730                       6.07267                      86.85873
                       1.92261                       9.24437                      85.15734
                       1.55797                      12.41605                      83.45591
                       1.19342                      15.58771                      81.75443
                       0.82895                      18.75935                      80.05290
                       0.46458                      21.93098                      78.35132
                       0.10034                      25.10260                      76.64969
                      -0.26374                      28.27420                      74.94799
                      -0.62764                      31.44579                      73.24625
                      -0.99133                      34.61738                      71.54445
                      -1.35478                      37.78896                      69.84259
                      -1.71798                      40.96054                      68.14067
                      -2.08090                      44.13213                      66.43869
                      -2.44359                      47.30371                      64.73666
                      -2.80607                      50.47529                      63.03458
                      -3.16844                      53.64687                      61.33248
        </DataArray>
      </Points>
      <PointData>
        <DataArray type="Float32" Name="Force" NumberOfComponents="3" format="ascii">
                     151.33685                     -17.66399                     -65.37578
                     511.87448                     -65.33191                    -231.51842
                    2085.61783                     421.46046                     338.72036
                    3660.65296                     794.47142                     696.68646
                    2231.89798                     447.86627                     356.77312
                    4746.34114                     847.24785                     562.86689
                    5640.03590                     886.66660                     445.34374
                    6174.60131                     857.38409                     276.85454
                    6570.10817                     821.18937                     125.42849
                    8242.98512                     932.46091                     -23.97286
                    9438.39735                     975.37719                    -198.15788
                   10825.74797                    1049.92926                    -353.82716
                    6218.28695                     574.14204                    -256.39430
                   12389.09028                    1081.98132                    -624.68057
                   11931.25582                     971.18063                    -731.93390
                   16907.82332                    1254.10432                   -1263.02783
                    7007.36827                     452.66430                    -648.20035
        </DataArray>
        <DataArray type="Float32" Name="Moment" NumberOfComponents="3" format="ascii">
                     -19.03218                      -6.30963                     -16.51645
                      67.45096                    -117.21328                    -363.71712
                     599.15261                    -655.09290                   -2119.92296
                     688.77439                    -624.87418                   -3043.68829
                     -12.79597                     235.92890                    -388.22293
                    -589.71101                    1430.56866                    1862.51581
                    -333.83000                     666.33084                    1417.10154
                     -53.57344                    -648.68878                     513.82857
                      44.15612                   -1190.33671                     -64.20084
                      67.00035                   -1578.94265                    -824.75557
                     127.58754                   -2617.90032                   -2880.62629
                     101.23239                   -3612.85586                   -5923.89434
                     -10.06144                     116.65258                     398.37489
                     -28.45620                    3820.95832                    7436.59373
                      69.01329                    3565.10793                    6869.08294
                     -91.48656                     384.31635                    1109.54702
                     -91.46446                    -335.46928                    -146.16879
        </DataArray>
      </PointData>
    </Piece>
  </PolyData>
</VTKFile>
