<?xml version="1.0"?>
<VTKFile type="PolyData" version="0.1" byte_order="LittleEndian">
  <PolyData>
    <Piece NumberOfPoints="     19" NumberOfVerts="  0" NumberOfLines="     18"
           NumberOfStrips="  0" NumberOfPolys="      0">
      <Points>
        <DataArray type="Float32" NumberOfComponents="3" format="ascii">
                       2.82882                       0.20636                      91.60893
                       2.92622                       0.41265                      92.95646
                       3.10158                       0.73136                      95.66746
                       3.27146                       1.00516                      98.38590
                       3.48685                       1.31969                     101.78821
                       3.81105                       1.83665                     105.84419
                       4.17830                       2.47952                     109.87709
                       4.56972                       3.12192                     113.90779
                       4.99443                       3.76511                     117.93500
                       5.46013                       4.40670                     121.95790
                       5.96940                       5.04315                     125.97630
                       6.53739                       5.67540                     129.98747
                       7.17214                       6.30372                     133.98922
                       7.87806                       6.92864                     137.97957
                       8.65548                       7.55080                     141.95708
                       9.34945                       8.06788                     145.26264
                       9.92755                       8.48884                     147.90104
                      10.51056                       8.96415                     150.53026
                      10.80242                       9.16055                     151.85088
        </DataArray>
      </Points>
      <PointData>
        <DataArray type="Float32" Name="Force" NumberOfComponents="3" format="ascii">
                      -0.03179                       1.76341                      -0.27231
                      81.10431                      24.84167                      -9.77871
                      98.80090                      59.75466                     -16.64407
                      86.29671                      77.91244                     -18.71004
                     863.84441                    -331.99865                     -16.75457
                    1193.14051                    -469.57307                     -27.04126
                    1358.67043                    -440.16720                     -53.42908
                    1710.88240                    -469.93681                     -92.76720
                    1868.67630                    -441.25957                    -129.39722
                    2146.30468                    -445.67293                    -182.19941
                    2605.36788                    -479.06284                    -266.98618
                    2979.14081                    -496.74238                    -361.46816
                    3433.17425                    -543.46428                    -482.54400
                    3756.98938                    -560.20215                    -602.81371
                    4039.69241                    -569.96133                    -722.45128
                    4202.40971                    -559.19182                    -803.51520
                    4119.80489                    -512.36928                    -815.08855
                    3016.00853                    -359.94181                    -605.28939
                    1151.86835                      -3.18593                    -252.06178
        </DataArray>
        <DataArray type="Float32" Name="Moment" NumberOfComponents="3" format="ascii">
                       0.00000                       0.00000                       0.00000
                       0.00000                       0.00000                       0.00000
                       0.00000                       0.00000                       0.00000
                       0.00000                       0.00000                       0.00000
                     -22.13920                     -43.51488                    -279.20376
                     -32.26548                     -59.87296                    -383.95129
                     -49.56323                     -86.05057                    -551.44976
                     -76.39675                    -122.85161                    -786.62896
                    -108.19939                    -159.33785                   -1019.18955
                    -135.02080                    -180.04357                   -1150.14221
                    -157.91683                    -188.56753                   -1202.66798
                    -187.02901                    -199.14675                   -1267.77730
                    -193.89149                    -184.44287                   -1171.75877
                    -214.16458                    -183.62810                   -1164.11618
                    -224.95874                    -176.76804                   -1118.43272
                    -224.09468                    -167.07287                   -1055.75086
                    -204.01378                    -148.50022                    -937.82448
                    -102.71153                     -74.08077                    -467.73343
                     -84.09887                     -60.74470                    -383.54603
        </DataArray>
        <DataArray type="Float32" Name="TranslationalVelocity" NumberOfComponents="3" format="ascii">
                      -0.47902                      -1.42341                       0.17803
                      -0.47439                      -2.68180                       0.37033
                      -0.47567                      -5.20930                       0.66769
                      -0.48248                      -7.73679                       0.92316
                      -0.49552                     -10.88902                       1.21674
                      -0.49878                     -14.63577                       1.69717
                      -0.49352                     -18.34367                       2.29075
                      -0.49619                     -22.02911                       2.88127
                      -0.50951                     -25.69201                       3.47035
                      -0.53703                     -29.33323                       4.05665
                      -0.58067                     -32.95609                       4.63806
                      -0.64524                     -36.55897                       5.21685
                      -0.73346                     -40.14256                       5.79493
                      -0.84662                     -43.70768                       6.37436
                      -0.98370                     -47.25569                       6.95684
                      -1.11292                     -50.20159                       7.44508
                      -1.22272                     -52.55191                       7.84416
                      -1.32832                     -54.89366                       8.29084
                      -1.38548                     -56.06972                       8.47827
        </DataArray>
        <DataArray type="Float32" Name="RotationalVelocity" NumberOfComponents="3" format="ascii">
                       0.92679                      -0.01319                      -0.10892
                       0.92598                      -0.01323                      -0.10886
                       0.92397                      -0.01338                      -0.10869
                       0.92149                      -0.01366                      -0.10847
                       0.91769                      -0.01419                      -0.10811
                       0.91250                      -0.01520                      -0.10758
                       0.90699                      -0.01671                      -0.10694
                       0.90142                      -0.01884                      -0.10621
                       0.89596                      -0.02168                      -0.10537
                       0.89075                      -0.02533                      -0.10443
                       0.88594                      -0.02989                      -0.10337
                       0.88156                      -0.03519                      -0.10223
                       0.87771                      -0.04099                      -0.10104
                       0.87446                      -0.04686                      -0.09989
                       0.87191                      -0.05219                      -0.09888
                       0.87045                      -0.05552                      -0.09826
                       0.86979                      -0.05697                      -0.09798
                       0.86951                      -0.05735                      -0.09790
                       0.86952                      -0.05711                      -0.09794
        </DataArray>
        <DataArray type="Float32" Name="TranslationalAcceleration" NumberOfComponents="3" format="ascii">
                       0.79554                      -0.31628                      -1.30418
                       0.65541                      -0.53332                      -2.46343
                       0.37534                      -0.88406                      -4.79299
                       0.09332                      -1.18890                      -7.11822
                      -0.26429                      -1.53349                     -10.00846
                      -0.70507                      -2.04398                     -13.42380
                      -1.16307                      -2.63120                     -16.78223
                      -1.64180                      -3.18647                     -20.10088
                      -2.14593                      -3.71106                     -23.37925
                      -2.68005                      -4.20447                     -26.61789
                      -3.24441                      -4.66909                     -29.82168
                      -3.84590                      -5.10622                     -32.98665
                      -4.48645                      -5.52041                     -36.11321
                      -5.16549                      -5.91694                     -39.20244
                      -5.87876                      -6.30127                     -42.25706
                      -6.49280                      -6.61615                     -44.78112
                      -6.99253                      -6.87194                     -46.78940
                      -7.49403                      -7.16916                     -48.79067
                      -7.74193                      -7.28596                     -49.79497
        </DataArray>
        <DataArray type="Float32" Name="OrientationX" NumberOfComponents="3" format="ascii">
                       0.97461                      -0.22096                      -0.03613
                       0.97458                      -0.22104                      -0.03661
                       0.97448                      -0.22125                      -0.03795
                       0.97434                      -0.22153                      -0.03980
                       0.97410                      -0.22201                      -0.04286
                       0.98000                      -0.19189                      -0.05276
                       0.98341                      -0.17041                      -0.06221
                       0.98573                      -0.15190                      -0.07251
                       0.98756                      -0.13247                      -0.08469
                       0.98868                      -0.11269                      -0.09902
                       0.98880                      -0.09440                      -0.11562
                       0.98798                      -0.07656                      -0.13426
                       0.98619                      -0.06081                      -0.15406
                       0.98359                      -0.04954                      -0.17350
                       0.98075                      -0.03827                      -0.19147
                       0.97869                      -0.02838                      -0.20339
                       0.97760                      -0.02061                      -0.20946
                       0.97713                      -0.01634                      -0.21200
                       0.97720                      -0.01629                      -0.21170
        </DataArray>
        <DataArray type="Float32" Name="OrientationY" NumberOfComponents="3" format="ascii">
                       0.21223                       0.96313                      -0.16535
                       0.21223                       0.96312                      -0.16540
                       0.21222                       0.96310                      -0.16554
                       0.21220                       0.96307                      -0.16571
                       0.21218                       0.96303                      -0.16597
                       0.18098                       0.96958                      -0.16480
                       0.15836                       0.97369                      -0.16384
                       0.13855                       0.97687                      -0.16286
                       0.11757                       0.97983                      -0.16156
                       0.09597                       0.98246                      -0.15989
                       0.07552                       0.98454                      -0.15801
                       0.05526                       0.98625                      -0.15576
                       0.03694                       0.98748                      -0.15335
                       0.02309                       0.98822                      -0.15126
                       0.00951                       0.98881                      -0.14891
                      -0.00180                       0.98918                      -0.14671
                      -0.01020                       0.98938                      -0.14496
                      -0.01470                       0.98947                      -0.14400
                      -0.01470                       0.98947                      -0.14400
        </DataArray>
        <DataArray type="Float32" Name="OrientationZ" NumberOfComponents="3" format="ascii">
                       0.07134                       0.15348                       0.98557
                       0.07182                       0.15343                       0.98555
                       0.07318                       0.15326                       0.98547
                       0.07504                       0.15301                       0.98537
                       0.07813                       0.15258                       0.98520
                       0.08278                       0.15195                       0.98492
                       0.08850                       0.15127                       0.98452
                       0.09557                       0.15049                       0.98398
                       0.10439                       0.14959                       0.98322
                       0.11530                       0.14858                       0.98216
                       0.12875                       0.14751                       0.98064
                       0.14434                       0.14647                       0.97863
                       0.16146                       0.14554                       0.97609
                       0.17895                       0.14478                       0.97315
                       0.19502                       0.14422                       0.97014
                       0.20535                       0.14395                       0.96804
                       0.21023                       0.14385                       0.96701
                       0.21212                       0.14382                       0.96660
                       0.21182                       0.14383                       0.96667
        </DataArray>
      </PointData>
      <Lines>
        <DataArray type="Int32" Name="connectivity" format="ascii">
      0      1
      1      2
      2      3
      3      4
      4      5
      5      6
      6      7
      7      8
      8      9
      9     10
     10     11
     11     12
     12     13
     13     14
     14     15
     15     16
     16     17
     17     18
        </DataArray>
        <DataArray type="Int32" Name="offsets" format="ascii">
      2
      4
      6
      8
     10
     12
     14
     16
     18
     20
     22
     24
     26
     28
     30
     32
     34
     36
        </DataArray>
      </Lines>
    </Piece>
  </PolyData>
</VTKFile>
