<?xml version="1.0"?>
<VTKFile type="PolyData" version="0.1" byte_order="LittleEndian">
  <PolyData>
    <Piece NumberOfPoints="     19" NumberOfVerts="  0" NumberOfLines="     18"
           NumberOfStrips="  0" NumberOfPolys="      0">
      <Points>
        <DataArray type="Float32" NumberOfComponents="3" format="ascii">
                       3.01231                       1.48249                      90.17463
                       2.95753                       2.84739                      90.21877
                       2.83848                       5.57394                      90.40294
                       2.71835                       8.29948                      90.63047
                       2.57327                      11.70668                      90.93806
                       2.44813                      15.80187                      91.15198
                       2.34995                      19.90152                      91.22543
                       2.27270                      24.00176                      91.28755
                       2.22487                      28.10254                      91.33611
                       2.21409                      32.20358                      91.37300
                       2.24365                      36.30441                      91.40273
                       2.32827                      40.40440                      91.42220
                       2.47636                      44.50248                      91.43071
                       2.69295                      48.59741                      91.42776
                       2.97928                      52.68793                      91.41336
                       3.26344                      56.09316                      91.39374
                       3.51296                      58.81527                      91.36622
                       3.76223                      61.53734                      91.28288
                       3.89181                      62.89785                      91.28258
        </DataArray>
      </Points>
      <PointData>
        <DataArray type="Float32" Name="Force" NumberOfComponents="3" format="ascii">
                      -0.03187                       0.00647                      -0.25771
                      62.48980                       3.17118                     -22.73963
                      72.90107                       4.41361                     -53.84041
                      61.76410                       4.36873                     -70.93917
                     694.45885                      18.20387                     178.69614
                     977.42028                      21.61206                     247.67041
                    1099.71487                      20.97141                     198.00853
                    1368.54341                      19.39087                     174.35636
                    1431.44333                      10.68820                     112.55083
                    1588.14485                      -2.63309                      66.76797
                    1879.75807                     -25.21001                      11.30028
                    2032.74319                     -56.10272                     -50.60436
                    2277.99340                     -99.78462                    -101.93832
                    2312.27751                    -140.16688                    -159.32835
                    2330.75077                    -178.03603                    -216.47587
                    2347.28216                    -203.66906                    -255.05744
                    2399.54608                    -220.46076                    -273.64167
                    1975.03923                    -186.09913                    -206.06258
                    1317.73580                    -123.33534                    -186.12524
        </DataArray>
        <DataArray type="Float32" Name="Moment" NumberOfComponents="3" format="ascii">
                       0.00000                       0.00000                       0.00000
                       0.00000                       0.00000                       0.00000
                       0.00000                       0.00000                       0.00000
                       0.00000                       0.00000                       0.00000
                       6.26304                    -185.59279                      -5.43335
                       9.84082                    -334.79997                      -9.62127
                      11.99528                    -497.17461                     -13.96372
                      12.69520                    -719.47372                     -19.63055
                       9.56932                   -1003.79125                     -26.38111
                      -0.69596                   -1148.89031                     -28.75406
                     -16.68063                   -1256.99301                     -29.49105
                     -38.29344                   -1360.92475                     -29.42735
                     -52.96304                   -1185.39083                     -23.20694
                     -73.80894                   -1193.90470                     -20.84284
                     -90.69119                   -1165.34673                     -18.03830
                     -98.35058                   -1113.70843                     -15.79488
                     -93.17706                    -997.38606                     -13.51464
                     -47.92348                    -501.23388                      -6.65602
                     -41.79436                    -437.75440                      -5.82045
        </DataArray>
        <DataArray type="Float32" Name="TranslationalVelocity" NumberOfComponents="3" format="ascii">
                       0.47927                      -0.05999                       1.42175
                       0.63541                      -0.09455                       2.68425
                       0.94872                      -0.25145                       5.20791
                       1.26454                      -0.44892                       7.73567
                       1.66432                      -0.71904                      10.90464
                       2.15247                      -0.90591                      14.72783
                       2.65257                      -0.96518                      18.57287
                       3.16748                      -1.01626                      22.43640
                       3.69839                      -1.05812                      26.31777
                       4.24553                      -1.09362                      30.21550
                       4.80664                      -1.12762                      34.12633
                       5.38164                      -1.15948                      38.04965
                       5.96778                      -1.18994                      41.98287
                       6.56145                      -1.21936                      45.92321
                       7.15834                      -1.24784                      49.86783
                       7.65505                      -1.27062                      53.15669
                       8.04998                      -1.28032                      55.78836
                       8.44026                      -1.23547                      58.42133
                       8.63492                      -1.25368                      59.73741
        </DataArray>
        <DataArray type="Float32" Name="RotationalVelocity" NumberOfComponents="3" format="ascii">
                       0.92402                       0.00770                      -0.11388
                       0.92468                       0.00773                      -0.11414
                       0.92630                       0.00782                      -0.11487
                       0.92831                       0.00793                      -0.11586
                       0.93137                       0.00811                      -0.11756
                       0.93553                       0.00835                      -0.12025
                       0.93987                       0.00863                      -0.12355
                       0.94417                       0.00891                      -0.12727
                       0.94828                       0.00920                      -0.13118
                       0.95211                       0.00947                      -0.13505
                       0.95555                       0.00971                      -0.13861
                       0.95864                       0.00993                      -0.14164
                       0.96137                       0.01011                      -0.14394
                       0.96372                       0.01025                      -0.14535
                       0.96566                       0.01034                      -0.14574
                       0.96688                       0.01037                      -0.14519
                       0.96752                       0.01036                      -0.14420
                       0.96791                       0.01034                      -0.14281
                       0.96800                       0.01032                      -0.14197
        </DataArray>
        <DataArray type="Float32" Name="TranslationalAcceleration" NumberOfComponents="3" format="ascii">
                       0.30938                      -1.09223                       0.06327
                       0.32813                      -2.27692                       0.02906
                       0.35211                      -4.64896                      -0.10449
                       0.35157                      -7.03840                      -0.22470
                       0.30572                     -10.06064                      -0.30686
                       0.19397                     -13.73242                      -0.13168
                       0.00279                     -17.43995                       0.34433
                      -0.31304                     -21.18715                       1.01559
                      -0.82107                     -24.96937                       1.88021
                      -1.62425                     -28.77908                       2.92982
                      -2.80181                     -32.60319                       4.13778
                      -4.53265                     -36.42404                       5.52174
                      -6.96033                     -40.21140                       7.08385
                     -10.19553                     -43.92806                       8.82638
                     -14.27791                     -47.53683                      10.74396
                     -18.26346                     -50.45168                      12.45866
                     -21.77186                     -52.72325                      13.90135
                     -25.41654                     -54.95196                      15.42313
                     -27.25905                     -56.08005                      16.14695
        </DataArray>
        <DataArray type="Float32" Name="OrientationX" NumberOfComponents="3" format="ascii">
                       0.99324                       0.03671                       0.11011
                       0.99326                       0.03631                       0.11010
                       0.99330                       0.03515                       0.11006
                       0.99336                       0.03356                       0.11002
                       0.99346                       0.03092                       0.10994
                       0.99656                       0.02787                       0.07809
                       0.99821                       0.02353                       0.05502
                       0.99924                       0.01778                       0.03482
                       0.99986                       0.01029                       0.01344
                       0.99996                       0.00066                      -0.00858
                       0.99950                      -0.01164                      -0.02945
                       0.99840                      -0.02623                      -0.05015
                       0.99672                      -0.04257                      -0.06889
                       0.99476                      -0.05956                      -0.08311
                       0.99242                      -0.07540                      -0.09703
                       0.99038                      -0.08572                      -0.10860
                       0.98896                      -0.09072                      -0.11717
                       0.98821                      -0.09284                      -0.12175
                       0.98822                      -0.09271                      -0.12175
        </DataArray>
        <DataArray type="Float32" Name="OrientationY" NumberOfComponents="3" format="ascii">
                       0.10887                       0.03428                      -0.99347
                       0.10888                       0.03390                      -0.99348
                       0.10892                       0.03299                      -0.99350
                       0.10896                       0.03186                      -0.99354
                       0.10902                       0.03015                      -0.99358
                       0.07734                       0.02689                      -0.99664
                       0.05446                       0.02384                      -0.99823
                       0.03445                       0.02095                      -0.99919
                       0.01325                       0.01825                      -0.99975
                      -0.00859                       0.01586                      -0.99984
                      -0.02929                       0.01386                      -0.99947
                      -0.04984                       0.01233                      -0.99868
                      -0.06847                       0.01128                      -0.99759
                      -0.08262                       0.01057                      -0.99652
                      -0.09652                       0.01038                      -0.99528
                      -0.10808                       0.01066                      -0.99408
                      -0.11664                       0.01114                      -0.99311
                      -0.12121                       0.01145                      -0.99256
                      -0.12121                       0.01146                      -0.99256
        </DataArray>
        <DataArray type="Float32" Name="OrientationZ" NumberOfComponents="3" format="ascii">
                      -0.04024                       0.99874                       0.03005
                      -0.03980                       0.99877                       0.02972
                      -0.03855                       0.99884                       0.02894
                      -0.03685                       0.99893                       0.02800
                      -0.03404                       0.99907                       0.02658
                      -0.02987                       0.99925                       0.02464
                      -0.02480                       0.99944                       0.02252
                      -0.01849                       0.99962                       0.02033
                      -0.01054                       0.99978                       0.01811
                      -0.00052                       0.99987                       0.01587
                       0.01204                       0.99984                       0.01352
                       0.02681                       0.99958                       0.01101
                       0.04324                       0.99903                       0.00833
                       0.06024                       0.99817                       0.00560
                       0.07605                       0.99710                       0.00302
                       0.08638                       0.99626                       0.00130
                       0.09140                       0.99581                       0.00044
                       0.09355                       0.99561                       0.00006
                       0.09341                       0.99563                       0.00008
        </DataArray>
      </PointData>
      <Lines>
        <DataArray type="Int32" Name="connectivity" format="ascii">
      0      1
      1      2
      2      3
      3      4
      4      5
      5      6
      6      7
      7      8
      8      9
      9     10
     10     11
     11     12
     12     13
     13     14
     14     15
     15     16
     16     17
     17     18
        </DataArray>
        <DataArray type="Int32" Name="offsets" format="ascii">
      2
      4
      6
      8
     10
     12
     14
     16
     18
     20
     22
     24
     26
     28
     30
     32
     34
     36
        </DataArray>
      </Lines>
    </Piece>
  </PolyData>
</VTKFile>
