<?xml version="1.0"?>
<VTKFile type="PolyData" version="0.1" byte_order="LittleEndian">
  <PolyData>
    <Piece NumberOfPoints="     19" NumberOfVerts="  0" NumberOfLines="     18"
           NumberOfStrips="  0" NumberOfPolys="      0">
      <Points>
        <DataArray type="Float32" NumberOfComponents="3" format="ascii">
                       2.77734                       3.22008                      89.41964
                       2.52918                       6.74681                      88.65285
                       2.28655                      10.27326                      87.88304
                       2.05154                      13.79942                      87.10951
                       1.82582                      17.32525                      86.33176
                       1.61098                      20.85075                      85.54945
                       1.40889                      24.37595                      84.76242
                       1.22177                      27.90091                      83.97059
                       1.05217                      31.42566                      83.17394
                       0.90290                      34.95021                      82.37239
                       0.77670                      38.47453                      81.56586
                       0.67595                      41.99849                      80.75422
                       0.60213                      45.52192                      79.93743
                       0.55523                      49.04466                      79.11563
                       0.53300                      52.56658                      78.28928
                       0.53013                      56.08774                      77.45930
                       0.53729                      59.60843                      76.62734
                       0.54192                      61.36871                      76.21113
                       2.90251                       1.45665                      89.80239
        </DataArray>
      </Points>
      <PointData>
        <DataArray type="Float32" Name="TranslationalVelocity" NumberOfComponents="3" format="ascii">
                       0.52382                       0.63273                       3.01559
                       0.93112                       1.37221                       6.28494
                       1.35627                       2.11118                       9.53615
                       1.80565                       2.84939                      12.76490
                       2.28412                       3.58664                      15.96839
                       2.79751                       4.32278                      19.14505
                       3.35456                       5.05779                      22.29442
                       3.96776                       5.79164                      25.41673
                       4.65336                       6.52418                      28.51236
                       5.43055                       7.25490                      31.58147
                       6.31988                       7.98278                      34.62384
                       7.34093                       8.70616                      37.63893
                       8.50907                       9.42290                      40.62629
                       9.83153                      10.13083                      43.58625
                      11.30262                      10.82856                      46.52074
                      12.89817                      11.51670                      49.43415
                      14.56923                      12.19902                      52.33487
                      15.41576                      12.53943                      53.78341
                       0.32366                       0.26288                       1.37702
        </DataArray>
        <DataArray type="Float32" Name="RotationalVelocity" NumberOfComponents="3" format="ascii">
                       0.92901                       0.00256                      -0.11406
                       0.92475                       0.00144                      -0.11779
                       0.91906                      -0.00022                      -0.12360
                       0.91242                      -0.00224                      -0.13074
                       0.90517                      -0.00459                      -0.13916
                       0.89766                      -0.00735                      -0.14943
                       0.89015                      -0.01073                      -0.16255
                       0.88276                      -0.01495                      -0.17957
                       0.87546                      -0.02021                      -0.20145
                       0.86812                      -0.02666                      -0.22880
                       0.86063                      -0.03433                      -0.26173
                       0.85289                      -0.04309                      -0.29958
                       0.84501                      -0.05257                      -0.34073
                       0.83730                      -0.06215                      -0.38240
                       0.83036                      -0.07090                      -0.42045
                       0.82511                      -0.07749                      -0.44912
                       0.82300                      -0.08019                      -0.46092
                       0.82295                      -0.08033                      -0.46155
                       0.93071                       0.00294                      -0.11285
        </DataArray>
        <DataArray type="Float32" Name="TranslationalAcceleration" NumberOfComponents="3" format="ascii">
                       0.84867                      -2.92566                       1.00493
                       0.87946                      -5.95264                       1.94196
                       0.83212                      -8.95813                       2.86430
                       0.67449                     -11.93876                       3.76750
                       0.37931                     -14.89277                       4.64980
                      -0.06810                     -17.81939                       5.51271
                      -0.66434                     -20.71952                       6.35928
                      -1.38505                     -23.59584                       7.19291
                      -2.18456                     -26.45293                       8.01653
                      -2.99786                     -29.29823                       8.83129
                      -3.74509                     -32.14317                       9.63553
                      -4.33845                     -35.00394                      10.42449
                      -4.69153                     -37.90106                      11.19105
                      -4.73115                     -40.85660                      11.92750
                      -4.41166                     -43.88769                      12.62772
                      -3.73186                     -46.99683                      13.28985
                      -2.75416                     -50.16111                      13.92002
                      -2.20324                     -51.75227                      14.22852
                       0.81781                      -1.40736                       0.53341
        </DataArray>
        <DataArray type="Float32" Name="RotationalAcceleration" NumberOfComponents="3" format="ascii">
                       0.07050                       0.03223                       0.00187
                       0.06764                       0.03564                       0.01854
                       0.06342                       0.04085                       0.04398
                       0.05825                       0.04786                       0.07804
                       0.05322                       0.05621                       0.11821
                       0.04901                       0.06501                       0.16017
                       0.04572                       0.07308                       0.19850
                       0.04340                       0.07916                       0.22732
                       0.04178                       0.08202                       0.24103
                       0.04023                       0.08057                       0.23489
                       0.03793                       0.07408                       0.20571
                       0.03401                       0.06228                       0.15253
                       0.02796                       0.04552                       0.07721
                       0.01975                       0.02497                      -0.01491
                       0.00992                       0.00270                      -0.11440
                      -0.00016                      -0.01810                      -0.20708
                      -0.00786                      -0.03304                      -0.27343
                      -0.01069                      -0.03840                      -0.29724
                       0.07160                       0.03094                      -0.00442
        </DataArray>
        <DataArray type="Float32" Name="OrientationX" NumberOfComponents="3" format="ascii">
                       0.99113                       0.09131                       0.09656
                       0.99121                       0.09022                       0.09679
                       0.99132                       0.08852                       0.09717
                       0.99289                       0.08361                       0.08469
                       0.99570                       0.07451                       0.05508
                       0.99696                       0.06767                       0.03852
                       0.99795                       0.06017                       0.02188
                       0.99865                       0.05172                       0.00438
                       0.99901                       0.04242                      -0.01317
                       0.99903                       0.03247                      -0.02974
                       0.99871                       0.02181                      -0.04584
                       0.99809                       0.01078                      -0.06086
                       0.99736                       0.00023                      -0.07255
                       0.99652                      -0.00971                      -0.08275
                       0.99547                      -0.01871                      -0.09317
                       0.99425                      -0.02577                      -0.10391
                       0.99337                      -0.02873                      -0.11135
                       0.99308                      -0.02891                      -0.11381
                       0.99110                       0.09167                       0.09648
        </DataArray>
        <DataArray type="Float32" Name="OrientationY" NumberOfComponents="3" format="ascii">
                       0.11346                      -0.20304                      -0.97258
                       0.11351                      -0.20387                      -0.97240
                       0.11359                      -0.20499                      -0.97215
                       0.10047                      -0.20745                      -0.97307
                       0.06974                      -0.21131                      -0.97493
                       0.05222                      -0.21401                      -0.97543
                       0.03445                      -0.21659                      -0.97566
                       0.01562                      -0.21903                      -0.97559
                      -0.00347                      -0.22125                      -0.97521
                      -0.02176                      -0.22316                      -0.97454
                      -0.03978                      -0.22479                      -0.97359
                      -0.05686                      -0.22610                      -0.97244
                      -0.07060                      -0.22708                      -0.97131
                      -0.08278                      -0.22779                      -0.97018
                      -0.09497                      -0.22822                      -0.96897
                      -0.10705                      -0.22835                      -0.96768
                      -0.11497                      -0.22826                      -0.96679
                      -0.11741                      -0.22819                      -0.96651
                       0.11343                      -0.20272                      -0.97265
        </DataArray>
        <DataArray type="Float32" Name="OrientationZ" NumberOfComponents="3" format="ascii">
                      -0.06920                       0.97490                      -0.21160
                      -0.06800                       0.97483                      -0.21232
                      -0.06614                       0.97475                      -0.21327
                      -0.06379                       0.97467                      -0.21437
                      -0.06101                       0.97457                      -0.21560
                      -0.05776                       0.97448                      -0.21690
                      -0.05396                       0.97441                      -0.21821
                      -0.04950                       0.97435                      -0.21954
                      -0.04428                       0.97430                      -0.22088
                      -0.03828                       0.97424                      -0.22224
                      -0.03154                       0.97416                      -0.22363
                      -0.02424                       0.97405                      -0.22505
                      -0.01670                       0.97388                      -0.22647
                      -0.00943                       0.97366                      -0.22781
                      -0.00314                       0.97343                      -0.22897
                       0.00121                       0.97324                      -0.22979
                       0.00236                       0.97318                      -0.23005
                       0.00197                       0.97319                      -0.23000
                      -0.06961                       0.97494                      -0.21131
        </DataArray>
      </PointData>
      <Lines>
        <DataArray type="Int32" Name="connectivity" format="ascii">
      0      1
      1      2
      2      3
      3      4
      4      5
      5      6
      6      7
      7      8
      8      9
      9     10
     10     11
     11     12
     12     13
     13     14
     14     15
     15     16
     16     17
     18      0
        </DataArray>
        <DataArray type="Int32" Name="offsets" format="ascii">
      2
      4
      6
      8
     10
     12
     14
     16
     18
     20
     22
     24
     26
     28
     30
     32
     34
     36
        </DataArray>
      </Lines>
    </Piece>
  </PolyData>
</VTKFile>
