<?xml version="1.0"?>
<VTKFile type="PolyData" version="0.1" byte_order="LittleEndian">
  <PolyData>
    <Piece NumberOfPoints="     19" NumberOfVerts="  0" NumberOfLines="     18"
           NumberOfStrips="  0" NumberOfPolys="      0">
      <Points>
        <DataArray type="Float32" NumberOfComponents="3" format="ascii">
                       2.52174                       1.21257                      89.29956
                       2.37452                       2.34449                      88.54793
                       2.06809                       4.66072                      87.12558
                       1.75946                       7.00216                      85.74131
                       1.37824                       9.94478                      84.03344
                       0.97412                      13.39882                      81.85859
                       0.60145                      16.78242                      79.57271
                       0.25087                      20.16636                      77.28385
                      -0.06962                      23.54984                      74.98991
                      -0.35358                      26.93399                      72.69219
                      -0.59911                      30.32049                      70.39357
                      -0.79354                      33.70821                      68.09191
                      -0.93058                      37.09623                      65.78660
                      -1.00709                      40.48343                      63.47731
                      -1.02300                      43.86871                      61.16398
                      -0.99753                      46.68794                      59.23354
                      -0.95884                      48.93772                      57.68135
                      -0.92136                      51.15662                      56.08342
                      -0.89916                      52.28923                      55.31895
        </DataArray>
      </Points>
      <PointData>
        <DataArray type="Float32" Name="Force" NumberOfComponents="3" format="ascii">
                      -0.03030                      -0.17851                      -0.26142
                      67.27384                      -5.49294                     -21.30776
                      83.46490                     -21.62943                     -48.41441
                      73.09290                     -33.61079                     -64.10573
                     826.29973                     222.62796                     181.25980
                    1075.20537                     255.75122                     193.35027
                    1239.78663                     246.94002                     162.97110
                    1567.65888                     262.61401                     150.09316
                    1688.69269                     232.23218                     110.12490
                    1916.13693                     213.20342                      83.23027
                    2322.61414                     197.54265                      59.22241
                    2629.71716                     159.55131                      35.33806
                    3054.50184                     124.76181                      31.49438
                    3334.85227                      66.49406                      20.20108
                    3591.42386                       4.22331                       9.77566
                    3746.27500                     -46.35805                      -6.45593
                    3679.22982                     -78.61221                     -28.61858
                    2700.83151                     -71.76055                     -34.80999
                    1282.30037                     -94.09779                    -105.04475
        </DataArray>
        <DataArray type="Float32" Name="Moment" NumberOfComponents="3" format="ascii">
                       0.00000                       0.00000                       0.00000
                       0.00000                       0.00000                       0.00000
                       0.00000                       0.00000                       0.00000
                       0.00000                       0.00000                       0.00000
                      28.94665                    -235.80956                     157.66977
                      38.64531                    -328.85189                     220.08053
                      49.41625                    -444.75171                     297.97548
                      64.45408                    -624.03105                     418.65526
                      77.60492                    -828.23937                     556.57682
                      77.90527                    -949.84201                     639.57977
                      68.45261                   -1009.02041                     681.08618
                      55.85628                   -1082.97944                     733.05014
                      33.36627                    -985.86040                     669.33833
                      15.64643                    -989.41888                     673.82238
                      -0.65835                    -963.92635                     658.30457
                     -10.28807                    -918.95274                     628.71011
                     -13.10331                    -816.89244                     559.34339
                      -7.30856                    -411.93192                     282.13969
                      -6.14852                    -355.84564                     243.70605
        </DataArray>
        <DataArray type="Float32" Name="TranslationalVelocity" NumberOfComponents="3" format="ascii">
                      -0.24551                       0.74576                       1.12824
                      -0.11534                       1.46161                       2.18077
                       0.15009                       2.81959                       4.33510
                       0.41871                       4.14347                       6.51483
                       0.75778                       5.77886                       9.25782
                       1.16085                       7.85604                      12.48357
                       1.56209                      10.03830                      15.65023
                       1.96921                      12.22591                      18.82391
                       2.38307                      14.41986                      22.00375
                       2.80458                      16.61793                      25.19052
                       3.23365                      18.81636                      28.38485
                       3.67134                      21.01563                      31.58596
                       4.11758                      23.21494                      34.79255
                       4.57172                      25.41359                      38.00308
                       5.03240                      27.61093                      41.21590
                       5.41972                      29.44107                      43.89397
                       5.73028                      30.91096                      46.03225
                       6.03723                      32.42475                      48.14150
                       6.19275                      33.14848                      49.21822
        </DataArray>
        <DataArray type="Float32" Name="RotationalVelocity" NumberOfComponents="3" format="ascii">
                       0.93088                      -0.01003                      -0.10822
                       0.93117                      -0.01006                      -0.10832
                       0.93189                      -0.01014                      -0.10858
                       0.93278                      -0.01026                      -0.10893
                       0.93413                      -0.01049                      -0.10954
                       0.93597                      -0.01088                      -0.11049
                       0.93791                      -0.01141                      -0.11166
                       0.93984                      -0.01208                      -0.11303
                       0.94170                      -0.01286                      -0.11457
                       0.94343                      -0.01375                      -0.11624
                       0.94499                      -0.01472                      -0.11800
                       0.94637                      -0.01573                      -0.11977
                       0.94756                      -0.01671                      -0.12147
                       0.94856                      -0.01759                      -0.12299
                       0.94934                      -0.01828                      -0.12417
                       0.94980                      -0.01860                      -0.12475
                       0.95003                      -0.01864                      -0.12485
                       0.95015                      -0.01849                      -0.12465
                       0.95017                      -0.01835                      -0.12444
        </DataArray>
        <DataArray type="Float32" Name="TranslationalAcceleration" NumberOfComponents="3" format="ascii">
                       1.23721                      -1.00500                       1.06916
                       1.24889                      -1.96694                       1.79644
                       1.26406                      -3.95038                       3.16978
                       1.26392                      -5.98996                       4.46165
                       1.23402                      -8.61073                       5.96618
                       1.14801                     -11.78888                       7.73126
                       0.98828                     -15.04433                       9.42897
                       0.74403                     -18.43939                      10.96261
                       0.43697                     -21.96822                      12.33713
                       0.11539                     -25.62081                      13.55776
                      -0.16005                     -29.37551                      14.64372
                      -0.30084                     -33.23208                      15.58762
                      -0.21006                     -37.18257                      16.39768
                       0.20183                     -41.22312                      17.08480
                       0.99651                     -45.35113                      17.66514
                       1.95169                     -48.85142                      18.08504
                       2.89783                     -51.68436                      18.39738
                       3.96317                     -54.52496                      18.75164
                       4.50670                     -55.95222                      18.88522
        </DataArray>
        <DataArray type="Float32" Name="OrientationX" NumberOfComponents="3" format="ascii">
                       0.98495                       0.16427                       0.05365
                       0.98500                       0.16390                       0.05390
                       0.98514                       0.16285                       0.05461
                       0.98532                       0.16141                       0.05557
                       0.98562                       0.15901                       0.05717
                       0.98986                       0.13813                       0.03303
                       0.99249                       0.12116                       0.01681
                       0.99449                       0.10474                       0.00369
                       0.99621                       0.08641                      -0.00956
                       0.99755                       0.06624                      -0.02233
                       0.99845                       0.04496                      -0.03294
                       0.99885                       0.02232                      -0.04241
                       0.99877                      -0.00026                      -0.04958
                       0.99839                      -0.02054                      -0.05287
                       0.99761                      -0.03960                      -0.05666
                       0.99669                      -0.05325                      -0.06134
                       0.99592                      -0.06136                      -0.06620
                       0.99548                      -0.06509                      -0.06922
                       0.99548                      -0.06477                      -0.06943
        </DataArray>
        <DataArray type="Float32" Name="OrientationY" NumberOfComponents="3" format="ascii">
                       0.13505                      -0.53799                      -0.83206
                       0.13506                      -0.53805                      -0.83202
                       0.13508                      -0.53819                      -0.83193
                       0.13510                      -0.53836                      -0.83181
                       0.13514                      -0.53863                      -0.83163
                       0.10366                      -0.54373                      -0.83283
                       0.08090                      -0.54710                      -0.83315
                       0.06099                      -0.54975                      -0.83310
                       0.03990                      -0.55215                      -0.83279
                       0.01817                      -0.55417                      -0.83220
                      -0.00241                      -0.55566                      -0.83141
                      -0.02282                      -0.55665                      -0.83043
                      -0.04132                      -0.55712                      -0.82940
                      -0.05534                      -0.55719                      -0.82854
                      -0.06912                      -0.55695                      -0.82766
                      -0.08063                      -0.55651                      -0.82692
                      -0.08919                      -0.55605                      -0.82635
                      -0.09377                      -0.55577                      -0.82603
                      -0.09377                      -0.55577                      -0.82603
        </DataArray>
        <DataArray type="Float32" Name="OrientationZ" NumberOfComponents="3" format="ascii">
                      -0.10782                       0.82679                      -0.55208
                      -0.10737                       0.82682                      -0.55212
                      -0.10609                       0.82694                      -0.55219
                      -0.10435                       0.82711                      -0.55227
                      -0.10145                       0.82740                      -0.55237
                      -0.09708                       0.82781                      -0.55254
                      -0.09175                       0.82825                      -0.55279
                      -0.08523                       0.82874                      -0.55311
                      -0.07724                       0.82925                      -0.55351
                      -0.06750                       0.82976                      -0.55402
                      -0.05569                       0.83020                      -0.55468
                      -0.04215                       0.83045                      -0.55550
                      -0.02740                       0.83043                      -0.55645
                      -0.01244                       0.83013                      -0.55743
                       0.00122                       0.82960                      -0.55836
                       0.00990                       0.82913                      -0.55896
                       0.01389                       0.82888                      -0.55925
                       0.01529                       0.82879                      -0.55936
                       0.01491                       0.82881                      -0.55933
        </DataArray>
      </PointData>
      <Lines>
        <DataArray type="Int32" Name="connectivity" format="ascii">
      0      1
      1      2
      2      3
      3      4
      4      5
      5      6
      6      7
      7      8
      8      9
      9     10
     10     11
     11     12
     12     13
     13     14
     14     15
     15     16
     16     17
     17     18
        </DataArray>
        <DataArray type="Int32" Name="offsets" format="ascii">
      2
      4
      6
      8
     10
     12
     14
     16
     18
     20
     22
     24
     26
     28
     30
     32
     34
     36
        </DataArray>
      </Lines>
    </Piece>
  </PolyData>
</VTKFile>
