<?xml version="1.0"?>
<VTKFile type="PolyData" version="0.1" byte_order="LittleEndian">
  <PolyData>
    <Piece NumberOfPoints="     19" NumberOfVerts="  0" NumberOfLines="     18"
           NumberOfStrips="  0" NumberOfPolys="      0">
      <Points>
        <DataArray type="Float32" NumberOfComponents="3" format="ascii">
                       3.08011                       3.21476                      90.84052
                       3.02236                       6.75010                      91.60564
                       2.97265                      10.28573                      92.36999
                       2.93405                      13.82168                      93.13345
                       2.90908                      17.35799                      93.89583
                       2.90048                      20.89466                      94.65688
                       2.91165                      24.43164                      95.41638
                       2.94689                      27.96884                      96.17413
                       3.01141                      31.50607                      96.92978
                       3.11104                      35.04303                      97.68277
                       3.25178                      38.57930                      98.43235
                       3.43898                      42.11433                      99.17760
                       3.67643                      45.64745                      99.91755
                       3.96509                      49.17803                     100.65152
                       4.30169                      52.70568                     101.37936
                       4.67697                      56.23059                     102.10182
                       5.07380                      59.75386                     102.82109
                       5.27490                      61.51527                     103.18031
                       3.11055                       1.44716                      90.45779
        </DataArray>
      </Points>
      <PointData>
        <DataArray type="Float32" Name="TranslationalVelocity" NumberOfComponents="3" format="ascii">
                       0.67682                      -0.64655                       3.00599
                       1.08613                      -1.34185                       6.24968
                       1.49032                      -2.04156                       9.51259
                       1.88779                      -2.74687                      12.79940
                       2.27768                      -3.45847                      16.11298
                       2.65955                      -4.17664                      19.45473
                       3.03286                      -4.90149                      22.82494
                       3.39683                      -5.63304                      26.22301
                       3.75049                      -6.37108                      29.64777
                       4.09270                      -7.11515                      33.09765
                       4.42225                      -7.86442                      36.57078
                       4.73809                      -8.61775                      40.06499
                       5.03952                      -9.37370                      43.57784
                       5.32660                     -10.13076                      47.10647
                       5.60051                     -10.88760                      50.64768
                       5.86412                     -11.64343                      54.19778
                       6.12249                     -12.39842                      57.75251
                       6.25115                     -12.77580                      59.53044
                       0.47113                      -0.29980                       1.38823
        </DataArray>
        <DataArray type="Float32" Name="RotationalVelocity" NumberOfComponents="3" format="ascii">
                       0.91506                       0.00974                      -0.11426
                       0.91963                       0.00957                      -0.11312
                       0.92583                       0.00932                      -0.11144
                       0.93305                       0.00901                      -0.10942
                       0.94085                       0.00868                      -0.10727
                       0.94888                       0.00834                      -0.10502
                       0.95685                       0.00795                      -0.10258
                       0.96460                       0.00751                      -0.09991
                       0.97201                       0.00701                      -0.09697
                       0.97900                       0.00643                      -0.09372
                       0.98554                       0.00577                      -0.09016
                       0.99157                       0.00506                      -0.08638
                       0.99701                       0.00432                      -0.08251
                       1.00171                       0.00360                      -0.07880
                       1.00548                       0.00298                      -0.07562
                       1.00801                       0.00255                      -0.07344
                       1.00886                       0.00245                      -0.07291
                       1.00881                       0.00250                      -0.07313
                       0.91326                       0.00979                      -0.11467
        </DataArray>
        <DataArray type="Float32" Name="TranslationalAcceleration" NumberOfComponents="3" format="ascii">
                      -0.52415                      -2.84529                      -0.51724
                      -0.53061                      -5.92260                      -0.90095
                      -0.56736                      -9.00983                      -1.40614
                      -0.64925                     -12.10943                      -2.06339
                      -0.79145                     -15.22323                      -2.89027
                      -1.00559                     -18.35244                      -3.89381
                      -1.29538                     -21.49740                      -5.07357
                      -1.65472                     -24.65764                      -6.42401
                      -2.06785                     -27.83227                      -7.93620
                      -2.50992                     -31.02036                      -9.59942
                      -2.94862                     -34.22144                     -11.40242
                      -3.34700                     -37.43602                     -13.33401
                      -3.66725                     -40.66586                     -15.38301
                      -3.87552                     -43.91366                     -17.53747
                      -3.94781                     -47.18202                     -19.78311
                      -3.87692                     -50.47143                     -22.10114
                      -3.68011                     -53.77741                     -24.46507
                      -3.55415                     -55.43358                     -25.65459
                      -0.52674                      -1.30874                      -0.35106
        </DataArray>
        <DataArray type="Float32" Name="RotationalAcceleration" NumberOfComponents="3" format="ascii">
                       0.08755                      -0.05270                      -0.02643
                       0.06026                      -0.05450                      -0.02037
                       0.02304                      -0.05728                      -0.01060
                      -0.02046                      -0.06107                       0.00334
                      -0.06704                      -0.06578                       0.02124
                      -0.11433                      -0.07100                       0.04145
                      -0.16077                      -0.07613                       0.06134
                      -0.20527                      -0.08060                       0.07829
                      -0.24723                      -0.08382                       0.08971
                      -0.28645                      -0.08530                       0.09331
                      -0.32296                      -0.08467                       0.08741
                      -0.35681                      -0.08176                       0.07122
                      -0.38789                      -0.07666                       0.04509
                      -0.41564                      -0.06973                       0.01081
                      -0.43899                      -0.06171                      -0.02810
                      -0.45611                      -0.05377                      -0.06619
                      -0.46410                      -0.04748                      -0.09586
                      -0.46538                      -0.04498                      -0.10751
                       0.09822                      -0.05203                      -0.02862
        </DataArray>
        <DataArray type="Float32" Name="OrientationX" NumberOfComponents="3" format="ascii">
                       0.99384                      -0.00683                       0.11061
                       0.99387                      -0.00850                       0.11025
                       0.99390                      -0.01110                       0.10969
                       0.99531                      -0.01160                       0.09603
                       0.99785                      -0.00905                       0.06498
                       0.99886                      -0.01013                       0.04670
                       0.99953                      -0.01221                       0.02796
                       0.99985                      -0.01538                       0.00793
                       0.99972                      -0.02004                      -0.01266
                       0.99911                      -0.02650                      -0.03280
                       0.99800                      -0.03461                      -0.05298
                       0.99639                      -0.04421                      -0.07246
                       0.99452                      -0.05522                      -0.08880
                       0.99242                      -0.06630                      -0.10352
                       0.99013                      -0.07579                      -0.11788
                       0.98794                      -0.08187                      -0.13142
                       0.98670                      -0.08306                      -0.13974
                       0.98644                      -0.08220                      -0.14205
                       0.99383                      -0.00629                       0.11073
        </DataArray>
        <DataArray type="Float32" Name="OrientationY" NumberOfComponents="3" format="ascii">
                       0.10954                       0.21215                      -0.97108
                       0.10954                       0.21177                      -0.97116
                       0.10955                       0.21124                      -0.97128
                       0.09631                       0.21078                      -0.97278
                       0.06543                       0.21043                      -0.97542
                       0.04779                       0.20993                      -0.97655
                       0.02990                       0.20945                      -0.97736
                       0.01098                       0.20906                      -0.97784
                      -0.00820                       0.20878                      -0.97793
                      -0.02656                       0.20863                      -0.97763
                      -0.04462                       0.20864                      -0.97697
                      -0.06171                       0.20883                      -0.97600
                      -0.07544                       0.20909                      -0.97498
                      -0.08759                       0.20948                      -0.97388
                      -0.09972                       0.21007                      -0.97259
                      -0.11171                       0.21085                      -0.97111
                      -0.11958                       0.21145                      -0.97005
                      -0.12200                       0.21166                      -0.96970
                       0.10953                       0.21230                      -0.97105
        </DataArray>
        <DataArray type="Float32" Name="OrientationZ" NumberOfComponents="3" format="ascii">
                      -0.01683                       0.97721                       0.21159
                      -0.01510                       0.97728                       0.21140
                      -0.01239                       0.97737                       0.21117
                      -0.00896                       0.97747                       0.21091
                      -0.00484                       0.97757                       0.21057
                       0.00009                       0.97766                       0.21017
                       0.00608                       0.97774                       0.20972
                       0.01338                       0.97778                       0.20920
                       0.02224                       0.97776                       0.20856
                       0.03275                       0.97764                       0.20774
                       0.04487                       0.97738                       0.20668
                       0.05828                       0.97695                       0.20535
                       0.07240                       0.97634                       0.20378
                       0.08626                       0.97556                       0.20208
                       0.09848                       0.97474                       0.20044
                       0.10722                       0.97408                       0.19916
                       0.11012                       0.97385                       0.19871
                       0.10978                       0.97388                       0.19876
                      -0.01740                       0.97718                       0.21168
        </DataArray>
      </PointData>
      <Lines>
        <DataArray type="Int32" Name="connectivity" format="ascii">
      0      1
      1      2
      2      3
      3      4
      4      5
      5      6
      6      7
      7      8
      8      9
      9     10
     10     11
     11     12
     12     13
     13     14
     14     15
     15     16
     16     17
     18      0
        </DataArray>
        <DataArray type="Int32" Name="offsets" format="ascii">
      2
      4
      6
      8
     10
     12
     14
     16
     18
     20
     22
     24
     26
     28
     30
     32
     34
     36
        </DataArray>
      </Lines>
    </Piece>
  </PolyData>
</VTKFile>
