<?xml version="1.0"?>
<VTKFile type="PolyData" version="0.1" byte_order="LittleEndian">
  <PolyData>
    <Piece NumberOfPoints="     17" NumberOfVerts="  0" NumberOfLines="      0"
           NumberOfStrips="  0" NumberOfPolys="      0">
      <Points>
        <DataArray type="Float32" NumberOfComponents="3" format="ascii">
                       2.56073                       0.94480                      87.03862
                       1.97661                       2.01657                      83.63311
                       1.39979                       3.09096                      80.22719
                       0.83310                       4.16882                      76.82066
                       0.27898                       5.25064                      73.41333
                      -0.25990                       6.33667                      70.00489
                      -0.78030                       7.42715                      66.59500
                      -1.27819                       8.52228                      63.18326
                      -1.74875                       9.62219                      59.76918
                      -2.18658                      10.72684                      56.35230
                      -2.58621                      11.83595                      52.93219
                      -2.94269                      12.94901                      49.50861
                      -3.25259                      14.06527                      46.08153
                      -3.51505                      15.18386                      42.65124
                      -3.73320                      16.30388                      39.21826
                      -3.91573                      17.42451                      35.78336
                      -4.07869                      18.54529                      32.34748
        </DataArray>
      </Points>
      <PointData>
        <DataArray type="Float32" Name="Force" NumberOfComponents="3" format="ascii">
                     142.65623                     -51.00297                     -40.58166
                     486.16278                    -174.78897                    -137.30260
                    1803.70494                     626.16255                    -103.79064
                    3019.02476                    1042.73536                    -166.09057
                    1870.03433                     571.76439                    -119.73792
                    4156.34243                    1125.25959                    -294.30035
                    5169.37141                    1213.55335                    -392.60416
                    5882.94226                    1183.94048                    -462.83288
                    6438.99231                    1130.66735                    -499.13937
                    8252.30278                    1261.28682                    -609.83735
                    9596.13383                    1279.97118                    -646.05252
                   11011.77358                    1313.29464                    -636.17605
                    6316.36616                     684.41559                    -317.70204
                   12548.11886                    1209.25943                    -541.49426
                   11989.02372                     976.86166                    -429.83309
                   16793.94524                    1055.66074                    -539.59194
                    6845.95078                     266.66397                    -245.42893
        </DataArray>
        <DataArray type="Float32" Name="Moment" NumberOfComponents="3" format="ascii">
                     -17.24769                     -17.06489                      -6.44884
                      85.83929                    -299.25485                    -154.29753
                     653.48905                   -1703.69635                    -790.86179
                     636.12374                   -2211.70626                   -1054.32612
                      26.45866                    -174.39455                    -148.43949
                    -528.39058                    1840.49408                     663.20513
                    -302.24526                    1161.00968                     813.65542
                      33.77372                    -255.85534                     990.75284
                     148.47169                    -958.86192                     820.85544
                     209.35014                   -1728.58407                     428.11387
                     421.46434                   -3868.37706                    -465.17073
                     641.44172                   -6679.51498                   -1968.68541
                     -49.55278                     415.66495                     162.93751
                    -725.68727                    8099.30472                    2737.92941
                    -577.85760                    7438.85154                    2520.28483
                    -229.41208                    1219.89101                     578.23105
                     -90.23194                    -231.39941                     148.06644
        </DataArray>
      </PointData>
    </Piece>
  </PolyData>
</VTKFile>
