<?xml version="1.0"?>
<VTKFile type="PolyData" version="0.1" byte_order="LittleEndian">
  <PolyData>
    <Piece NumberOfPoints="     17" NumberOfVerts="  0" NumberOfLines="      0"
           NumberOfStrips="  0" NumberOfPolys="      0">
      <Points>
        <DataArray type="Float32" NumberOfComponents="3" format="ascii">
                       3.24424                      -0.95626                      93.27933
                       3.50834                      -1.99711                      96.73393
                       3.77740                      -3.03988                     100.18756
                       4.05338                      -4.08521                     103.63987
                       4.33799                      -5.13347                     107.09060
                       4.63290                      -6.18481                     110.53952
                       4.93982                      -7.23931                     113.98643
                       5.26063                      -8.29700                     117.43108
                       5.59729                      -9.35785                     120.87326
                       5.95182                     -10.42169                     124.31271
                       6.32606                     -11.48830                     127.74921
                       6.72140                     -12.55735                     131.18259
                       7.13845                     -13.62841                     134.61277
                       7.57661                     -14.70105                     138.03984
                       8.03349                     -15.77480                     141.46411
                       8.50438                     -16.84920                     144.88629
                       8.98151                     -17.92389                     148.30752
        </DataArray>
      </Points>
      <PointData>
        <DataArray type="Float32" Name="Force" NumberOfComponents="3" format="ascii">
                     172.89286                      77.46763                      10.16399
                     565.05619                     242.73141                      29.07796
                    1998.91970                    -706.67390                    -372.26210
                    3314.76090                   -1209.56504                    -635.72874
                    1981.56528                    -639.28742                    -359.39454
                    4177.54088                   -1164.72534                    -714.25467
                    4834.92329                   -1130.14414                    -779.86232
                    5006.51329                    -954.17701                    -765.66387
                    4976.71996                    -770.49586                    -733.18334
                    5740.12037                    -684.99587                    -816.69845
                    5798.48786                    -492.66932                    -801.68259
                    5859.70152                    -332.96971                    -799.99451
                    2947.61236                    -100.92017                    -396.77402
                    4927.35735                     -43.60826                    -649.36606
                    3593.63090                      79.76527                    -458.17094
                    4669.54852                     209.81931                    -582.91461
                    3391.57253                      92.65810                    -444.04664
        </DataArray>
        <DataArray type="Float32" Name="Moment" NumberOfComponents="3" format="ascii">
                     -18.32405                      18.48987                      11.42324
                     145.54413                     323.37697                     157.37688
                     964.40178                    1850.84434                     919.29591
                    1034.93839                    2342.69236                    1290.91405
                      68.41709                     120.09213                     291.26702
                    -735.44698                   -2054.59821                    -373.86934
                    -534.47007                   -1288.18983                    -769.16642
                    -305.21511                      70.70022                   -1330.86572
                    -217.88332                     695.11357                   -1491.90554
                    -208.96649                    1206.30083                   -1667.82897
                    -101.83489                    2473.61853                   -1572.65032
                      52.73690                    3745.16190                    -692.30267
                    -146.41247                     -47.78524                    -937.14133
                    -479.47313                   -3141.33443                   -2936.23465
                    -355.88905                   -2181.32350                   -2757.76023
                    -334.22979                    1596.15347                   -2397.64351
                     -74.66286                    1232.59224                    -467.98963
        </DataArray>
      </PointData>
    </Piece>
  </PolyData>
</VTKFile>
