<?xml version="1.0"?>
<VTKFile type="PolyData" version="0.1" byte_order="LittleEndian">
  <PolyData>
    <Piece NumberOfPoints="     19" NumberOfVerts="  0" NumberOfLines="     18"
           NumberOfStrips="  0" NumberOfPolys="      0">
      <Points>
        <DataArray type="Float32" NumberOfComponents="3" format="ascii">
                       3.25001                       2.12677                      92.65381
                       3.44022                       4.48892                      95.38720
                       3.63842                       6.85269                      98.11862
                       3.84759                       9.21832                     100.84761
                       4.07014                      11.58599                     103.57377
                       4.30863                      13.95576                     106.29674
                       4.56625                      16.32750                     109.01625
                       4.84704                      18.70090                     111.73201
                       5.15594                      21.07555                     114.44361
                       5.49846                      23.45101                     117.15043
                       5.88029                      25.82684                     119.85165
                       6.30652                      28.20260                     122.54627
                       6.78072                      30.57793                     125.23325
                       7.30382                      32.95246                     127.91186
                       7.87265                      35.32601                     130.58208
                       8.47841                      37.69865                     133.24505
                       9.10475                      40.07077                     135.90378
                       9.42050                      41.25677                     137.23259
                       3.15646                       0.94606                      91.28669
        </DataArray>
      </Points>
      <PointData>
        <DataArray type="Float32" Name="TranslationalVelocity" NumberOfComponents="3" format="ascii">
                      -0.29002                      -2.28599                       1.97705
                      -0.04122                      -4.83323                       4.16102
                       0.21320                      -7.38682                       6.35242
                       0.47564                      -9.94859                       8.55297
                       0.74836                     -12.51961                      10.76363
                       1.03345                     -15.10040                      12.98468
                       1.33267                     -17.69121                      15.21581
                       1.64742                     -20.29213                      17.45627
                       1.97872                     -22.90304                      19.70496
                       2.32720                     -25.52360                      21.96057
                       2.69295                     -28.15320                      24.22165
                       3.07545                     -30.79096                      26.48675
                       3.47343                     -33.43569                      28.75447
                       3.88472                     -36.08597                      31.02359
                       4.30606                     -38.74022                      33.29329
                       4.73296                     -41.39679                      35.56329
                       5.15938                     -44.05420                      37.83399
                       5.37161                     -45.38294                      38.96960
                      -0.41333                      -1.01368                       0.88665
        </DataArray>
        <DataArray type="Float32" Name="RotationalVelocity" NumberOfComponents="3" format="ascii">
                       0.92270                      -0.01015                      -0.11619
                       0.92486                      -0.00935                      -0.11702
                       0.92784                      -0.00805                      -0.11834
                       0.93133                      -0.00630                      -0.12009
                       0.93507                      -0.00409                      -0.12225
                       0.93886                      -0.00148                      -0.12476
                       0.94258                       0.00147                      -0.12756
                       0.94613                       0.00470                      -0.13058
                       0.94944                       0.00812                      -0.13377
                       0.95247                       0.01165                      -0.13702
                       0.95519                       0.01517                      -0.14023
                       0.95757                       0.01853                      -0.14329
                       0.95963                       0.02155                      -0.14605
                       0.96134                       0.02404                      -0.14831
                       0.96267                       0.02574                      -0.14987
                       0.96358                       0.02635                      -0.15046
                       0.96400                       0.02552                      -0.14977
                       0.96407                       0.02470                      -0.14906
                       0.92187                      -0.01041                      -0.11590
        </DataArray>
        <DataArray type="Float32" Name="TranslationalAcceleration" NumberOfComponents="3" format="ascii">
                      -1.42337                      -1.68844                      -2.31647
                      -1.86322                      -3.77225                      -4.62647
                      -2.27249                      -5.92428                      -6.90361
                      -2.63629                      -8.16257                      -9.13999
                      -2.94020                     -10.49804                     -11.33155
                      -3.17578                     -12.93519                     -13.47753
                      -3.34555                     -15.47358                     -15.57938
                      -3.46527                     -18.10895                     -17.63972
                      -3.56403                     -20.83419                     -19.66112
                      -3.68297                     -23.64019                     -21.64492
                      -3.87235                     -26.51641                     -23.59007
                      -4.18684                     -29.45123                     -25.49250
                      -4.67931                     -32.43206                     -27.34549
                      -5.39294                     -35.44556                     -29.14134
                      -6.35190                     -38.47857                     -30.87442
                      -7.55035                     -41.51976                     -32.54584
                      -8.94023                     -44.56091                     -34.16975
                      -9.67397                     -46.08069                     -34.97263
                      -1.19753                      -0.66090                      -1.15447
        </DataArray>
        <DataArray type="Float32" Name="RotationalAcceleration" NumberOfComponents="3" format="ascii">
                       0.00571                      -0.04227                       0.00771
                       0.02220                      -0.03757                       0.00254
                       0.04481                      -0.03007                      -0.00547
                       0.07141                      -0.01928                      -0.01658
                       0.09988                      -0.00581                      -0.03013
                       0.12856                       0.00851                      -0.04443
                       0.15641                       0.02098                      -0.05707
                       0.18267                       0.02877                      -0.06558
                       0.20701                       0.02914                      -0.06754
                       0.22948                       0.01974                      -0.06095
                       0.25033                      -0.00097                      -0.04448
                       0.26991                      -0.03340                      -0.01781
                       0.28835                      -0.07646                       0.01811
                       0.30541                      -0.12723                       0.06078
                       0.32041                      -0.18062                       0.10585
                       0.33198                      -0.22900                       0.14683
                       0.33777                      -0.26194                       0.17488
                       0.33884                      -0.27307                       0.18441
                      -0.00074                      -0.04404                       0.00968
        </DataArray>
        <DataArray type="Float32" Name="OrientationX" NumberOfComponents="3" format="ascii">
                       0.98737                      -0.14689                       0.05930
                       0.98729                      -0.14795                       0.05808
                       0.98715                      -0.14961                       0.05616
                       0.98887                      -0.14183                       0.04501
                       0.99238                      -0.12130                       0.02174
                       0.99378                      -0.11116                       0.00659
                       0.99479                      -0.10151                      -0.00950
                       0.99539                      -0.09191                      -0.02723
                       0.99547                      -0.08310                      -0.04625
                       0.99493                      -0.07595                      -0.06594
                       0.99378                      -0.07001                      -0.08659
                       0.99203                      -0.06563                      -0.10753
                       0.98985                      -0.06420                      -0.12675
                       0.98741                      -0.06382                      -0.14474
                       0.98489                      -0.06239                      -0.16155
                       0.98267                      -0.05885                      -0.17578
                       0.98157                      -0.05471                      -0.18309
                       0.98143                      -0.05265                      -0.18445
                       0.98740                      -0.14654                       0.05970
        </DataArray>
        <DataArray type="Float32" Name="OrientationY" NumberOfComponents="3" format="ascii">
                       0.14973                       0.74319                      -0.65211
                       0.14968                       0.74263                      -0.65276
                       0.14962                       0.74187                      -0.65364
                       0.13638                       0.74292                      -0.65534
                       0.10559                       0.74603                      -0.65748
                       0.08794                       0.74710                      -0.65887
                       0.07003                       0.74803                      -0.65996
                       0.05108                       0.74891                      -0.66070
                       0.03187                       0.74969                      -0.66102
                       0.01347                       0.75031                      -0.66095
                      -0.00465                       0.75086                      -0.66045
                      -0.02179                       0.75132                      -0.65958
                      -0.03559                       0.75159                      -0.65867
                      -0.04780                       0.75185                      -0.65760
                      -0.05998                       0.75222                      -0.65618
                      -0.07198                       0.75269                      -0.65443
                      -0.07984                       0.75306                      -0.65309
                      -0.08225                       0.75320                      -0.65263
                       0.14974                       0.74341                      -0.65185
        </DataArray>
        <DataArray type="Float32" Name="OrientationZ" NumberOfComponents="3" format="ascii">
                       0.05172                       0.65275                       0.75580
                       0.05344                       0.65315                       0.75534
                       0.05613                       0.65364                       0.75472
                       0.05951                       0.65419                       0.75399
                       0.06353                       0.65477                       0.75315
                       0.06832                       0.65535                       0.75223
                       0.07410                       0.65586                       0.75124
                       0.08112                       0.65626                       0.75016
                       0.08961                       0.65655                       0.74894
                       0.09967                       0.65671                       0.74753
                       0.11125                       0.65675                       0.74586
                       0.12407                       0.65667                       0.74390
                       0.13756                       0.65650                       0.74168
                       0.15079                       0.65623                       0.73934
                       0.16246                       0.65595                       0.73711
                       0.17082                       0.65574                       0.73541
                       0.17361                       0.65567                       0.73482
                       0.17329                       0.65569                       0.73488
                       0.05114                       0.65258                       0.75599
        </DataArray>
      </PointData>
      <Lines>
        <DataArray type="Int32" Name="connectivity" format="ascii">
      0      1
      1      2
      2      3
      3      4
      4      5
      5      6
      6      7
      7      8
      8      9
      9     10
     10     11
     11     12
     12     13
     13     14
     14     15
     15     16
     16     17
     18      0
        </DataArray>
        <DataArray type="Int32" Name="offsets" format="ascii">
      2
      4
      6
      8
     10
     12
     14
     16
     18
     20
     22
     24
     26
     28
     30
     32
     34
     36
        </DataArray>
      </Lines>
    </Piece>
  </PolyData>
</VTKFile>
