<?xml version="1.0"?>
<VTKFile type="PolyData" version="0.1" byte_order="LittleEndian">
  <PolyData>
    <Piece NumberOfPoints="     19" NumberOfVerts="  0" NumberOfLines="     18"
           NumberOfStrips="  0" NumberOfPolys="      0">
      <Points>
        <DataArray type="Float32" NumberOfComponents="3" format="ascii">
                       2.49313                      -3.16834                      89.14403
                       2.21206                      -6.60848                      88.06062
                       1.93881                     -10.04778                      86.97255
                       1.67653                     -13.48598                      85.87832
                       1.42796                     -16.92290                      84.77692
                       1.19611                     -20.35846                      83.66767
                       0.98455                     -23.79257                      82.54992
                       0.79762                     -27.22509                      81.42297
                       0.64046                     -30.65585                      80.28618
                       0.51874                     -34.08460                      79.13907
                       0.43817                     -37.51099                      77.98137
                       0.40383                     -40.93459                      76.81320
                       0.41917                     -44.35493                      75.63511
                       0.48485                     -47.77163                      74.44809
                       0.59726                     -51.18457                      73.25369
                       0.74692                     -54.59430                      72.05399
                       0.91652                     -58.00222                      70.85165
                       1.00359                     -59.70597                      70.25019
                       2.63518                      -1.44810                      89.68481
        </DataArray>
      </Points>
      <PointData>
        <DataArray type="Float32" Name="TranslationalVelocity" NumberOfComponents="3" format="ascii">
                      -0.86945                       0.90856                      -2.94592
                      -1.23250                       1.94124                      -6.13076
                      -1.59567                       2.97660                      -9.31227
                      -1.95910                       4.01551                     -12.48951
                      -2.32300                       5.05845                     -15.66191
                      -2.68798                       6.10566                     -18.82905
                      -3.05516                       7.15728                     -21.99050
                      -3.42628                       8.21340                     -25.14577
                      -3.80373                       9.27393                     -28.29428
                      -4.19042                      10.33853                     -31.43546
                      -4.58955                      11.40653                     -34.56871
                      -5.00430                      12.47687                     -37.69357
                      -5.43736                      13.54822                     -40.80978
                      -5.89035                      14.61914                     -43.91742
                      -6.36318                      15.68841                     -47.01719
                      -6.85326                      16.75544                     -50.11069
                      -7.35459                      17.82083                     -53.20066
                      -7.60707                      18.35328                     -54.74518
                      -0.68792                       0.39276                      -1.35281
        </DataArray>
        <DataArray type="Float32" Name="RotationalVelocity" NumberOfComponents="3" format="ascii">
                       0.92506                      -0.01252                      -0.10946
                       0.92447                      -0.01246                      -0.10948
                       0.92365                      -0.01237                      -0.10956
                       0.92268                      -0.01225                      -0.10968
                       0.92163                      -0.01210                      -0.10989
                       0.92049                      -0.01187                      -0.11032
                       0.91927                      -0.01151                      -0.11113
                       0.91796                      -0.01098                      -0.11249
                       0.91654                      -0.01021                      -0.11456
                       0.91504                      -0.00918                      -0.11746
                       0.91348                      -0.00786                      -0.12123
                       0.91192                      -0.00630                      -0.12580
                       0.91039                      -0.00454                      -0.13099
                       0.90900                      -0.00272                      -0.13641
                       0.90783                      -0.00102                      -0.14154
                       0.90701                       0.00032                      -0.14557
                       0.90667                       0.00095                      -0.14749
                       0.90664                       0.00104                      -0.14777
                       0.92529                      -0.01253                      -0.10948
        </DataArray>
        <DataArray type="Float32" Name="TranslationalAcceleration" NumberOfComponents="3" format="ascii">
                       0.92318                       2.61535                       0.69889
                       1.09916                       5.62832                       1.55444
                       1.26507                       8.63713                       2.41127
                       1.41688                      11.64056                       3.27038
                       1.55126                      14.63783                       4.13241
                       1.66721                      17.62846                       4.99713
                       1.76713                      20.61204                       5.86347
                       1.85751                      23.58826                       6.72949
                       1.94893                      26.55703                       7.59241
                       2.05569                      29.51868                       8.44884
                       2.19475                      32.47419                       9.29519
                       2.38423                      35.42539                      10.12806
                       2.64120                      38.37505                      10.94468
                       2.97904                      41.32653                      11.74344
                       3.40413                      44.28309                      12.52437
                       3.91202                      47.24670                      13.28984
                       4.48303                      50.21656                      14.04502
                       4.78075                      51.70273                      14.42087
                       0.83316                       1.10801                       0.27132
        </DataArray>
        <DataArray type="Float32" Name="RotationalAcceleration" NumberOfComponents="3" format="ascii">
                       0.02669                      -0.00975                       0.00484
                       0.02694                      -0.00908                       0.00265
                       0.02717                      -0.00808                      -0.00059
                       0.02726                      -0.00673                      -0.00494
                       0.02734                      -0.00516                      -0.00995
                       0.02763                      -0.00365                      -0.01484
                       0.02832                      -0.00253                      -0.01859
                       0.02964                      -0.00217                      -0.02007
                       0.03172                      -0.00292                      -0.01824
                       0.03463                      -0.00506                      -0.01220
                       0.03829                      -0.00875                      -0.00142
                       0.04253                      -0.01399                       0.01416
                       0.04712                      -0.02058                       0.03394
                       0.05172                      -0.02806                       0.05655
                       0.05590                      -0.03567                       0.07967
                       0.05915                      -0.04231                       0.09994
                       0.06094                      -0.04647                       0.11272
                       0.06140                      -0.04772                       0.11659
                       0.02660                      -0.01002                       0.00571
        </DataArray>
        <DataArray type="Float32" Name="OrientationX" NumberOfComponents="3" format="ascii">
                       0.93845                       0.03066                      -0.34404
                       0.93860                       0.03250                      -0.34347
                       0.93883                       0.03537                      -0.34256
                       0.94350                       0.03492                      -0.32952
                       0.95340                       0.02970                      -0.30025
                       0.95880                       0.02942                      -0.28255
                       0.96399                       0.03007                      -0.26422
                       0.96915                       0.03162                      -0.24444
                       0.97401                       0.03448                      -0.22388
                       0.97830                       0.03906                      -0.20348
                       0.98212                       0.04511                      -0.18278
                       0.98531                       0.05254                      -0.16252
                       0.98750                       0.06155                      -0.14512
                       0.98909                       0.07066                      -0.12927
                       0.99042                       0.07807                      -0.11394
                       0.99161                       0.08210                      -0.09984
                       0.99243                       0.08185                      -0.09156
                       0.99273                       0.08051                      -0.08944
                       0.93840                       0.03005                      -0.34424
        </DataArray>
        <DataArray type="Float32" Name="OrientationY" NumberOfComponents="3" format="ascii">
                       0.33636                      -0.30758                       0.89009
                       0.33633                      -0.30798                       0.88996
                       0.33629                      -0.30851                       0.88979
                       0.32371                      -0.30960                       0.89407
                       0.29427                      -0.31126                       0.90362
                       0.27733                      -0.31246                       0.90855
                       0.26008                      -0.31367                       0.91322
                       0.24177                      -0.31490                       0.91782
                       0.22314                      -0.31614                       0.92210
                       0.20524                      -0.31739                       0.92582
                       0.18756                      -0.31867                       0.92912
                       0.17078                      -0.31998                       0.93191
                       0.15726                      -0.32118                       0.93387
                       0.14529                      -0.32234                       0.93541
                       0.13327                      -0.32353                       0.93679
                       0.12133                      -0.32469                       0.93801
                       0.11344                      -0.32541                       0.93874
                       0.11100                      -0.32561                       0.93897
                       0.33637                      -0.30743                       0.89013
        </DataArray>
        <DataArray type="Float32" Name="OrientationZ" NumberOfComponents="3" format="ascii">
                      -0.07853                      -0.95103                      -0.29897
                      -0.07686                      -0.95084                      -0.30000
                      -0.07421                      -0.95056                      -0.30153
                      -0.07080                      -0.95023                      -0.30341
                      -0.06662                      -0.94986                      -0.30549
                      -0.06156                      -0.94947                      -0.30775
                      -0.05541                      -0.94906                      -0.31019
                      -0.04795                      -0.94860                      -0.31283
                      -0.03899                      -0.94809                      -0.31562
                      -0.02842                      -0.94749                      -0.31852
                      -0.01634                      -0.94679                      -0.32143
                      -0.00304                      -0.94597                      -0.32425
                       0.01087                      -0.94501                      -0.32685
                       0.02443                      -0.94398                      -0.32909
                       0.03627                      -0.94299                      -0.33083
                       0.04460                      -0.94225                      -0.33192
                       0.04704                      -0.94202                      -0.33224
                       0.04647                      -0.94207                      -0.33218
                      -0.07908                      -0.95110                      -0.29860
        </DataArray>
      </PointData>
      <Lines>
        <DataArray type="Int32" Name="connectivity" format="ascii">
      0      1
      1      2
      2      3
      3      4
      4      5
      5      6
      6      7
      7      8
      8      9
      9     10
     10     11
     11     12
     12     13
     13     14
     14     15
     15     16
     16     17
     18      0
        </DataArray>
        <DataArray type="Int32" Name="offsets" format="ascii">
      2
      4
      6
      8
     10
     12
     14
     16
     18
     20
     22
     24
     26
     28
     30
     32
     34
     36
        </DataArray>
      </Lines>
    </Piece>
  </PolyData>
</VTKFile>
