<?xml version="1.0"?>
<VTKFile type="PolyData" version="0.1" byte_order="LittleEndian">
  <PolyData>
    <Piece NumberOfPoints="     17" NumberOfVerts="  0" NumberOfLines="      0"
           NumberOfStrips="  0" NumberOfPolys="      0">
      <Points>
        <DataArray type="Float32" NumberOfComponents="3" format="ascii">
                       2.40627                       2.03985                      87.58833
                       1.91675                       4.28914                      84.79755
                       1.43489                       6.53645                      82.00386
                       0.96352                       8.78145                      79.20652
                       0.50491                      11.02391                      76.40502
                       0.06148                      13.26372                      73.59898
                      -0.36363                      15.50104                      70.78811
                      -0.76637                      17.73618                      67.97223
                      -1.14174                      19.96947                      65.15113
                      -1.48404                      22.20117                      62.32458
                      -1.78735                      24.43135                      59.49239
                      -2.04624                      26.65981                      56.65447
                      -2.25674                      28.88616                      53.81089
                      -2.41756                      31.10996                      50.96205
                      -2.53155                      33.33089                      48.10867
                      -2.60739                      35.54911                      45.25184
                      -2.66155                      37.76560                      42.39311
        </DataArray>
      </Points>
      <PointData>
        <DataArray type="Float32" Name="Force" NumberOfComponents="3" format="ascii">
                     155.76251                     -32.02963                     -53.30903
                     559.34567                    -111.81634                    -186.77229
                    2286.68862                     714.98289                     190.36729
                    3705.68412                    1144.63896                     311.38032
                    2243.65779                     620.06791                     139.31079
                    4905.09469                    1203.65452                     207.38614
                    5986.06143                    1271.38738                     139.01612
                    6728.79683                    1219.07828                      51.21846
                    7271.41178                    1126.56761                     -15.86128
                    9209.07797                    1202.34938                     -77.36061
                   10635.41342                    1147.83260                    -113.57079
                   12139.98307                    1080.13340                     -99.58726
                    6961.41053                     519.46807                     -40.35704
                   13865.44153                     827.37414                     -52.26011
                   13303.33998                     558.84808                     -32.12485
                   18651.92189                     416.86266                    -103.10673
                    7574.55880                       2.01936                    -135.47177
        </DataArray>
        <DataArray type="Float32" Name="Moment" NumberOfComponents="3" format="ascii">
                     -18.65719                     -14.73962                     -14.20051
                     106.63920                    -299.47814                    -311.15683
                     780.03640                   -1706.88284                   -1637.12680
                     705.28430                   -1914.25075                   -2265.69820
                       9.09395                     -25.69818                    -372.96242
                    -637.28012                    1997.66766                    1224.11786
                    -387.67593                    1202.59934                     997.79190
                     -59.28066                    -347.73174                     528.52668
                      60.27093                   -1070.92284                     129.18884
                     113.49497                   -1751.22787                    -562.70917
                     289.45299                   -3701.52607                   -2248.51575
                     445.12232                   -6126.15273                   -4735.61008
                     -42.93913                     370.95240                     223.80753
                    -497.89144                    7376.62374                    5649.95667
                    -347.77496                    6815.24014                    5212.76362
                    -218.13737                    1090.73036                     862.01990
                    -121.34177                    -315.61676                       2.77181
        </DataArray>
      </PointData>
    </Piece>
  </PolyData>
</VTKFile>
