<?xml version="1.0"?>
<VTKFile type="PolyData" version="0.1" byte_order="LittleEndian">
  <PolyData>
    <Piece NumberOfPoints="     19" NumberOfVerts="  0" NumberOfLines="     18"
           NumberOfStrips="  0" NumberOfPolys="      0">
      <Points>
        <DataArray type="Float32" NumberOfComponents="3" format="ascii">
                       2.35799                      -2.96876                      88.64250
                       2.01611                      -6.18259                      87.01715
                       1.68184                      -9.39517                      85.38774
                       1.35818                     -12.60608                      83.75293
                       1.04780                     -15.81509                      82.11183
                       0.75357                     -19.02208                      80.46382
                       0.47894                     -22.22693                      78.80830
                       0.22810                     -25.42949                      77.14460
                       0.00605                     -28.62959                      75.47213
                      -0.18172                     -31.82702                      73.79042
                      -0.32961                     -35.02154                      72.09924
                      -0.43269                     -38.21286                      70.39872
                      -0.48753                     -41.40068                      68.68941
                      -0.49348                     -44.58479                      66.97229
                      -0.45395                     -47.76526                      65.24879
                      -0.37814                     -50.94269                      63.52080
                      -0.28281                     -54.11845                      61.79058
                      -0.23290                     -55.70613                      60.92523
                       2.53039                      -1.36159                      89.45437
        </DataArray>
      </Points>
      <PointData>
        <DataArray type="Float32" Name="TranslationalVelocity" NumberOfComponents="3" format="ascii">
                      -0.66243                       1.37644                      -2.76093
                      -0.99696                       2.92763                      -5.75775
                      -1.33310                       4.48086                      -8.75118
                      -1.67158                       6.03682                     -11.74020
                      -2.01314                       7.59584                     -14.72414
                      -2.35838                       9.15812                     -17.70269
                      -2.70768                      10.72381                     -20.67569
                      -3.06120                      12.29303                     -23.64311
                      -3.41877                      13.86581                     -26.60501
                      -3.77999                      15.44199                     -29.56149
                      -4.14418                      17.02120                     -32.51267
                      -4.51043                      18.60283                     -35.45867
                      -4.87764                      20.18608                     -38.39958
                      -5.24465                      21.77012                     -41.33561
                      -5.61026                      23.35424                     -44.26719
                      -5.97344                      24.93802                     -47.19528
                      -6.33346                      26.52157                     -50.12159
                      -6.51260                      27.31335                     -51.58458
                      -0.49546                       0.60126                      -1.26183
        </DataArray>
        <DataArray type="Float32" Name="RotationalVelocity" NumberOfComponents="3" format="ascii">
                       0.93185                      -0.00846                      -0.10816
                       0.93132                      -0.00824                      -0.10847
                       0.93057                      -0.00791                      -0.10898
                       0.92966                      -0.00746                      -0.10968
                       0.92867                      -0.00691                      -0.11055
                       0.92765                      -0.00630                      -0.11154
                       0.92664                      -0.00565                      -0.11261
                       0.92568                      -0.00501                      -0.11369
                       0.92480                      -0.00440                      -0.11470
                       0.92401                      -0.00387                      -0.11558
                       0.92333                      -0.00345                      -0.11627
                       0.92276                      -0.00316                      -0.11672
                       0.92230                      -0.00302                      -0.11690
                       0.92196                      -0.00304                      -0.11678
                       0.92174                      -0.00322                      -0.11638
                       0.92164                      -0.00353                      -0.11574
                       0.92167                      -0.00395                      -0.11491
                       0.92173                      -0.00419                      -0.11447
                       0.93205                      -0.00854                      -0.10805
        </DataArray>
        <DataArray type="Float32" Name="TranslationalAcceleration" NumberOfComponents="3" format="ascii">
                       1.35602                       2.70674                       1.45827
                       1.48665                       5.59932                       2.78607
                       1.62683                       8.49053                       4.10626
                       1.78070                      11.38007                       5.41649
                       1.95200                      14.26782                       6.71516
                       2.14390                      17.15386                       8.00144
                       2.35860                      20.03845                       9.27518
                       2.59724                      22.92194                      10.53672
                       2.85985                      25.80481                      11.78680
                       3.14525                      28.68761                      13.02639
                       3.45113                      31.57086                      14.25649
                       3.77406                      34.45493                      15.47808
                       4.10961                      37.33992                      16.69209
                       4.45251                      40.22563                      17.89953
                       4.79691                      43.11149                      19.10161
                       5.13661                      45.99683                      20.30002
                       5.46543                      48.88101                      21.49729
                       5.62636                      50.32276                      22.09601
                       1.29255                       1.26017                       0.79280
        </DataArray>
        <DataArray type="Float32" Name="RotationalAcceleration" NumberOfComponents="3" format="ascii">
                       0.04059                       0.05655                       0.00799
                       0.04258                       0.05544                       0.00977
                       0.04545                       0.05370                       0.01259
                       0.04894                       0.05142                       0.01637
                       0.05276                       0.04866                       0.02102
                       0.05671                       0.04554                       0.02635
                       0.06063                       0.04222                       0.03209
                       0.06438                       0.03885                       0.03798
                       0.06785                       0.03557                       0.04373
                       0.07096                       0.03254                       0.04906
                       0.07365                       0.02991                       0.05369
                       0.07589                       0.02782                       0.05736
                       0.07769                       0.02637                       0.05985
                       0.07902                       0.02567                       0.06096
                       0.07987                       0.02576                       0.06060
                       0.08021                       0.02668                       0.05870
                       0.08000                       0.02842                       0.05530
                       0.07975                       0.02949                       0.05323
                       0.03984                       0.05694                       0.00737
        </DataArray>
        <DataArray type="Float32" Name="OrientationX" NumberOfComponents="3" format="ascii">
                       0.94010                       0.06790                      -0.33406
                       0.94028                       0.06955                      -0.33323
                       0.94054                       0.07212                      -0.33193
                       0.94515                       0.06933                      -0.31921
                       0.95482                       0.05909                      -0.29126
                       0.96014                       0.05565                      -0.27393
                       0.96526                       0.05301                      -0.25585
                       0.97036                       0.05099                      -0.23623
                       0.97519                       0.05010                      -0.21563
                       0.97949                       0.05093                      -0.19494
                       0.98336                       0.05314                      -0.17373
                       0.98663                       0.05678                      -0.15274
                       0.98897                       0.06246                      -0.13432
                       0.99072                       0.06852                      -0.11740
                       0.99218                       0.07307                      -0.10124
                       0.99343                       0.07458                      -0.08677
                       0.99423                       0.07297                      -0.07865
                       0.99450                       0.07133                      -0.07675
                       0.94004                       0.06736                      -0.33434
        </DataArray>
        <DataArray type="Float32" Name="OrientationY" NumberOfComponents="3" format="ascii">
                       0.32730                      -0.45379                       0.82882
                       0.32727                      -0.45409                       0.82867
                       0.32722                      -0.45450                       0.82846
                       0.31463                      -0.45592                       0.83256
                       0.28514                      -0.45842                       0.84176
                       0.26817                      -0.45995                       0.84648
                       0.25090                      -0.46144                       0.85096
                       0.23255                      -0.46292                       0.85535
                       0.21389                      -0.46435                       0.85943
                       0.19596                      -0.46571                       0.86297
                       0.17824                      -0.46705                       0.86608
                       0.16143                      -0.46836                       0.86867
                       0.14788                      -0.46950                       0.87046
                       0.13587                      -0.47056                       0.87184
                       0.12382                      -0.47164                       0.87305
                       0.11184                      -0.47268                       0.87411
                       0.10393                      -0.47333                       0.87473
                       0.10149                      -0.47351                       0.87492
                       0.32731                      -0.45367                       0.82888
        </DataArray>
        <DataArray type="Float32" Name="OrientationZ" NumberOfComponents="3" format="ascii">
                      -0.09531                      -0.88852                      -0.44884
                      -0.09369                      -0.88824                      -0.44973
                      -0.09112                      -0.88782                      -0.45108
                      -0.08781                      -0.88732                      -0.45272
                      -0.08378                      -0.88677                      -0.45455
                      -0.07889                      -0.88620                      -0.45654
                      -0.07295                      -0.88559                      -0.45871
                      -0.06574                      -0.88494                      -0.46105
                      -0.05707                      -0.88423                      -0.46355
                      -0.04684                      -0.88347                      -0.46614
                      -0.03512                      -0.88263                      -0.46875
                      -0.02221                      -0.88171                      -0.47126
                      -0.00870                      -0.88072                      -0.47355
                       0.00450                      -0.87970                      -0.47551
                       0.01604                      -0.87876                      -0.47700
                       0.02418                      -0.87807                      -0.47792
                       0.02660                      -0.87786                      -0.47818
                       0.02607                      -0.87790                      -0.47814
                      -0.09585                      -0.88862                      -0.44852
        </DataArray>
      </PointData>
      <Lines>
        <DataArray type="Int32" Name="connectivity" format="ascii">
      0      1
      1      2
      2      3
      3      4
      4      5
      5      6
      6      7
      7      8
      8      9
      9     10
     10     11
     11     12
     12     13
     13     14
     14     15
     15     16
     16     17
     18      0
        </DataArray>
        <DataArray type="Int32" Name="offsets" format="ascii">
      2
      4
      6
      8
     10
     12
     14
     16
     18
     20
     22
     24
     26
     28
     30
     32
     34
     36
        </DataArray>
      </Lines>
    </Piece>
  </PolyData>
</VTKFile>
