<?xml version="1.0"?>
<VTKFile type="PolyData" version="0.1" byte_order="LittleEndian">
  <PolyData>
    <Piece NumberOfPoints="     17" NumberOfVerts="  0" NumberOfLines="      0"
           NumberOfStrips="  0" NumberOfPolys="      0">
      <Points>
        <DataArray type="Float32" NumberOfComponents="3" format="ascii">
                       2.58371                      -1.39181                      87.16728
                       2.02830                      -2.89376                      83.92336
                       1.48335                      -4.39341                      80.67661
                       0.95293                      -5.88993                      77.42601
                       0.44056                      -7.38284                      74.17087
                      -0.05010                      -8.87189                      70.91062
                      -0.51474                     -10.35679                      67.64468
                      -0.94813                     -11.83722                      64.37244
                      -1.34416                     -13.31287                      61.09333
                      -1.69610                     -14.78350                      57.80696
                      -1.99716                     -16.24898                      54.51326
                      -2.24135                     -17.70933                      51.21259
                      -2.42467                     -19.16473                      47.90577
                      -2.54649                     -20.61551                      44.59403
                      -2.61134                     -22.06229                      41.27884
                      -2.63096                     -23.50610                      37.96164
                      -2.62657                     -24.94842                      34.64364
        </DataArray>
      </Points>
      <PointData>
        <DataArray type="Float32" Name="Force" NumberOfComponents="3" format="ascii">
                     139.86017                     -79.99801                      13.01115
                     519.62164                    -261.67064                      33.97365
                    1895.60097                     589.04194                    -582.82297
                    3156.19264                     999.45482                    -963.74099
                    1912.81144                     529.95908                    -538.84857
                    4113.58564                     992.28580                   -1063.95547
                    4907.72514                    1006.11269                   -1141.60936
                    5338.20565                     918.62427                   -1099.21005
                    5625.76119                     833.73815                   -1021.32715
                    7002.55181                     895.64399                   -1098.79892
                    7894.41653                     887.63685                   -1042.77427
                    8852.55328                     927.49455                    -967.09698
                    5007.25457                     493.56565                    -458.44787
                    9867.06083                     911.24052                    -729.55085
                    9528.16331                     834.66046                    -530.74646
                   14265.38146                    1225.15052                    -605.64113
                    6494.89658                     572.16479                    -253.68523
        </DataArray>
        <DataArray type="Float32" Name="Moment" NumberOfComponents="3" format="ascii">
                     -19.62648                     -19.39473                       8.57054
                     127.59843                    -360.79687                      82.78564
                     870.04326                   -1966.97520                     386.76045
                     882.43487                   -2526.96513                     532.61582
                      33.76993                    -240.15065                     -41.91355
                    -732.93487                    1882.71254                    -721.82088
                    -417.81209                    1541.81918                      21.86227
                      13.72648                     784.60737                    1266.48766
                     175.54987                     284.22880                    1747.13350
                     276.61797                    -268.10634                    2214.98310
                     540.20813                   -1934.76184                    3041.24898
                     800.09306                   -4431.11514                    3548.26422
                     -33.60739                     629.28849                     488.89124
                    -785.58761                    6729.76464                   -1438.01142
                    -644.84204                    6099.38037                   -1333.20121
                     -32.82493                     885.05742                    1077.15296
                     -11.27141                    -178.24916                     501.06790
        </DataArray>
      </PointData>
    </Piece>
  </PolyData>
</VTKFile>
