<?xml version="1.0"?>
<VTKFile type="PolyData" version="0.1" byte_order="LittleEndian">
  <PolyData>
    <Piece NumberOfPoints="     19" NumberOfVerts="  0" NumberOfLines="     18"
           NumberOfStrips="  0" NumberOfPolys="      0">
      <Points>
        <DataArray type="Float32" NumberOfComponents="3" format="ascii">
                       2.86419                       0.37536                      88.73184
                       2.64016                       0.75275                      87.43752
                       2.17428                       1.59872                      84.87841
                       1.70298                       2.48913                      82.33315
                       1.11582                       3.63065                      79.15959
                       0.47133                       4.86822                      75.30308
                      -0.13611                       5.98693                      71.40595
                      -0.72368                       7.10936                      67.50681
                      -1.28340                       8.23413                      63.60421
                      -1.80898                       9.36326                      59.69809
                      -2.29850                      10.49951                      55.78933
                      -2.73935                      11.64171                      51.87647
                      -3.12505                      12.78900                      47.95925
                      -3.45212                      13.94022                      44.03780
                      -3.72006                      15.09409                      40.11259
                      -3.90528                      16.05672                      36.83941
                      -4.03483                      16.81951                      34.21770
                      -4.16211                      17.52970                      31.57998
                      -4.22471                      17.92471                      30.27317
        </DataArray>
      </Points>
      <PointData>
        <DataArray type="Float32" Name="Force" NumberOfComponents="3" format="ascii">
                      -0.04110                      -1.15157                      -0.32525
                      58.44952                     -16.05185                     -14.70990
                      74.67931                     -43.39294                     -25.30812
                      68.26593                     -60.82874                     -29.12640
                     623.35316                     247.24614                     -32.72544
                     816.31067                     273.80692                     -53.94307
                     988.05265                     278.65798                     -75.50160
                    1314.79425                     319.20269                    -107.08296
                    1477.18063                     301.69041                    -125.15779
                    1747.30405                     309.46069                    -144.83381
                    2193.26368                     332.01580                    -172.06863
                    2546.90790                     333.42706                    -179.99267
                    2976.73633                     352.33471                    -176.59536
                    3245.43374                     333.24292                    -157.65281
                    3444.58852                     299.47807                    -134.67811
                    3527.56745                     255.27918                    -121.01708
                    3411.11049                     201.78039                    -115.60895
                    2469.46962                     116.69057                     -88.24134
                    1165.57737                     -37.15161                     -68.24686
        </DataArray>
        <DataArray type="Float32" Name="Moment" NumberOfComponents="3" format="ascii">
                       0.00000                       0.00000                       0.00000
                       0.00000                       0.00000                       0.00000
                       0.00000                       0.00000                       0.00000
                       0.00000                       0.00000                       0.00000
                      38.87640                     -67.18128                     232.95065
                      67.31899                    -119.21739                     413.59648
                      83.83913                    -153.18751                     531.78414
                     111.42551                    -211.94382                     736.33177
                     142.83832                    -286.31786                     995.69230
                     148.41542                    -318.68580                    1109.58992
                     142.04921                    -334.28072                    1165.60992
                     132.06294                    -349.59480                    1221.09299
                     102.12619                    -313.30249                    1096.37865
                      84.84103                    -310.77688                    1089.62052
                      67.28280                    -300.01312                    1053.72881
                      54.90972                    -284.51377                    1000.41504
                      44.97184                    -252.10130                     886.91073
                      21.89204                    -126.55189                     445.30509
                      18.75146                    -107.67575                     378.86883
        </DataArray>
        <DataArray type="Float32" Name="TranslationalVelocity" NumberOfComponents="3" format="ascii">
                      -0.38841                       1.36426                       0.36204
                      -0.33240                       2.58071                       0.70704
                      -0.20999                       4.98699                       1.48007
                      -0.08229                       7.37624                       2.29181
                       0.08089                      10.34648                       3.32874
                       0.26199                      13.93344                       4.44711
                       0.42956                      17.53502                       5.45213
                       0.59758                      21.11753                       6.45547
                       0.76789                      24.68202                       7.45595
                       0.94440                      28.22908                       8.45539
                       1.13120                      31.76071                       9.45678
                       1.33514                      35.27672                      10.45861
                       1.56279                      38.77808                      11.46040
                       1.81988                      42.26562                      12.46176
                       2.10970                      45.74031                      13.46263
                       2.37498                      48.62771                      14.29630
                       2.60035                      50.93540                      14.95633
                       2.82783                      53.25583                      15.56994
                       2.94675                      54.40530                      15.91165
        </DataArray>
        <DataArray type="Float32" Name="RotationalVelocity" NumberOfComponents="3" format="ascii">
                       0.92041                      -0.00933                      -0.11631
                       0.91972                      -0.00939                      -0.11621
                       0.91803                      -0.00958                      -0.11597
                       0.91595                      -0.00979                      -0.11567
                       0.91279                      -0.01006                      -0.11520
                       0.90847                      -0.01027                      -0.11452
                       0.90390                      -0.01042                      -0.11377
                       0.89936                      -0.01080                      -0.11310
                       0.89503                      -0.01178                      -0.11263
                       0.89100                      -0.01371                      -0.11249
                       0.88737                      -0.01708                      -0.11284
                       0.88408                      -0.02191                      -0.11366
                       0.88114                      -0.02812                      -0.11494
                       0.87855                      -0.03534                      -0.11658
                       0.87640                      -0.04284                      -0.11838
                       0.87507                      -0.04843                      -0.11976
                       0.87442                      -0.05178                      -0.12061
                       0.87411                      -0.05404                      -0.12121
                       0.87410                      -0.05469                      -0.12140
        </DataArray>
        <DataArray type="Float32" Name="TranslationalAcceleration" NumberOfComponents="3" format="ascii">
                      -0.94666                      -0.01931                       1.31071
                      -0.80714                      -0.28510                       2.44670
                      -0.52092                      -0.91532                       4.68626
                      -0.20156                      -1.64628                       6.87285
                       0.26267                      -2.69289                       9.51863
                       0.94925                      -4.01627                      12.61195
                       1.79822                      -5.47011                      15.61636
                       2.78675                      -7.17022                      18.49585
                       3.85972                      -9.12334                      21.26251
                       4.91790                     -11.33447                      23.93333
                       5.85023                     -13.77900                      26.53443
                       6.49273                     -16.47412                      29.07811
                       6.67677                     -19.40191                      31.58201
                       6.25299                     -22.53362                      34.05691
                       5.12732                     -25.82982                      36.50651
                       3.66626                     -28.66594                      38.53119
                       2.18475                     -30.96833                      40.14998
                       0.53312                     -33.25154                      41.81851
                      -0.32406                     -34.41729                      42.61934
        </DataArray>
        <DataArray type="Float32" Name="OrientationX" NumberOfComponents="3" format="ascii">
                       0.96732                       0.23303                      -0.09992
                       0.96739                       0.23292                      -0.09953
                       0.96758                       0.23259                      -0.09841
                       0.96785                       0.23215                      -0.09687
                       0.96828                       0.23141                      -0.09431
                       0.97459                       0.20041                      -0.10010
                       0.97882                       0.17736                      -0.10228
                       0.98232                       0.15666                      -0.10246
                       0.98571                       0.13441                      -0.10158
                       0.98886                       0.11103                      -0.09919
                       0.99162                       0.08813                      -0.09444
                       0.99401                       0.06487                      -0.08793
                       0.99589                       0.04307                      -0.07964
                       0.99724                       0.02546                      -0.06974
                       0.99811                       0.00840                      -0.06089
                       0.99842                      -0.00511                      -0.05600
                       0.99840                      -0.01448                      -0.05463
                       0.99833                      -0.01931                      -0.05454
                       0.99831                      -0.01922                      -0.05484
        </DataArray>
        <DataArray type="Float32" Name="OrientationY" NumberOfComponents="3" format="ascii">
                       0.19354                      -0.93320                      -0.30278
                       0.19352                      -0.93318                      -0.30285
                       0.19349                      -0.93313                      -0.30305
                       0.19345                      -0.93306                      -0.30329
                       0.19339                      -0.93295                      -0.30364
                       0.16231                      -0.93970                      -0.30103
                       0.13976                      -0.94389                      -0.29922
                       0.11999                      -0.94710                      -0.29768
                       0.09904                      -0.95004                      -0.29601
                       0.07743                      -0.95257                      -0.29430
                       0.05696                      -0.95450                      -0.29273
                       0.03662                      -0.95594                      -0.29126
                       0.01818                      -0.95683                      -0.29007
                       0.00420                      -0.95722                      -0.28933
                      -0.00955                      -0.95738                      -0.28868
                      -0.02106                      -0.95735                      -0.28816
                      -0.02963                      -0.95724                      -0.28777
                      -0.03422                      -0.95715                      -0.28756
                      -0.03423                      -0.95715                      -0.28755
        </DataArray>
        <DataArray type="Float32" Name="OrientationZ" NumberOfComponents="3" format="ascii">
                      -0.16381                       0.27354                      -0.94781
                      -0.16342                       0.27372                      -0.94783
                      -0.16231                       0.27418                      -0.94788
                      -0.16079                       0.27480                      -0.94796
                      -0.15825                       0.27577                      -0.94811
                      -0.15439                       0.27713                      -0.94835
                      -0.14961                       0.27858                      -0.94869
                      -0.14368                       0.28012                      -0.94915
                      -0.13629                       0.28172                      -0.94977
                      -0.12716                       0.28334                      -0.95055
                      -0.11594                       0.28490                      -0.95152
                      -0.10295                       0.28630                      -0.95259
                      -0.08870                       0.28743                      -0.95369
                      -0.07412                       0.28824                      -0.95469
                      -0.06072                       0.28872                      -0.95549
                      -0.05214                       0.28888                      -0.95594
                      -0.04813                       0.28893                      -0.95614
                      -0.04665                       0.28894                      -0.95621
                      -0.04696                       0.28895                      -0.95619
        </DataArray>
      </PointData>
      <Lines>
        <DataArray type="Int32" Name="connectivity" format="ascii">
      0      1
      1      2
      2      3
      3      4
      4      5
      5      6
      6      7
      7      8
      8      9
      9     10
     10     11
     11     12
     12     13
     13     14
     14     15
     15     16
     16     17
     17     18
        </DataArray>
        <DataArray type="Int32" Name="offsets" format="ascii">
      2
      4
      6
      8
     10
     12
     14
     16
     18
     20
     22
     24
     26
     28
     30
     32
     34
     36
        </DataArray>
      </Lines>
    </Piece>
  </PolyData>
</VTKFile>
