<?xml version="1.0"?>
<VTKFile type="PolyData" version="0.1" byte_order="LittleEndian">
  <PolyData>
    <Piece NumberOfPoints="     19" NumberOfVerts="  0" NumberOfLines="     18"
           NumberOfStrips="  0" NumberOfPolys="      0">
      <Points>
        <DataArray type="Float32" NumberOfComponents="3" format="ascii">
                       3.21436                      -1.33754                      90.88997
                       3.23957                      -2.52950                      91.55816
                       3.25831                      -4.95908                      92.81456
                       3.26519                      -7.41097                      94.03177
                       3.27207                     -10.49022                      95.52775
                       3.36210                     -14.11957                      97.43569
                       3.50897                     -17.68930                      99.44683
                       3.67671                     -21.26095                     101.45294
                       3.87303                     -24.83381                     103.45439
                       4.10301                     -28.40870                     105.44865
                       4.36704                     -31.98682                     107.43288
                       4.67628                     -35.56721                     109.40653
                       5.03560                     -39.14895                     111.36923
                       5.44701                     -42.73101                     113.32116
                       5.91013                     -46.31237                     115.26285
                       6.32864                     -49.29590                     116.87472
                       6.67998                     -51.67823                     118.16816
                       7.03992                     -54.03419                     119.50906
                       7.21452                     -55.23209                     120.14327
        </DataArray>
      </Points>
      <PointData>
        <DataArray type="Float32" Name="Force" NumberOfComponents="3" format="ascii">
                       0.63442                       2.81285                       4.96239
                      79.72666                      13.80722                      21.34274
                     103.07479                      32.20328                      52.80555
                      94.28970                      41.77680                      69.86760
                     682.77502                    -163.24045                    -324.53672
                     885.58999                    -180.28355                    -373.00830
                    1013.44535                    -167.77815                    -369.39611
                    1298.11351                    -177.87232                    -424.32151
                    1400.48527                    -152.01551                    -408.90260
                    1613.16378                    -139.27746                    -437.67254
                    1992.98069                    -125.80989                    -503.06444
                    2275.91708                     -96.37971                    -547.94166
                    2711.82857                     -73.02415                    -652.62039
                    2985.14257                     -27.50102                    -705.99876
                    3241.90344                      21.98066                    -754.44331
                    3396.21976                      62.92475                    -771.39478
                    3330.93429                      87.74605                    -732.35753
                    2436.44250                      74.71251                    -521.39696
                    1274.57747                      82.90212                    -191.45467
        </DataArray>
        <DataArray type="Float32" Name="Moment" NumberOfComponents="3" format="ascii">
                       0.00000                       0.00000                       0.00000
                       0.00000                       0.00000                       0.00000
                       0.00000                       0.00000                       0.00000
                       0.00000                       0.00000                       0.00000
                      -5.25647                     183.76104                    -103.48974
                     -13.43124                     402.41331                    -226.38388
                     -20.60852                     525.35706                    -295.15484
                     -33.77373                     729.07390                    -408.94509
                     -54.16228                     986.47300                    -552.24073
                     -71.18271                    1091.92874                    -609.84051
                     -89.65246                    1157.50933                    -644.65248
                    -110.82915                    1213.76162                    -673.83078
                    -110.26508                    1038.11847                    -574.34262
                    -125.09578                    1032.29972                    -569.14834
                    -134.64503                     999.70899                    -549.45403
                    -135.85243                     949.22953                    -520.68627
                    -123.75420                     842.77014                    -461.88830
                     -62.85028                     424.89516                    -232.80937
                     -55.74709                     378.31281                    -207.31308
        </DataArray>
        <DataArray type="Float32" Name="TranslationalVelocity" NumberOfComponents="3" format="ascii">
                      -0.22885                      -0.73213                      -1.19334
                      -0.37027                      -1.35251                      -2.29467
                      -0.65795                      -2.51550                      -4.53927
                      -0.94657                      -3.64051                      -6.80352
                      -1.30578                      -5.02239                      -9.64551
                      -1.72347                      -6.79316                     -12.99280
                      -2.12677                      -8.66395                     -16.28245
                      -2.52211                     -10.53056                     -19.57121
                      -2.90904                     -12.39407                     -22.85854
                      -3.28765                     -14.25266                     -26.14538
                      -3.65925                     -16.10389                     -29.43320
                      -4.02357                     -17.94822                     -32.72102
                      -4.38157                     -19.78583                     -36.00818
                      -4.73457                     -21.61714                     -39.29388
                      -5.08428                     -23.44283                     -42.57736
                      -5.37464                     -24.96096                     -45.31169
                      -5.60672                     -26.18037                     -47.49446
                      -5.83720                     -27.44401                     -49.65270
                      -5.95510                     -28.04213                     -50.74995
        </DataArray>
        <DataArray type="Float32" Name="RotationalVelocity" NumberOfComponents="3" format="ascii">
                       0.92413                      -0.00085                      -0.11840
                       0.92399                      -0.00076                      -0.11822
                       0.92366                      -0.00050                      -0.11775
                       0.92327                      -0.00016                      -0.11714
                       0.92271                       0.00038                      -0.11615
                       0.92197                       0.00119                      -0.11470
                       0.92118                       0.00210                      -0.11305
                       0.92039                       0.00308                      -0.11128
                       0.91962                       0.00408                      -0.10947
                       0.91887                       0.00507                      -0.10769
                       0.91814                       0.00599                      -0.10603
                       0.91743                       0.00681                      -0.10456
                       0.91676                       0.00747                      -0.10335
                       0.91613                       0.00795                      -0.10247
                       0.91559                       0.00821                      -0.10200
                       0.91522                       0.00821                      -0.10198
                       0.91502                       0.00807                      -0.10223
                       0.91489                       0.00781                      -0.10268
                       0.91485                       0.00764                      -0.10298
        </DataArray>
        <DataArray type="Float32" Name="TranslationalAcceleration" NumberOfComponents="3" format="ascii">
                      -1.34579                       1.26505                      -0.53080
                      -1.41674                       2.30572                      -1.09289
                      -1.55593                       4.42240                      -2.15155
                      -1.70967                       6.54644                      -3.19753
                      -1.93405                       9.19435                      -4.52306
                      -2.27795                      12.27696                      -6.27790
                      -2.70848                      15.25368                      -8.19447
                      -3.20205                      18.17633                     -10.18448
                      -3.72136                      21.04021                     -12.25684
                      -4.20167                      23.84372                     -14.42105
                      -4.57446                      26.59463                     -16.67621
                      -4.73279                      29.29021                     -19.04701
                      -4.57126                      31.94033                     -21.54622
                      -3.99894                      34.56062                     -24.18239
                      -2.96279                      37.17033                     -26.95566
                      -1.75980                      39.34883                     -29.35892
                      -0.59771                      41.09321                     -31.33640
                       0.67062                      42.80607                     -33.37024
                       1.32140                      43.68940                     -34.36401
        </DataArray>
        <DataArray type="Float32" Name="OrientationX" NumberOfComponents="3" format="ascii">
                       0.94156                      -0.14974                      -0.30172
                       0.94156                      -0.14935                      -0.30194
                       0.94153                      -0.14824                      -0.30257
                       0.94149                      -0.14673                      -0.30341
                       0.94143                      -0.14422                      -0.30483
                       0.95156                      -0.12543                      -0.28072
                       0.95818                      -0.10993                      -0.26420
                       0.96346                      -0.09482                      -0.25050
                       0.96853                      -0.07800                      -0.23635
                       0.97316                      -0.05955                      -0.22227
                       0.97690                      -0.04015                      -0.20990
                       0.97996                      -0.01961                      -0.19822
                       0.98207                       0.00079                      -0.18851
                       0.98300                       0.01906                      -0.18260
                       0.98369                       0.03606                      -0.17621
                       0.98433                       0.04807                      -0.16964
                       0.98498                       0.05503                      -0.16369
                       0.98539                       0.05806                      -0.16012
                       0.98545                       0.05763                      -0.15989
        </DataArray>
        <DataArray type="Float32" Name="OrientationY" NumberOfComponents="3" format="ascii">
                       0.33630                       0.46820                       0.81712
                       0.33630                       0.46816                       0.81714
                       0.33631                       0.46806                       0.81720
                       0.33631                       0.46793                       0.81727
                       0.33631                       0.46774                       0.81738
                       0.30612                       0.47179                       0.82686
                       0.28417                       0.47422                       0.83329
                       0.26488                       0.47600                       0.83861
                       0.24440                       0.47756                       0.84392
                       0.22323                       0.47880                       0.84907
                       0.20313                       0.47961                       0.85365
                       0.18315                       0.48002                       0.85793
                       0.16500                       0.48001                       0.86161
                       0.15125                       0.47970                       0.86430
                       0.13771                       0.47918                       0.86685
                       0.12637                       0.47860                       0.86889
                       0.11793                       0.47811                       0.87035
                       0.11340                       0.47782                       0.87111
                       0.11339                       0.47782                       0.87111
        </DataArray>
        <DataArray type="Float32" Name="OrientationZ" NumberOfComponents="3" format="ascii">
                       0.01891                      -0.87084                       0.49120
                       0.01932                      -0.87093                       0.49103
                       0.02047                      -0.87118                       0.49055
                       0.02206                      -0.87150                       0.48990
                       0.02470                      -0.87202                       0.48885
                       0.02872                      -0.87274                       0.48733
                       0.03368                      -0.87352                       0.48563
                       0.03972                      -0.87432                       0.48372
                       0.04705                      -0.87513                       0.48160
                       0.05586                      -0.87590                       0.47925
                       0.06639                      -0.87656                       0.47669
                       0.07832                      -0.87704                       0.47399
                       0.09117                      -0.87727                       0.47127
                       0.10407                      -0.87723                       0.46866
                       0.11570                      -0.87698                       0.46640
                       0.12295                      -0.87671                       0.46503
                       0.12616                      -0.87658                       0.46443
                       0.12708                      -0.87654                       0.46426
                       0.12660                      -0.87656                       0.46434
        </DataArray>
      </PointData>
      <Lines>
        <DataArray type="Int32" Name="connectivity" format="ascii">
      0      1
      1      2
      2      3
      3      4
      4      5
      5      6
      6      7
      7      8
      8      9
      9     10
     10     11
     11     12
     12     13
     13     14
     14     15
     15     16
     16     17
     17     18
        </DataArray>
        <DataArray type="Int32" Name="offsets" format="ascii">
      2
      4
      6
      8
     10
     12
     14
     16
     18
     20
     22
     24
     26
     28
     30
     32
     34
     36
        </DataArray>
      </Lines>
    </Piece>
  </PolyData>
</VTKFile>
