<?xml version="1.0"?>
<VTKFile type="PolyData" version="0.1" byte_order="LittleEndian">
  <PolyData>
    <Piece NumberOfPoints="     19" NumberOfVerts="  0" NumberOfLines="     18"
           NumberOfStrips="  0" NumberOfPolys="      0">
      <Points>
        <DataArray type="Float32" NumberOfComponents="3" format="ascii">
                       2.81588                      -0.93037                      88.95614
                       2.62567                      -1.76623                      87.89169
                       2.21716                      -3.36191                      85.70800
                       1.79848                      -4.91976                      83.49652
                       1.27453                      -6.84169                      80.71276
                       0.72238                      -9.25568                      77.44422
                       0.22281                     -11.76522                      74.24167
                      -0.25499                     -14.26853                      71.03090
                      -0.70313                     -16.76691                      67.81190
                      -1.11633                     -19.25882                      64.58312
                      -1.49416                     -21.74231                      61.34343
                      -1.82545                     -24.21799                      58.09257
                      -2.10554                     -26.68633                      54.83122
                      -2.33273                     -29.14800                      51.56060
                      -2.50782                     -31.60379                      48.28223
                      -2.62123                     -33.64691                      45.54601
                      -2.69602                     -35.28619                      43.35993
                      -2.76500                     -36.96945                      41.20589
                      -2.80334                     -37.77750                      40.10441
        </DataArray>
      </Points>
      <PointData>
        <DataArray type="Float32" Name="Force" NumberOfComponents="3" format="ascii">
                       0.32000                      -3.39195                       2.62213
                      60.95765                     -25.66616                       9.41968
                      88.60667                     -58.13854                      30.27863
                      84.78289                     -73.01825                      42.87541
                     696.23083                     215.60258                    -288.85953
                     888.07442                     228.99925                    -326.97489
                    1011.04639                     213.31971                    -327.64194
                    1261.08965                     222.78963                    -363.65073
                    1298.73079                     185.04576                    -326.09820
                    1393.68020                     165.07507                    -306.49270
                    1588.69196                     148.82314                    -295.57589
                    1591.83494                     116.50268                    -245.02962
                    1604.94884                      96.03899                    -202.93976
                    1408.30643                      61.81390                    -136.79072
                    1074.21644                      25.06175                     -71.04293
                    1363.33076                      40.27039                     -84.20977
                    1625.23113                      56.63260                    -100.72466
                    1316.90977                      45.89741                     -80.40411
                    1301.03423                      42.71100                     -78.39974
        </DataArray>
        <DataArray type="Float32" Name="Moment" NumberOfComponents="3" format="ascii">
                       0.00000                       0.00000                       0.00000
                       0.00000                       0.00000                       0.00000
                       0.00000                       0.00000                       0.00000
                       0.00000                       0.00000                       0.00000
                      28.30273                     130.97979                     165.97968
                      57.56236                     275.38438                     349.20871
                      71.10807                     355.02147                     450.57308
                      93.55183                     493.20335                     626.58428
                     118.47016                     669.68719                     851.84039
                     120.15921                     743.12071                     946.62686
                     113.94088                     792.73381                    1011.56455
                     102.57169                     829.79567                    1060.89472
                      67.15427                     657.38590                     842.19005
                      50.72275                     627.77481                     805.89081
                      36.60262                     593.01957                     762.65509
                      27.40512                     548.24747                     705.86094
                      22.73583                     505.41293                     651.02060
                      11.34048                     258.90705                     333.53464
                      12.10508                     270.24468                     348.10754
        </DataArray>
        <DataArray type="Float32" Name="TranslationalVelocity" NumberOfComponents="3" format="ascii">
                       0.11688                       1.06722                      -0.81028
                       0.01373                       2.07772                      -1.58534
                      -0.18208                       4.15245                      -3.06485
                      -0.36543                       6.25312                      -4.51021
                      -0.57447                       8.89564                      -6.29602
                      -0.80706                      11.98970                      -8.54332
                      -1.00859                      15.01526                     -10.88443
                      -1.15522                      18.04548                     -13.22677
                      -1.22655                      21.08172                     -15.57481
                      -1.19359                      24.12790                     -17.93114
                      -1.03726                      27.18742                     -20.29563
                      -0.70765                      30.26359                     -22.67269
                      -0.16788                      33.35890                     -25.06256
                       0.60891                      36.47509                     -27.46288
                       1.62892                      39.61288                     -29.86897
                       2.64293                      42.24210                     -31.87547
                       3.54134                      44.34826                     -33.48666
                       4.47001                      46.42556                     -35.14080
                       4.94055                      47.48750                     -35.93677
        </DataArray>
        <DataArray type="Float32" Name="RotationalVelocity" NumberOfComponents="3" format="ascii">
                       0.92919                       0.00879                      -0.11367
                       0.92911                       0.00809                      -0.11310
                       0.92905                       0.00598                      -0.11143
                       0.92910                       0.00307                      -0.10914
                       0.92930                      -0.00171                      -0.10540
                       0.92967                      -0.00881                      -0.09985
                       0.93031                      -0.01782                      -0.09285
                       0.93161                      -0.02986                      -0.08357
                       0.93390                      -0.04638                      -0.07093
                       0.93735                      -0.06876                      -0.05387
                       0.94201                      -0.09876                      -0.03100
                       0.94746                      -0.13572                      -0.00278
                       0.95326                      -0.17841                       0.02990
                       0.95890                      -0.22405                       0.06494
                       0.96382                      -0.26794                       0.09873
                       0.96683                      -0.29777                       0.12176
                       0.96829                      -0.31325                       0.13373
                       0.96901                      -0.32114                       0.13983
                       0.96908                      -0.32183                       0.14036
        </DataArray>
        <DataArray type="Float32" Name="TranslationalAcceleration" NumberOfComponents="3" format="ascii">
                       0.80469                       0.83176                       1.43545
                       0.83749                       1.46347                       2.46717
                       0.90343                       2.64530                       4.58142
                       0.95814                       3.75914                       6.73833
                       0.99711                       5.06867                       9.48721
                       0.98807                       6.65078                      12.79221
                       0.90031                       8.21767                      16.13906
                       0.69795                       9.66588                      19.59482
                       0.32222                      10.99626                      23.17388
                      -0.30807                      12.20968                      26.89510
                      -1.24778                      13.31837                      30.76293
                      -2.62941                      14.31793                      34.81270
                      -4.55067                      15.21799                      39.06433
                      -7.08060                      16.03217                      43.53276
                     -10.23285                      16.77703                      48.21919
                     -13.27540                      17.36106                      52.27204
                     -15.92900                      17.82423                      55.59157
                     -18.64473                      18.34364                      58.93487
                     -20.02389                      18.56233                      60.61820
        </DataArray>
        <DataArray type="Float32" Name="OrientationX" NumberOfComponents="3" format="ascii">
                       0.94387                       0.15552                      -0.29142
                       0.94394                       0.15583                      -0.29103
                       0.94413                       0.15668                      -0.28994
                       0.94439                       0.15785                      -0.28846
                       0.94482                       0.15978                      -0.28600
                       0.95451                       0.13787                      -0.26440
                       0.96117                       0.12338                      -0.24685
                       0.96676                       0.11177                      -0.22997
                       0.97229                       0.09998                      -0.21133
                       0.97757                       0.08850                      -0.19109
                       0.98225                       0.07890                      -0.17016
                       0.98646                       0.07015                      -0.14823
                       0.98991                       0.06334                      -0.12675
                       0.99234                       0.06003                      -0.10793
                       0.99433                       0.05600                      -0.09038
                       0.99566                       0.05104                      -0.07779
                       0.99647                       0.04596                      -0.07026
                       0.99684                       0.04269                      -0.06697
                       0.99682                       0.04232                      -0.06745
        </DataArray>
        <DataArray type="Float32" Name="OrientationY" NumberOfComponents="3" format="ascii">
                       0.29975                      -0.77395                       0.55781
                       0.29971                      -0.77409                       0.55763
                       0.29964                      -0.77444                       0.55719
                       0.29954                      -0.77487                       0.55665
                       0.29940                      -0.77551                       0.55583
                       0.26891                      -0.78113                       0.56350
                       0.24669                      -0.78505                       0.56819
                       0.22715                      -0.78833                       0.57178
                       0.20642                      -0.79147                       0.57530
                       0.18502                      -0.79437                       0.57858
                       0.16471                      -0.79685                       0.58129
                       0.14452                      -0.79906                       0.58362
                       0.12619                      -0.80091                       0.58533
                       0.11230                      -0.80231                       0.58625
                       0.09861                      -0.80354                       0.58703
                       0.08715                      -0.80441                       0.58765
                       0.07860                      -0.80495                       0.58811
                       0.07401                      -0.80521                       0.58836
                       0.07400                      -0.80521                       0.58836
        </DataArray>
        <DataArray type="Float32" Name="OrientationZ" NumberOfComponents="3" format="ascii">
                      -0.13879                      -0.61385                      -0.77713
                      -0.13839                      -0.61359                      -0.77740
                      -0.13724                      -0.61294                      -0.77812
                      -0.13566                      -0.61210                      -0.77906
                      -0.13298                      -0.61079                      -0.78055
                      -0.12884                      -0.60896                      -0.78266
                      -0.12369                      -0.60702                      -0.78500
                      -0.11738                      -0.60501                      -0.78751
                      -0.10974                      -0.60298                      -0.79017
                      -0.10059                      -0.60096                      -0.79293
                      -0.08973                      -0.59900                      -0.79571
                      -0.07751                      -0.59714                      -0.79838
                      -0.06444                      -0.59542                      -0.80083
                      -0.05141                      -0.59388                      -0.80291
                      -0.03975                      -0.59262                      -0.80450
                      -0.03258                      -0.59188                      -0.80537
                      -0.02953                      -0.59156                      -0.80572
                      -0.02881                      -0.59145                      -0.80582
                      -0.02942                      -0.59148                      -0.80578
        </DataArray>
      </PointData>
      <Lines>
        <DataArray type="Int32" Name="connectivity" format="ascii">
      0      1
      1      2
      2      3
      3      4
      4      5
      5      6
      6      7
      7      8
      8      9
      9     10
     10     11
     11     12
     12     13
     13     14
     14     15
     15     16
     16     17
     17     18
        </DataArray>
        <DataArray type="Int32" Name="offsets" format="ascii">
      2
      4
      6
      8
     10
     12
     14
     16
     18
     20
     22
     24
     26
     28
     30
     32
     34
     36
        </DataArray>
      </Lines>
    </Piece>
  </PolyData>
</VTKFile>
