<?xml version="1.0"?>
<VTKFile type="PolyData" version="0.1" byte_order="LittleEndian">
  <PolyData>
    <Piece NumberOfPoints="     17" NumberOfVerts="  0" NumberOfLines="      0"
           NumberOfStrips="  0" NumberOfPolys="      0">
      <Points>
        <DataArray type="Float32" NumberOfComponents="3" format="ascii">
                       3.25397                       2.83265                      91.80986
                       3.33106                       5.96360                      93.62055
                       3.41534                       9.09513                      95.42990
                       3.50955                      12.22732                      97.23762
                       3.61594                      15.36020                      99.04345
                       3.73682                      18.49382                     100.84711
                       3.87501                      21.62808                     102.64837
                       4.03399                      24.76285                     104.44703
                       4.21788                      27.89792                     106.24279
                       4.43128                      31.03303                     108.03518
                       4.67881                      34.16790                     109.82359
                       4.96459                      37.30221                     111.60724
                       5.29137                      40.43564                     113.38539
                       5.65964                      43.56789                     115.15753
                       6.06643                      46.69881                     116.92365
                       6.50401                      49.82852                     118.68462
                       6.95831                      52.95754                     120.44262
        </DataArray>
      </Points>
      <PointData>
        <DataArray type="Float32" Name="Force" NumberOfComponents="3" format="ascii">
                     163.26435                      33.13398                     -64.01641
                     514.85334                     114.49504                    -221.80987
                    1999.88048                    -273.58580                     369.75879
                    3461.89194                    -532.47935                     722.96665
                    2094.34352                    -290.15636                     369.71371
                    4434.83061                    -526.10844                     597.22208
                    5263.01672                    -533.34905                     494.80936
                    5774.64139                    -511.19258                     337.27855
                    6173.46451                    -505.89073                     192.96333
                    7817.85837                    -617.18838                      60.52209
                    9062.25897                    -724.37040                    -109.48447
                   10504.06870                    -899.61486                    -271.98901
                    6116.62193                    -554.56663                    -218.13941
                   12427.10941                   -1189.42642                    -564.74048
                   12295.07617                   -1242.77223                    -693.00823
                   17894.94842                   -1844.79232                   -1234.76913
                    7327.41997                    -703.07197                    -643.66370
        </DataArray>
        <DataArray type="Float32" Name="Moment" NumberOfComponents="3" format="ascii">
                     -19.70339                      12.75295                     -12.40943
                      74.84711                     224.12446                    -269.97264
                     601.18043                    1301.96520                   -1637.14663
                     705.73112                    1958.00364                   -2084.29597
                      31.12186                     364.15806                     -36.20157
                    -473.79554                    -833.06454                    2013.30229
                    -306.79086                    -901.10399                    1151.47797
                    -162.46578                    -873.76535                    -361.67991
                    -106.65114                    -634.23067                   -1067.42406
                     -85.56291                    -161.94187                   -1761.81305
                     -17.79752                    1058.24004                   -3630.26344
                      76.69570                    3082.99064                   -6043.38028
                     -15.00080                    -194.21686                     316.94951
                     -90.61566                   -3983.66290                    7204.83978
                     -18.96055                   -3679.55224                    6927.20526
                     -57.52813                    -184.57952                    1077.49409
                    -127.73743                      27.22319                    -105.84258
        </DataArray>
      </PointData>
    </Piece>
  </PolyData>
</VTKFile>
