<?xml version="1.0"?>
<VTKFile type="PolyData" version="0.1" byte_order="LittleEndian">
  <PolyData>
    <Piece NumberOfPoints="     19" NumberOfVerts="  0" NumberOfLines="     18"
           NumberOfStrips="  0" NumberOfPolys="      0">
      <Points>
        <DataArray type="Float32" NumberOfComponents="3" format="ascii">
                       3.23866                      -0.23356                      93.40661
                       3.51497                      -0.48885                      97.00464
                       3.79179                      -0.74420                     100.60263
                       4.06933                      -0.99965                     104.20056
                       4.34774                      -1.25520                     107.79842
                       4.62719                      -1.51086                     111.39618
                       4.90781                      -1.76663                     114.99385
                       5.18974                      -2.02252                     118.59140
                       5.47312                      -2.27852                     122.18884
                       5.75807                      -2.53463                     125.78614
                       6.04469                      -2.79083                     129.38330
                       6.33303                      -3.04710                     132.98032
                       6.62308                      -3.30342                     136.57720
                       6.91473                      -3.55976                     140.17395
                       7.20775                      -3.81612                     143.77059
                       7.50173                      -4.07248                     147.36714
                       7.79603                      -4.32882                     150.96368
                       7.94317                      -4.45699                     152.76194
                       3.10061                      -0.10592                      91.60758
        </DataArray>
      </Points>
      <PointData>
        <DataArray type="Float32" Name="TranslationalVelocity" NumberOfComponents="3" format="ascii">
                      -0.01412                      -3.10628                      -0.22697
                      -0.04240                      -6.49760                      -0.46542
                      -0.05833                      -9.89167                      -0.70508
                      -0.05704                     -13.28955                      -0.94642
                      -0.03442                     -16.69182                      -1.18983
                       0.01335                     -20.09872                      -1.43564
                       0.09007                     -23.51036                      -1.68417
                       0.19958                     -26.92682                      -1.93577
                       0.34580                     -30.34803                      -2.19075
                       0.53247                     -33.77374                      -2.44943
                       0.76285                     -37.20356                      -2.71207
                       1.03912                     -40.63689                      -2.97883
                       1.36173                     -44.07306                      -3.24972
                       1.72853                     -47.51133                      -3.52452
                       2.13371                     -50.95097                      -3.80270
                       2.56667                     -54.39131                      -4.08331
                       3.01061                     -57.83186                      -4.36487
                       3.23281                     -59.55214                      -4.50566
                       0.00244                      -1.41116                      -0.10798
        </DataArray>
        <DataArray type="Float32" Name="RotationalVelocity" NumberOfComponents="3" format="ascii">
                       0.93359                      -0.00120                      -0.11280
                       0.93419                       0.00148                      -0.11266
                       0.93514                       0.00564                      -0.11244
                       0.93633                       0.01101                      -0.11215
                       0.93762                       0.01746                      -0.11179
                       0.93894                       0.02495                      -0.11136
                       0.94031                       0.03349                      -0.11086
                       0.94168                       0.04312                      -0.11028
                       0.94302                       0.05382                      -0.10962
                       0.94427                       0.06552                      -0.10889
                       0.94539                       0.07802                      -0.10809
                       0.94634                       0.09093                      -0.10724
                       0.94708                       0.10368                      -0.10640
                       0.94761                       0.11539                      -0.10561
                       0.94794                       0.12492                      -0.10495
                       0.94807                       0.13077                      -0.10455
                       0.94808                       0.13101                      -0.10453
                       0.94806                       0.12947                      -0.10464
                       0.93338                      -0.00212                      -0.11285
        </DataArray>
        <DataArray type="Float32" Name="TranslationalAcceleration" NumberOfComponents="3" format="ascii">
                       0.11857                       0.40722                      -2.73128
                      -0.09106                       1.02786                      -5.88365
                      -0.19132                       1.56340                      -9.05571
                      -0.13727                       1.98919                     -12.25482
                       0.11107                       2.29065                     -15.48662
                       0.59567                       2.46059                     -18.75583
                       1.36365                       2.49539                     -22.06740
                       2.46910                       2.39381                     -25.42679
                       3.97306                       2.15746                     -28.83987
                       5.94039                       1.79087                     -32.31258
                       8.43403                       1.30166                     -35.85051
                      11.50669                       0.70078                     -39.45796
                      15.18986                       0.00216                     -43.13695
                      19.48017                      -0.77799                     -46.88581
                      24.32341                      -1.62124                     -50.69728
                      29.59575                      -2.50690                     -54.55633
                      35.08238                      -3.41313                     -58.43805
                      37.84601                      -3.86862                     -60.38079
                       0.24450                       0.07936                      -1.15896
        </DataArray>
        <DataArray type="Float32" Name="RotationalAcceleration" NumberOfComponents="3" format="ascii">
                      -0.11741                       0.03429                       0.02718
                      -0.09802                       0.05788                       0.02737
                      -0.07036                       0.09538                       0.02791
                      -0.03734                       0.14404                       0.02883
                      -0.00161                       0.20379                       0.03032
                       0.03540                       0.27574                       0.03259
                       0.07317                       0.36160                       0.03578
                       0.11094                       0.46353                       0.04012
                       0.14791                       0.58320                       0.04577
                       0.18330                       0.72103                       0.05284
                       0.21621                       0.87552                       0.06127
                       0.24568                       1.04250                       0.07086
                       0.27102                       1.21435                       0.08111
                       0.29163                       1.37938                       0.09123
                       0.30677                       1.52108                       0.10012
                       0.31582                       1.61736                       0.10626
                       0.31857                       1.63986                       0.10765
                       0.31836                       1.62870                       0.10687
                      -0.12464                       0.02651                       0.02718
        </DataArray>
        <DataArray type="Float32" Name="OrientationX" NumberOfComponents="3" format="ascii">
                       0.96832                      -0.23262                      -0.09081
                       0.96831                      -0.23261                      -0.09092
                       0.96830                      -0.23260                      -0.09109
                       0.97136                      -0.21965                      -0.09063
                       0.97784                      -0.18938                      -0.08925
                       0.98110                      -0.17201                      -0.08858
                       0.98409                      -0.15438                      -0.08791
                       0.98691                      -0.13568                      -0.08719
                       0.98940                      -0.11668                      -0.08645
                       0.99144                      -0.09845                      -0.08577
                       0.99312                      -0.08047                      -0.08510
                       0.99441                      -0.06341                      -0.08447
                       0.99523                      -0.04965                      -0.08403
                       0.99579                      -0.03746                      -0.08363
                       0.99622                      -0.02524                      -0.08313
                       0.99651                      -0.01313                      -0.08249
                       0.99663                      -0.00518                      -0.08192
                       0.99666                      -0.00274                      -0.08168
                       0.96832                      -0.23262                      -0.09077
        </DataArray>
        <DataArray type="Float32" Name="OrientationY" NumberOfComponents="3" format="ascii">
                       0.23777                       0.97001                       0.05057
                       0.23776                       0.97001                       0.05056
                       0.23776                       0.97001                       0.05054
                       0.22485                       0.97302                       0.05173
                       0.19464                       0.97936                       0.05449
                       0.17733                       0.98256                       0.05604
                       0.15974                       0.98548                       0.05759
                       0.14109                       0.98822                       0.05922
                       0.12215                       0.99064                       0.06087
                       0.10397                       0.99262                       0.06242
                       0.08604                       0.99424                       0.06395
                       0.06903                       0.99547                       0.06538
                       0.05532                       0.99625                       0.06653
                       0.04317                       0.99678                       0.06754
                       0.03099                       0.99717                       0.06855
                       0.01890                       0.99740                       0.06954
                       0.01096                       0.99747                       0.07020
                       0.00851                       0.99748                       0.07040
                       0.23777                       0.97000                       0.05058
        </DataArray>
        <DataArray type="Float32" Name="OrientationZ" NumberOfComponents="3" format="ascii">
                       0.07632                      -0.07056                       0.99458
                       0.07643                      -0.07057                       0.99457
                       0.07661                      -0.07060                       0.99456
                       0.07683                      -0.07062                       0.99454
                       0.07709                      -0.07065                       0.99452
                       0.07740                      -0.07069                       0.99449
                       0.07774                      -0.07072                       0.99446
                       0.07812                      -0.07075                       0.99443
                       0.07854                      -0.07078                       0.99439
                       0.07899                      -0.07081                       0.99436
                       0.07946                      -0.07083                       0.99432
                       0.07994                      -0.07085                       0.99428
                       0.08041                      -0.07086                       0.99424
                       0.08083                      -0.07086                       0.99421
                       0.08116                      -0.07086                       0.99418
                       0.08136                      -0.07086                       0.99416
                       0.08135                      -0.07086                       0.99416
                       0.08128                      -0.07086                       0.99417
                       0.07628                      -0.07056                       0.99459
        </DataArray>
      </PointData>
      <Lines>
        <DataArray type="Int32" Name="connectivity" format="ascii">
      0      1
      1      2
      2      3
      3      4
      4      5
      5      6
      6      7
      7      8
      8      9
      9     10
     10     11
     11     12
     12     13
     13     14
     14     15
     15     16
     16     17
     18      0
        </DataArray>
        <DataArray type="Int32" Name="offsets" format="ascii">
      2
      4
      6
      8
     10
     12
     14
     16
     18
     20
     22
     24
     26
     28
     30
     32
     34
     36
        </DataArray>
      </Lines>
    </Piece>
  </PolyData>
</VTKFile>
