<?xml version="1.0"?>
<VTKFile type="PolyData" version="0.1" byte_order="LittleEndian">
  <PolyData>
    <Piece NumberOfPoints="     19" NumberOfVerts="  0" NumberOfLines="     18"
           NumberOfStrips="  0" NumberOfPolys="      0">
      <Points>
        <DataArray type="Float32" NumberOfComponents="3" format="ascii">
                       2.84897                      -0.71728                      88.82378
                       2.64135                      -1.35301                      87.63189
                       2.19996                      -2.53984                      85.20735
                       1.75040                      -3.68525                      82.76211
                       1.19076                      -5.09013                      79.69087
                       0.59753                      -6.89822                      76.05791
                       0.06034                      -8.81541                      72.47408
                      -0.44813                     -10.72809                      68.88362
                      -0.91785                     -12.63737                      65.28604
                      -1.34058                     -14.54115                      61.67970
                      -1.71401                     -16.43669                      58.06357
                      -2.02176                     -18.32436                      54.43709
                      -2.25542                     -20.20428                      50.80101
                      -2.41065                     -22.07681                      47.15685
                      -2.48779                     -23.94253                      43.50658
                      -2.50215                     -25.49322                      40.46177
                      -2.48864                     -26.73890                      38.02848
                      -2.46664                     -28.03328                      35.61953
                      -2.45849                     -28.64322                      34.39650
        </DataArray>
      </Points>
      <PointData>
        <DataArray type="Float32" Name="Force" NumberOfComponents="3" format="ascii">
                       0.22068                      -3.39202                       1.78285
                      56.87097                     -26.11339                       4.14876
                      81.70919                     -61.06181                      18.74565
                      78.78059                     -78.40643                      28.74620
                     676.34683                     238.91415                    -239.68411
                     873.21403                     257.96901                    -276.64637
                    1001.78078                     243.01406                    -280.94893
                    1261.67484                     257.60416                    -315.49010
                    1328.56805                     221.65534                    -289.72700
                    1472.68587                     208.97546                    -280.08840
                    1748.43550                     206.50655                    -279.63317
                    1881.61811                     188.53886                    -245.36272
                    2061.48369                     190.34049                    -215.58747
                    2070.82769                     162.35879                    -156.10651
                    2044.54432                     140.97742                    -103.45004
                    2115.41789                     133.71211                     -74.17268
                    2169.90071                     131.50640                     -60.73815
                    1787.89980                     125.90055                     -55.80901
                    1149.40724                      48.29069                     -19.42867
        </DataArray>
        <DataArray type="Float32" Name="Moment" NumberOfComponents="3" format="ascii">
                       0.00000                       0.00000                       0.00000
                       0.00000                       0.00000                       0.00000
                       0.00000                       0.00000                       0.00000
                       0.00000                       0.00000                       0.00000
                      28.97690                      94.23093                     175.69598
                      60.58814                     204.86660                     382.27737
                      75.32672                     267.84229                     500.26992
                      98.53327                     374.04667                     699.46071
                     122.87116                     508.68110                     952.60218
                     121.95050                     567.49821                    1064.62095
                     111.55775                     611.06096                    1148.78940
                      94.36998                     648.37836                    1221.91661
                      58.00267                     550.95859                    1041.06834
                      35.06579                     544.32965                    1031.29532
                      14.16318                     521.77186                     990.96445
                       1.71957                     493.16723                     938.08187
                      -3.19795                     436.66067                     831.18178
                      -2.39225                     217.74189                     414.56951
                      -1.79401                     182.44542                     347.34077
        </DataArray>
        <DataArray type="Float32" Name="TranslationalVelocity" NumberOfComponents="3" format="ascii">
                       0.22137                       1.20996                      -0.60726
                       0.13997                       2.33330                      -1.19224
                      -0.01237                       4.61803                      -2.28314
                      -0.15630                       6.91469                      -3.33329
                      -0.32602                       9.78423                      -4.61725
                      -0.53070                      13.14814                      -6.26248
                      -0.73161                      16.43443                      -7.99552
                      -0.91563                      19.69622                      -9.71197
                      -1.08205                      22.93350                     -11.41284
                      -1.22987                      26.14824                     -13.09657
                      -1.35999                      29.34519                     -14.76236
                      -1.46995                      32.52269                     -16.40992
                      -1.55946                      35.68160                     -18.03982
                      -1.62902                      38.82283                     -19.65296
                      -1.68050                      41.94783                     -21.25069
                      -1.71259                      44.54179                     -22.57260
                      -1.73403                      46.60877                     -23.63143
                      -1.75954                      48.65307                     -24.73054
                      -1.76884                      49.69114                     -25.24842
        </DataArray>
        <DataArray type="Float32" Name="RotationalVelocity" NumberOfComponents="3" format="ascii">
                       0.92377                       0.00807                      -0.11400
                       0.92269                       0.00770                      -0.11362
                       0.92004                       0.00674                      -0.11264
                       0.91680                       0.00550                      -0.11141
                       0.91192                       0.00356                      -0.10952
                       0.90526                       0.00085                      -0.10690
                       0.89819                      -0.00205                      -0.10412
                       0.89108                      -0.00511                      -0.10123
                       0.88417                      -0.00834                      -0.09830
                       0.87764                      -0.01173                      -0.09533
                       0.87163                      -0.01531                      -0.09237
                       0.86615                      -0.01900                      -0.08943
                       0.86127                      -0.02268                      -0.08660
                       0.85706                      -0.02616                      -0.08400
                       0.85366                      -0.02913                      -0.08182
                       0.85165                      -0.03085                      -0.08054
                       0.85071                      -0.03150                      -0.08003
                       0.85029                      -0.03153                      -0.07994
                       0.85030                      -0.03130                      -0.08007
        </DataArray>
        <DataArray type="Float32" Name="TranslationalAcceleration" NumberOfComponents="3" format="ascii">
                       0.36290                       0.76851                       1.35027
                       0.43437                       1.27859                       2.41715
                       0.57514                       2.21819                       4.58469
                       0.69255                       3.10073                       6.76531
                       0.78604                       4.14214                       9.49647
                       0.80171                       5.43379                      12.71709
                       0.68441                       6.73803                      15.89357
                       0.38255                       7.94813                      19.07897
                      -0.20044                       9.05400                      22.28735
                      -1.20519                      10.04075                      25.53620
                      -2.73497                      10.90524                      28.83400
                      -5.03254                      11.62100                      32.18830
                      -8.28937                      12.17421                      35.58664
                     -12.65199                      12.55482                      39.00076
                     -18.16988                      12.76101                      42.39226
                     -23.56032                      12.81634                      45.18239
                     -28.30432                      12.80683                      47.38706
                     -33.23167                      12.81994                      49.58173
                     -35.71359                      12.79348                      50.68448
        </DataArray>
        <DataArray type="Float32" Name="OrientationX" NumberOfComponents="3" format="ascii">
                       0.94702                       0.18356                      -0.26356
                       0.94711                       0.18384                      -0.26304
                       0.94736                       0.18463                      -0.26156
                       0.94771                       0.18571                      -0.25955
                       0.94826                       0.18749                      -0.25620
                       0.95762                       0.16249                      -0.23781
                       0.96413                       0.14568                      -0.22187
                       0.96966                       0.13206                      -0.20571
                       0.97516                       0.11824                      -0.18729
                       0.98044                       0.10483                      -0.16655
                       0.98515                       0.09362                      -0.14391
                       0.98934                       0.08348                      -0.11934
                       0.99267                       0.07567                      -0.09424
                       0.99489                       0.07190                      -0.07090
                       0.99651                       0.06752                      -0.04919
                       0.99748                       0.06221                      -0.03419
                       0.99805                       0.05682                      -0.02586
                       0.99832                       0.05348                      -0.02229
                       0.99832                       0.05324                      -0.02276
        </DataArray>
        <DataArray type="Float32" Name="OrientationY" NumberOfComponents="3" format="ascii">
                       0.28309                      -0.86468                       0.41496
                       0.28307                      -0.86472                       0.41488
                       0.28304                      -0.86482                       0.41470
                       0.28300                      -0.86494                       0.41448
                       0.28295                      -0.86511                       0.41415
                       0.25247                      -0.87094                       0.42158
                       0.23029                      -0.87474                       0.42638
                       0.21081                      -0.87778                       0.43019
                       0.19012                      -0.88068                       0.43389
                       0.16874                      -0.88335                       0.43729
                       0.14844                      -0.88559                       0.44010
                       0.12827                      -0.88758                       0.44243
                       0.10995                      -0.88921                       0.44408
                       0.09606                      -0.89039                       0.44495
                       0.08239                      -0.89147                       0.44553
                       0.07094                      -0.89229                       0.44585
                       0.06239                      -0.89285                       0.44602
                       0.05780                      -0.89312                       0.44609
                       0.05780                      -0.89312                       0.44609
        </DataArray>
        <DataArray type="Float32" Name="OrientationZ" NumberOfComponents="3" format="ascii">
                      -0.15172                      -0.46758                      -0.87083
                      -0.15118                      -0.46740                      -0.87102
                      -0.14964                      -0.46691                      -0.87155
                      -0.14752                      -0.46626                      -0.87226
                      -0.14399                      -0.46522                      -0.87341
                      -0.13862                      -0.46375                      -0.87505
                      -0.13196                      -0.46218                      -0.87691
                      -0.12376                      -0.46050                      -0.87899
                      -0.11364                      -0.45872                      -0.88129
                      -0.10128                      -0.45684                      -0.88376
                      -0.08625                      -0.45493                      -0.88634
                      -0.06899                      -0.45302                      -0.88882
                      -0.05020                      -0.45119                      -0.89102
                      -0.03113                      -0.44948                      -0.89275
                      -0.01377                      -0.44802                      -0.89392
                      -0.00277                      -0.44715                      -0.89445
                       0.00225                      -0.44676                      -0.89465
                       0.00395                      -0.44663                      -0.89471
                       0.00342                      -0.44666                      -0.89470
        </DataArray>
      </PointData>
      <Lines>
        <DataArray type="Int32" Name="connectivity" format="ascii">
      0      1
      1      2
      2      3
      3      4
      4      5
      5      6
      6      7
      7      8
      8      9
      9     10
     10     11
     11     12
     12     13
     13     14
     14     15
     15     16
     16     17
     17     18
        </DataArray>
        <DataArray type="Int32" Name="offsets" format="ascii">
      2
      4
      6
      8
     10
     12
     14
     16
     18
     20
     22
     24
     26
     28
     30
     32
     34
     36
        </DataArray>
      </Lines>
    </Piece>
  </PolyData>
</VTKFile>
