<?xml version="1.0"?>
<VTKFile type="PolyData" version="0.1" byte_order="LittleEndian">
  <PolyData>
    <Piece NumberOfPoints="     19" NumberOfVerts="  0" NumberOfLines="     18"
           NumberOfStrips="  0" NumberOfPolys="      0">
      <Points>
        <DataArray type="Float32" NumberOfComponents="3" format="ascii">
                       3.13204                      -0.60639                      91.49580
                       3.22446                      -1.15259                      92.74520
                       3.38332                      -2.33170                      95.20818
                       3.53270                      -3.55276                      97.65362
                       3.71858                      -5.10555                     100.69898
                       4.01319                      -6.84184                     104.40297
                       4.35457                      -8.46343                     108.15313
                       4.71405                     -10.08699                     111.90075
                       5.09857                     -11.71112                     115.64568
                       5.51248                     -13.33763                     119.38646
                       5.95606                     -14.96930                     123.12158
                       6.43901                     -16.60487                     126.85013
                       6.96537                     -18.24362                     130.57141
                       7.53672                     -19.88470                     134.28504
                       8.15286                     -21.52723                     137.99088
                       8.69447                     -22.89647                     141.07413
                       9.14165                     -23.98469                     143.54145
                       9.59348                     -25.02270                     146.03071
                       9.81661                     -25.57976                     147.25852
        </DataArray>
      </Points>
      <PointData>
        <DataArray type="Float32" Name="Force" NumberOfComponents="3" format="ascii">
                       0.16734                       3.18052                       1.36801
                      70.30336                      24.06720                       5.19662
                      88.90063                      56.33947                      17.71623
                      80.12812                      73.58900                      25.74916
                     681.63556                    -268.97317                    -171.38753
                     883.58802                    -305.08959                    -206.84273
                     988.62016                    -276.11911                    -208.00792
                    1218.17994                    -279.43334                    -237.21623
                    1230.96951                    -220.31055                    -221.66186
                    1311.01434                    -183.53976                    -225.24664
                    1484.59436                    -145.59897                    -243.35033
                    1473.57357                     -88.43414                    -234.35802
                    1532.06637                     -49.93836                    -244.66389
                    1350.96840                      -1.75571                    -214.39847
                    1124.85226                      33.89458                    -175.91979
                     630.20632                      49.11281                     -89.84923
                     902.94584                      59.97318                    -136.16003
                     923.35529                      46.97766                    -146.38956
                    1307.97843                      42.96185                    -217.10531
        </DataArray>
        <DataArray type="Float32" Name="Moment" NumberOfComponents="3" format="ascii">
                       0.00000                       0.00000                       0.00000
                       0.00000                       0.00000                       0.00000
                       0.00000                       0.00000                       0.00000
                       0.00000                       0.00000                       0.00000
                     -12.92196                      70.11402                    -161.42866
                     -30.39960                     157.16417                    -361.67515
                     -43.22392                     211.25595                    -485.86537
                     -65.53219                     300.40098                    -690.39138
                     -97.21743                     414.55316                    -951.90995
                    -118.40400                     465.96012                   -1068.83529
                    -139.57702                     503.05795                   -1152.49475
                    -162.10244                     533.52648                   -1220.57621
                    -141.75962                     426.73757                    -974.78921
                    -149.98214                     415.85115                    -948.47338
                    -153.39963                     397.05458                    -904.35486
                    -152.57455                     379.18017                    -862.89927
                    -126.60884                     309.21416                    -703.41028
                     -64.37662                     156.44704                    -355.85174
                     -72.40801                     176.42617                    -401.31915
        </DataArray>
        <DataArray type="Float32" Name="TranslationalVelocity" NumberOfComponents="3" format="ascii">
                       0.19571                      -1.32090                      -0.50383
                       0.14664                      -2.48948                      -1.01106
                       0.03924                      -4.79073                      -2.10583
                      -0.06941                      -7.07562                      -3.24009
                      -0.20046                      -9.92304                      -4.68397
                      -0.32961                     -13.39718                      -6.30229
                      -0.42658                     -16.92347                      -7.81830
                      -0.49724                     -20.45432                      -9.34122
                      -0.52784                     -23.99168                     -10.87226
                      -0.49887                     -27.53613                     -12.41674
                      -0.39633                     -31.08630                     -13.97994
                      -0.18637                     -34.64320                     -15.56751
                       0.15723                     -38.20514                     -17.18474
                       0.65415                     -41.76924                     -18.83614
                       1.31043                     -45.33197                     -20.52418
                       1.96614                     -48.29815                     -21.95630
                       2.55095                     -50.67186                     -23.10889
                       3.16725                     -53.06636                     -24.21892
                       3.47324                     -54.24741                     -24.81019
        </DataArray>
        <DataArray type="Float32" Name="RotationalVelocity" NumberOfComponents="3" format="ascii">
                       0.92679                       0.01005                      -0.11372
                       0.92691                       0.01038                      -0.11359
                       0.92727                       0.01145                      -0.11315
                       0.92778                       0.01296                      -0.11253
                       0.92860                       0.01545                      -0.11151
                       0.92975                       0.01915                      -0.10999
                       0.93111                       0.02409                      -0.10795
                       0.93287                       0.03129                      -0.10496
                       0.93521                       0.04198                      -0.10049
                       0.93818                       0.05739                      -0.09402
                       0.94179                       0.07906                      -0.08488
                       0.94575                       0.10658                      -0.07323
                       0.94974                       0.13908                      -0.05942
                       0.95348                       0.17444                      -0.04435
                       0.95662                       0.20900                      -0.02959
                       0.95848                       0.23293                      -0.01934
                       0.95938                       0.24575                      -0.01384
                       0.95982                       0.25275                      -0.01084
                       0.95988                       0.25375                      -0.01041
        </DataArray>
        <DataArray type="Float32" Name="TranslationalAcceleration" NumberOfComponents="3" format="ascii">
                       0.55393                       0.72715                      -0.97760
                       0.45308                       1.32000                      -2.01181
                       0.24253                       2.57135                      -4.04143
                      -0.00533                       3.83763                      -6.06263
                      -0.39167                       5.40973                      -8.59807
                      -0.98906                       7.13374                     -11.72791
                      -1.76154                       8.68902                     -14.93350
                      -2.74188                      10.17406                     -18.15952
                      -3.97650                      11.59306                     -21.40010
                      -5.52460                      12.95644                     -24.64579
                      -7.41136                      14.28126                     -27.88586
                      -9.74034                      15.57126                     -31.10920
                     -12.57339                      16.83570                     -34.30402
                     -15.94706                      18.08356                     -37.46164
                     -19.85128                      19.32342                     -40.57774
                     -23.44690                      20.35578                     -43.14730
                     -26.49567                      21.17522                     -45.19358
                     -29.58475                      21.94957                     -47.25897
                     -31.14056                      22.37384                     -48.28001
        </DataArray>
        <DataArray type="Float32" Name="OrientationX" NumberOfComponents="3" format="ascii">
                       0.95865                      -0.22810                      -0.17020
                       0.95862                      -0.22795                      -0.17055
                       0.95854                      -0.22751                      -0.17156
                       0.95844                      -0.22691                      -0.17294
                       0.95826                      -0.22591                      -0.17523
                       0.96630                      -0.19594                      -0.16693
                       0.97134                      -0.17345                      -0.16253
                       0.97517                      -0.15313                      -0.16001
                       0.97868                      -0.13127                      -0.15800
                       0.98167                      -0.10827                      -0.15683
                       0.98381                      -0.08569                      -0.15740
                       0.98528                      -0.06276                      -0.15903
                       0.98592                      -0.04123                      -0.16204
                       0.98571                      -0.02378                      -0.16678
                       0.98533                      -0.00699                      -0.17053
                       0.98514                       0.00617                      -0.17167
                       0.98520                       0.01517                      -0.17074
                       0.98531                       0.01970                      -0.16961
                       0.98538                       0.01953                      -0.16923
        </DataArray>
        <DataArray type="Float32" Name="OrientationY" NumberOfComponents="3" format="ascii">
                       0.27636                       0.88892                       0.36530
                       0.27637                       0.88891                       0.36532
                       0.27637                       0.88888                       0.36539
                       0.27638                       0.88884                       0.36548
                       0.27639                       0.88879                       0.36560
                       0.24570                       0.89545                       0.37123
                       0.22343                       0.89961                       0.37520
                       0.20389                       0.90282                       0.37862
                       0.18318                       0.90576                       0.38217
                       0.16181                       0.90829                       0.38577
                       0.14154                       0.91023                       0.38916
                       0.12143                       0.91169                       0.39252
                       0.10319                       0.91260                       0.39562
                       0.08937                       0.91301                       0.39803
                       0.07578                       0.91318                       0.40046
                       0.06442                       0.91315                       0.40249
                       0.05596                       0.91304                       0.40400
                       0.05143                       0.91296                       0.40480
                       0.05143                       0.91296                       0.40480
        </DataArray>
        <DataArray type="Float32" Name="OrientationZ" NumberOfComponents="3" format="ascii">
                       0.06797                      -0.39722                       0.91520
                       0.06833                      -0.39734                       0.91512
                       0.06937                      -0.39766                       0.91491
                       0.07079                      -0.39808                       0.91461
                       0.07315                      -0.39877                       0.91413
                       0.07674                      -0.39973                       0.91342
                       0.08114                      -0.40076                       0.91258
                       0.08648                      -0.40184                       0.91162
                       0.09294                      -0.40296                       0.91049
                       0.10068                      -0.40408                       0.90917
                       0.10992                      -0.40513                       0.90763
                       0.12035                      -0.40605                       0.90589
                       0.13156                      -0.40677                       0.90401
                       0.14280                      -0.40725                       0.90208
                       0.15293                      -0.40750                       0.90031
                       0.15924                      -0.40757                       0.89918
                       0.16202                      -0.40758                       0.89868
                       0.16283                      -0.40758                       0.89853
                       0.16240                      -0.40759                       0.89861
        </DataArray>
      </PointData>
      <Lines>
        <DataArray type="Int32" Name="connectivity" format="ascii">
      0      1
      1      2
      2      3
      3      4
      4      5
      5      6
      6      7
      7      8
      8      9
      9     10
     10     11
     11     12
     12     13
     13     14
     14     15
     15     16
     16     17
     17     18
        </DataArray>
        <DataArray type="Int32" Name="offsets" format="ascii">
      2
      4
      6
      8
     10
     12
     14
     16
     18
     20
     22
     24
     26
     28
     30
     32
     34
     36
        </DataArray>
      </Lines>
    </Piece>
  </PolyData>
</VTKFile>
