<?xml version="1.0"?>
<VTKFile type="PolyData" version="0.1" byte_order="LittleEndian">
  <PolyData>
    <Piece NumberOfPoints="     17" NumberOfVerts="  0" NumberOfLines="      0"
           NumberOfStrips="  0" NumberOfPolys="      0">
      <Points>
        <DataArray type="Float32" NumberOfComponents="3" format="ascii">
                       2.36159                       2.35038                      87.86275
                       1.91407                       4.94183                      85.37851
                       1.47420                       7.53268                      82.89227
                       1.04482                      10.12289                      80.40354
                       0.62830                      12.71244                      77.91194
                       0.22718                      15.30134                      75.41715
                      -0.15530                      17.88974                      72.91892
                      -0.51492                      20.47789                      70.41704
                      -0.84651                      23.06602                      67.91130
                      -1.14418                      25.65423                      65.40140
                      -1.40185                      28.24241                      62.88707
                      -1.61395                      30.83017                      60.36807
                      -1.77641                      33.41689                      57.84432
                      -1.88795                      36.00189                      55.31600
                      -1.95149                      38.58461                      52.78365
                      -1.97599                      41.16498                      50.24813
                      -1.97833                      43.74381                      47.71086
        </DataArray>
      </Points>
      <PointData>
        <DataArray type="Float32" Name="Force" NumberOfComponents="3" format="ascii">
                     159.21546                     -27.36937                     -57.40484
                     568.34330                     -94.96322                    -199.71892
                    2356.19615                     682.52725                     304.46021
                    3871.83433                    1107.46290                     502.10661
                    2346.55178                     601.31964                     242.62194
                    5100.34955                    1157.15854                     400.75268
                    6181.26110                    1207.70221                     335.50856
                    6896.57090                    1142.25051                     235.38146
                    7399.58895                    1035.33026                     150.29693
                    9310.12443                    1075.86295                      95.90552
                   10686.03657                     985.93498                      46.59738
                   12180.88867                     876.28401                      43.87518
                    6987.59880                     394.57327                      24.80131
                   13953.66774                     565.11822                      43.75311
                   13495.61675                     298.54890                      26.10712
                   19258.57146                      64.63040                     -57.47403
                    7988.83796                    -118.09505                    -125.42077
        </DataArray>
        <DataArray type="Float32" Name="Moment" NumberOfComponents="3" format="ascii">
                     -19.17012                     -12.60487                     -16.11728
                     109.47114                    -259.96863                    -358.06093
                     793.73480                   -1485.37724                   -1946.19803
                     729.33160                   -1598.66172                   -2700.51505
                       1.58682                      79.40432                    -435.35454
                    -673.19676                    2005.42322                    1453.63304
                    -414.09414                    1217.67959                    1110.65056
                     -92.34364                    -288.32891                     423.60626
                      25.78174                    -985.00708                     -51.49136
                      72.98220                   -1583.28708                    -805.91784
                     225.62719                   -3336.74871                   -2703.46798
                     344.23065                   -5463.46773                   -5477.73671
                     -38.00847                     327.16876                     304.80136
                    -371.05112                    6534.75905                    6674.95620
                    -222.00691                    6053.99380                    6205.18465
                    -182.21625                     772.12899                     957.45286
                    -125.21559                    -345.83319                     -43.54742
        </DataArray>
      </PointData>
    </Piece>
  </PolyData>
</VTKFile>
