<?xml version="1.0"?>
<VTKFile type="PolyData" version="0.1" byte_order="LittleEndian">
  <PolyData>
    <Piece NumberOfPoints="     17" NumberOfVerts="  0" NumberOfLines="      0"
           NumberOfStrips="  0" NumberOfPolys="      0">
      <Points>
        <DataArray type="Float32" NumberOfComponents="3" format="ascii">
                       2.61457                      -0.78360                      86.97121
                       2.02216                      -1.61818                      83.50135
                       1.43867                      -2.45239                      80.02990
                       0.86747                      -3.28591                      76.55624
                       0.31140                      -4.11859                      73.07993
                      -0.22645                      -4.95030                      69.60053
                      -0.74216                      -5.78079                      66.11749
                      -1.23071                      -6.60963                      62.63016
                      -1.68597                      -7.43642                      59.13786
                      -2.10097                      -8.26077                      55.63998
                      -2.46849                      -9.08247                      52.13620
                      -2.78188                      -9.90148                      48.62654
                      -3.03632                     -10.71795                      45.11152
                      -3.23022                     -11.53215                      41.59208
                      -3.36707                     -12.34451                      38.06945
                      -3.45753                     -13.15564                      34.54494
                      -3.52180                     -13.96621                      31.01964
        </DataArray>
      </Points>
      <PointData>
        <DataArray type="Float32" Name="Force" NumberOfComponents="3" format="ascii">
                     132.99727                     -76.44663                      -4.41632
                     485.35678                    -256.69252                     -19.89740
                    1826.41803                     614.33253                    -448.42490
                    3137.71706                    1071.35091                    -762.34447
                    1961.53012                     588.47818                    -448.95906
                    4364.34163                    1148.19572                    -937.99094
                    5449.75774                    1234.85099                   -1082.99731
                    6272.81017                    1222.27230                   -1139.35884
                    7004.82069                    1217.70727                   -1158.11206
                    9207.93127                    1456.35626                   -1365.81941
                   11029.80564                    1641.19747                   -1438.51761
                   12952.21218                    1918.05174                   -1461.92079
                    7637.72840                    1128.58351                    -756.79770
                   15683.89954                    2307.12914                   -1337.63284
                   15549.34399                    2281.18918                   -1091.37949
                   22665.33674                    3268.76891                   -1303.30757
                    9232.07711                    1205.61022                    -456.36172
        </DataArray>
        <DataArray type="Float32" Name="Moment" NumberOfComponents="3" format="ascii">
                     -19.11762                     -18.54505                       4.30893
                     108.29975                    -353.32077                      10.94409
                     786.73570                   -1952.55707                      -4.86767
                     827.86708                   -2627.43692                      28.26434
                      32.15650                    -257.08272                    -108.15432
                    -707.74461                    1991.59105                    -439.26815
                    -405.98183                    1468.75240                     157.21594
                      57.78083                     258.80270                    1176.74575
                     242.63516                    -524.48863                    1442.65573
                     391.40711                   -1557.71081                    1538.70484
                     832.97222                   -4267.86105                    1865.64342
                    1418.67377                   -8118.29867                    2015.30978
                     -86.30916                     420.52495                    -185.24536
                   -1722.39295                   10013.71190                   -2643.07247
                   -1613.96485                    9517.76042                   -2767.61217
                    -289.06059                     997.22522                   -1311.44567
                    -161.96827                      -6.63204                    -176.62859
        </DataArray>
      </PointData>
    </Piece>
  </PolyData>
</VTKFile>
