<?xml version="1.0"?>
<VTKFile type="PolyData" version="0.1" byte_order="LittleEndian">
  <PolyData>
    <Piece NumberOfPoints="     17" NumberOfVerts="  0" NumberOfLines="      0"
           NumberOfStrips="  0" NumberOfPolys="      0">
      <Points>
        <DataArray type="Float32" NumberOfComponents="3" format="ascii">
                       2.71799                       3.11820                      89.05042
                       2.41969                       6.52952                      87.88369
                       2.12420                       9.94067                      86.71573
                       1.83260                      13.35164                      85.54628
                       1.54574                      16.76243                      84.37513
                       1.26443                      20.17304                      83.20211
                       0.98950                      23.58349                      82.02713
                       0.72190                      26.99384                      80.85014
                       0.46263                      30.40412                      79.67111
                       0.21276                      33.81437                      78.48996
                      -0.02673                      37.22461                      77.30665
                      -0.25507                      40.63485                      76.12112
                      -0.47187                      44.04505                      74.93334
                      -0.67742                      47.45520                      73.74339
                      -0.87289                      50.86526                      72.55148
                      -1.06074                      54.27521                      71.35804
                      -1.24504                      57.68508                      70.16381
        </DataArray>
      </Points>
      <PointData>
        <DataArray type="Float32" Name="Force" NumberOfComponents="3" format="ascii">
                     153.92402                      -9.91985                     -68.51249
                     502.32116                     -37.40641                    -236.67013
                    2020.01406                     304.58974                     385.84941
                    3516.01506                     562.68220                     778.61903
                    2126.21609                     314.30674                     402.56012
                    4475.19781                     587.73308                     651.13480
                    5225.38727                     599.84790                     539.57561
                    5563.41007                     554.68532                     369.31688
                    5710.16884                     497.47878                     215.01503
                    6837.65120                     513.90088                      78.99086
                    7330.52576                     466.64675                     -88.47596
                    7817.17188                     419.49734                    -239.73067
                    4176.75505                     191.16965                    -191.35804
                    7614.78882                     282.30208                    -482.75190
                    6469.30093                     170.61667                    -558.08367
                    8080.49469                     118.29007                    -921.83250
                    3707.45333                      28.21817                    -492.02639
        </DataArray>
        <DataArray type="Float32" Name="Moment" NumberOfComponents="3" format="ascii">
                     -18.95769                      -2.87943                     -16.59412
                      67.15154                     -53.77537                    -360.22523
                     569.57984                    -311.31445                   -2114.78533
                     651.68436                    -136.87955                   -2956.05827
                      -6.46007                     283.55615                    -325.49490
                    -534.82235                    1081.18409                    1963.50255
                    -308.47449                     435.99838                    1437.03984
                     -80.19543                    -642.72417                     465.20265
                      -6.46084                   -1057.37045                     -62.90504
                      -1.29113                   -1318.00788                    -614.10914
                       8.01539                   -1925.95555                   -2159.16476
                     -81.73992                   -2167.83141                   -4247.91388
                       7.92618                    -160.40632                     426.80299
                     219.29294                    1142.45302                    5422.68260
                     305.65483                     720.47129                    4577.14654
                      29.52098                   -1083.43250                    1170.52864
                     -69.08575                    -794.41201                    -448.41637
        </DataArray>
      </PointData>
    </Piece>
  </PolyData>
</VTKFile>
