<?xml version="1.0"?>
<VTKFile type="PolyData" version="0.1" byte_order="LittleEndian">
  <PolyData>
    <Piece NumberOfPoints="     17" NumberOfVerts="  0" NumberOfLines="      0"
           NumberOfStrips="  0" NumberOfPolys="      0">
      <Points>
        <DataArray type="Float32" NumberOfComponents="3" format="ascii">
                       2.56587                      -1.91803                      87.46122
                       2.05549                      -4.00035                      84.54732
                       1.55351                      -6.07865                      81.62910
                       1.06335                      -8.15173                      78.70516
                       0.58805                     -10.21887                      75.77458
                       0.13084                     -12.27971                      72.83671
                      -0.30454                     -14.33403                      69.89096
                      -0.71365                     -16.38164                      66.93680
                      -1.09141                     -18.42244                      63.97378
                      -1.43224                     -20.45643                      61.00163
                      -1.73066                     -22.48370                      58.02035
                      -1.98187                     -24.50446                      55.03031
                      -2.18278                     -26.51902                      52.03230
                      -2.33315                     -28.52788                      49.02747
                      -2.43700                     -30.53184                      46.01733
                      -2.50422                     -32.53213                      43.00363
                      -2.55252                     -34.53054                      39.98826
        </DataArray>
      </Points>
      <PointData>
        <DataArray type="Float32" Name="Force" NumberOfComponents="3" format="ascii">
                     150.36998                     -78.87844                      30.02186
                     555.57070                    -251.79315                      84.57250
                    1957.59221                     534.57945                    -711.55604
                    3211.81901                     896.73378                   -1166.83245
                    1924.94904                     468.81469                    -640.53059
                    4092.72442                     864.77109                   -1242.27380
                    4794.08714                     855.16060                   -1300.13472
                    5057.51437                     746.76184                   -1205.72192
                    5114.62652                     634.95838                   -1069.31656
                    6040.30522                     619.94555                   -1084.17144
                    6258.60387                     525.82352                    -937.82363
                    6304.50988                     445.38695                    -772.14313
                    3187.76500                     194.29333                    -325.42415
                    5378.82841                     267.36997                    -434.37277
                    4278.83531                     156.35157                    -239.74442
                    6672.79313                     249.88878                    -298.40102
                    3763.65100                     151.60156                    -162.45993
        </DataArray>
        <DataArray type="Float32" Name="Moment" NumberOfComponents="3" format="ascii">
                     -19.85115                     -19.45255                      12.91641
                     145.35665                    -348.89491                     150.66516
                     946.37085                   -1904.09568                     768.40840
                     947.54237                   -2403.43050                     990.97404
                      35.73081                    -239.87789                      -3.84497
                    -786.24094                    1742.65334                   -1066.25257
                    -458.84189                    1572.95928                    -253.82872
                     -22.50289                    1157.14407                    1112.85286
                     138.50141                     865.00611                    1686.85052
                     218.97669                     652.67184                    2233.52340
                     404.91861                    -293.13221                    3165.67727
                     504.62419                   -1805.29099                    3614.12306
                      -4.53907                     878.08098                     641.95105
                    -347.63664                    4739.36226                    -584.29628
                    -159.79976                    3628.89677                      43.35850
                      75.36199                     903.62345                    2028.46001
                      54.52043                    -286.85514                     999.73198
        </DataArray>
      </PointData>
    </Piece>
  </PolyData>
</VTKFile>
