<?xml version="1.0"?>
<VTKFile type="PolyData" version="0.1" byte_order="LittleEndian">
  <PolyData>
    <Piece NumberOfPoints="     19" NumberOfVerts="  0" NumberOfLines="     18"
           NumberOfStrips="  0" NumberOfPolys="      0">
      <Points>
        <DataArray type="Float32" NumberOfComponents="3" format="ascii">
                       2.93711                      -1.52217                      90.22811
                       2.88549                      -2.88612                      90.29766
                       2.74956                      -5.61760                      90.34474
                       2.60153                      -8.35092                      90.34571
                       2.41515                     -11.76889                      90.31540
                       2.27617                     -15.86639                      90.40484
                       2.19759                     -19.95999                      90.60813
                       2.14280                     -24.05451                      90.80103
                       2.12064                     -28.14986                      90.98395
                       2.13749                     -32.24586                      91.15414
                       2.19445                     -36.34217                      91.30906
                       2.30484                     -40.43803                      91.44809
                       2.47493                     -44.53243                      91.57150
                       2.70755                     -48.62425                      91.68025
                       3.00221                     -52.71252                      91.77589
                       3.28701                     -56.11668                      91.84792
                       3.53483                     -58.83822                      91.90991
                       3.79280                     -61.55821                      92.02575
                       3.91597                     -62.91920                      92.04238
        </DataArray>
      </Points>
      <PointData>
        <DataArray type="Float32" Name="Force" NumberOfComponents="3" format="ascii">
                       0.82677                       0.32881                       6.68720
                      90.66079                      -1.87383                      27.39930
                     116.21541                      -0.62180                      65.55106
                     105.37604                       0.98984                      85.17479
                     774.56145                     -46.38613                    -427.91926
                     995.03102                     -51.09378                    -483.41178
                    1158.13422                     -48.54638                    -490.18380
                    1492.96913                     -48.00151                    -566.23975
                    1629.51500                     -34.07609                    -549.10981
                    1882.52949                     -16.11488                    -580.94650
                    2321.71746                      13.49702                    -654.81336
                    2651.90310                      57.22895                    -694.27139
                    3095.79418                     117.63199                    -780.15093
                    3373.45009                     184.26771                    -805.74553
                    3611.90446                     251.49788                    -818.72009
                    3740.88693                     296.08934                    -806.34490
                    3650.12925                     305.04031                    -749.91425
                    2684.07875                     228.10030                    -536.86838
                    1264.22673                     110.76054                    -145.82955
        </DataArray>
        <DataArray type="Float32" Name="Moment" NumberOfComponents="3" format="ascii">
                       0.00000                       0.00000                       0.00000
                       0.00000                       0.00000                       0.00000
                       0.00000                       0.00000                       0.00000
                       0.00000                       0.00000                       0.00000
                       7.96539                     260.05133                     -13.77150
                      13.31209                     513.88237                     -26.91339
                      13.07316                     651.80430                     -33.66546
                      11.49118                     890.91503                     -45.22693
                       4.96763                    1191.57680                     -59.20391
                      -8.38136                    1315.65202                     -63.65428
                     -26.33898                    1384.94795                     -64.84137
                     -48.51649                    1453.77034                     -65.48345
                     -62.39878                    1276.94009                     -55.07239
                     -81.68500                    1267.15106                     -52.20662
                     -96.01833                    1222.01538                     -48.21520
                    -101.05867                    1156.03444                     -44.34776
                     -93.22099                    1020.46760                     -38.65096
                     -47.13625                     509.41884                     -19.22041
                     -39.78753                     432.60736                     -16.35215
        </DataArray>
        <DataArray type="Float32" Name="TranslationalVelocity" NumberOfComponents="3" format="ascii">
                      -0.79620                      -0.01695                      -1.42745
                      -0.95326                      -0.07533                      -2.68895
                      -1.26615                      -0.10335                      -5.21529
                      -1.57794                      -0.08748                      -7.74199
                      -1.96629                      -0.03868                     -10.89884
                      -2.43235                      -0.10607                     -14.67741
                      -2.89799                      -0.28509                     -18.44591
                      -3.36123                      -0.45696                     -22.20935
                      -3.82077                      -0.62307                     -25.96797
                      -4.27442                      -0.78157                     -29.72227
                      -4.72031                      -0.93015                     -33.47315
                      -5.15440                      -1.06951                     -37.22030
                      -5.57319                      -1.20012                     -40.96365
                      -5.97380                      -1.32260                     -44.70296
                      -6.35485                      -1.43770                     -48.43798
                      -6.65860                      -1.52911                     -51.54760
                      -6.89390                      -1.60728                     -54.03360
                      -7.12608                      -1.73523                     -56.51826
                      -7.24121                      -1.76088                     -57.76163
        </DataArray>
        <DataArray type="Float32" Name="RotationalVelocity" NumberOfComponents="3" format="ascii">
                       0.92447                      -0.01629                      -0.11439
                       0.92427                      -0.01628                      -0.11433
                       0.92377                      -0.01626                      -0.11415
                       0.92316                      -0.01622                      -0.11392
                       0.92223                      -0.01617                      -0.11359
                       0.92096                      -0.01610                      -0.11317
                       0.91962                      -0.01602                      -0.11268
                       0.91833                      -0.01594                      -0.11200
                       0.91719                      -0.01584                      -0.11093
                       0.91624                      -0.01571                      -0.10930
                       0.91555                      -0.01556                      -0.10687
                       0.91509                      -0.01537                      -0.10365
                       0.91483                      -0.01514                      -0.09971
                       0.91473                      -0.01490                      -0.09530
                       0.91475                      -0.01467                      -0.09085
                       0.91482                      -0.01450                      -0.08765
                       0.91489                      -0.01440                      -0.08582
                       0.91496                      -0.01434                      -0.08469
                       0.91500                      -0.01433                      -0.08442
        </DataArray>
        <DataArray type="Float32" Name="TranslationalAcceleration" NumberOfComponents="3" format="ascii">
                      -0.29907                       1.18995                      -0.02046
                      -0.26562                       2.37114                      -0.11600
                      -0.19422                       4.73815                      -0.21662
                      -0.13215                       7.10459                      -0.25076
                      -0.08064                      10.05766                      -0.21905
                      -0.08727                      13.58801                      -0.21852
                      -0.18423                      17.11003                      -0.22251
                      -0.36740                      20.62683                      -0.11935
                      -0.62663                      24.13658                       0.08328
                      -0.93281                      27.63722                       0.37426
                      -1.24306                      31.12854                       0.73370
                      -1.50293                      34.60919                       1.15057
                      -1.64610                      38.08205                       1.60643
                      -1.60835                      41.55362                       2.08465
                      -1.34069                      45.03288                       2.57124
                      -0.93328                      47.94409                       2.97560
                      -0.48852                      50.28418                       3.28803
                       0.03587                      52.63959                       3.54723
                       0.31251                      53.81257                       3.71097
        </DataArray>
        <DataArray type="Float32" Name="OrientationX" NumberOfComponents="3" format="ascii">
                       0.93692                      -0.05360                      -0.34541
                       0.93694                      -0.05307                      -0.34544
                       0.93699                      -0.05158                      -0.34552
                       0.93706                      -0.04955                      -0.34563
                       0.93717                      -0.04617                      -0.34580
                       0.94793                      -0.03993                      -0.31598
                       0.95512                      -0.03290                      -0.29438
                       0.96099                      -0.02470                      -0.27546
                       0.96673                      -0.01493                      -0.25538
                       0.97208                      -0.00337                      -0.23463
                       0.97657                       0.01019                      -0.21496
                       0.98040                       0.02539                      -0.19540
                       0.98322                       0.04158                      -0.17763
                       0.98474                       0.05766                      -0.16418
                       0.98592                       0.07217                      -0.15086
                       0.98686                       0.08129                      -0.13962
                       0.98767                       0.08542                      -0.13118
                       0.98815                       0.08670                      -0.12664
                       0.98820                       0.08615                      -0.12662
        </DataArray>
        <DataArray type="Float32" Name="OrientationY" NumberOfComponents="3" format="ascii">
                       0.34755                       0.03741                       0.93691
                       0.34755                       0.03722                       0.93692
                       0.34753                       0.03677                       0.93695
                       0.34751                       0.03621                       0.93698
                       0.34748                       0.03538                       0.93702
                       0.31738                       0.03561                       0.94763
                       0.29546                       0.03524                       0.95470
                       0.27620                       0.03461                       0.96048
                       0.25575                       0.03385                       0.96615
                       0.23461                       0.03292                       0.97153
                       0.21455                       0.03184                       0.97619
                       0.19461                       0.03057                       0.98041
                       0.17651                       0.02912                       0.98387
                       0.16282                       0.02772                       0.98627
                       0.14933                       0.02625                       0.98844
                       0.13802                       0.02502                       0.99011
                       0.12957                       0.02413                       0.99128
                       0.12504                       0.02366                       0.99187
                       0.12503                       0.02366                       0.99187
        </DataArray>
        <DataArray type="Float32" Name="OrientationZ" NumberOfComponents="3" format="ascii">
                      -0.03730                      -0.99786                       0.05368
                      -0.03687                      -0.99790                       0.05332
                      -0.03562                      -0.99799                       0.05238
                      -0.03391                      -0.99811                       0.05115
                      -0.03102                      -0.99831                       0.04920
                      -0.02658                      -0.99857                       0.04643
                      -0.02104                      -0.99884                       0.04338
                      -0.01419                      -0.99910                       0.04008
                      -0.00578                      -0.99932                       0.03654
                       0.00445                      -0.99945                       0.03279
                       0.01679                      -0.99944                       0.02891
                       0.03086                      -0.99921                       0.02503
                       0.04608                      -0.99871                       0.02129
                       0.06142                      -0.99795                       0.01791
                       0.07529                      -0.99705                       0.01510
                       0.08398                      -0.99638                       0.01347
                       0.08784                      -0.99605                       0.01277
                       0.08899                      -0.99595                       0.01254
                       0.08844                      -0.99600                       0.01261
        </DataArray>
      </PointData>
      <Lines>
        <DataArray type="Int32" Name="connectivity" format="ascii">
      0      1
      1      2
      2      3
      3      4
      4      5
      5      6
      6      7
      7      8
      8      9
      9     10
     10     11
     11     12
     12     13
     13     14
     14     15
     15     16
     16     17
     17     18
        </DataArray>
        <DataArray type="Int32" Name="offsets" format="ascii">
      2
      4
      6
      8
     10
     12
     14
     16
     18
     20
     22
     24
     26
     28
     30
     32
     34
     36
        </DataArray>
      </Lines>
    </Piece>
  </PolyData>
</VTKFile>
