<?xml version="1.0"?>
<VTKFile type="PolyData" version="0.1" byte_order="LittleEndian">
  <PolyData>
    <Piece NumberOfPoints="     19" NumberOfVerts="  0" NumberOfLines="     18"
           NumberOfStrips="  0" NumberOfPolys="      0">
      <Points>
        <DataArray type="Float32" NumberOfComponents="3" format="ascii">
                       3.27771                       2.44924                      92.33501
                       3.42681                       5.16788                      94.71705
                       3.58329                       7.88846                      97.09640
                       3.74987                      10.61136                      99.47241
                       3.92876                      13.33681                     101.84459
                       4.12226                      16.06491                     104.21257
                       4.33327                      18.79556                     106.57610
                       4.56551                      21.52850                     108.93498
                       4.82349                      24.26338                     111.28893
                       5.11232                      26.99976                     113.63752
                       5.43724                      29.73722                     115.98011
                       5.80296                      32.47530                     118.31595
                       6.21282                      35.21354                     120.64425
                       6.66771                      37.95152                     122.96451
                       7.16477                      40.68893                     125.27684
                       7.69591                      43.42569                     127.58240
                       8.24611                      46.16206                     129.88402
                       8.52362                      47.53020                     131.03431
                       3.20460                       1.09035                      91.14341
        </DataArray>
      </Points>
      <PointData>
        <DataArray type="Float32" Name="TranslationalVelocity" NumberOfComponents="3" format="ascii">
                      -0.07380                      -2.00674                       2.25982
                       0.22341                      -4.20159                       4.74621
                       0.52324                      -6.39538                       7.23489
                       0.82660                      -8.58799                       9.72635
                       1.13426                     -10.77935                      12.22084
                       1.44740                     -12.96948                      14.71843
                       1.76791                     -15.15862                      17.21898
                       2.09862                     -17.34727                      19.72211
                       2.44328                     -19.53596                      22.22716
                       2.80642                     -21.72525                      24.73323
                       3.19292                     -23.91561                      27.23909
                       3.60752                     -26.10736                      29.74323
                       4.05406                     -28.30068                      32.24401
                       4.53460                     -30.49566                      34.73986
                       5.04833                     -32.69220                      37.22979
                       5.59037                     -34.89000                      39.71393
                       6.15029                     -37.08855                      42.19421
                       6.43304                     -38.18795                      43.43376
                      -0.22190                      -0.90907                       1.01712
        </DataArray>
        <DataArray type="Float32" Name="RotationalVelocity" NumberOfComponents="3" format="ascii">
                       0.91404                      -0.00843                      -0.11637
                       0.91420                      -0.00810                      -0.11675
                       0.91443                      -0.00758                      -0.11737
                       0.91469                      -0.00693                      -0.11811
                       0.91497                      -0.00614                      -0.11904
                       0.91525                      -0.00508                      -0.12026
                       0.91555                      -0.00359                      -0.12198
                       0.91584                      -0.00148                      -0.12440
                       0.91610                       0.00140                      -0.12770
                       0.91628                       0.00518                      -0.13202
                       0.91633                       0.00989                      -0.13738
                       0.91622                       0.01543                      -0.14369
                       0.91593                       0.02158                      -0.15068
                       0.91549                       0.02791                      -0.15788
                       0.91496                       0.03380                      -0.16455
                       0.91447                       0.03835                      -0.16971
                       0.91422                       0.04041                      -0.17204
                       0.91419                       0.04064                      -0.17230
                       0.91399                      -0.00852                      -0.11626
        </DataArray>
        <DataArray type="Float32" Name="TranslationalAcceleration" NumberOfComponents="3" format="ascii">
                      -1.67943                      -1.93755                      -1.85115
                      -2.04888                      -4.40520                      -3.66644
                      -2.38706                      -6.91809                      -5.43444
                      -2.67976                      -9.48806                      -7.14339
                      -2.91351                     -12.12218                      -8.78674
                      -3.07823                     -14.82359                     -10.36246
                      -3.17017                     -17.59266                     -11.87179
                      -3.19311                     -20.42782                     -13.31815
                      -3.15835                     -23.32601                     -14.70627
                      -3.08432                     -26.28301                     -16.04126
                      -2.99534                     -29.29362                     -17.32780
                      -2.91966                     -32.35162                     -18.56962
                      -2.88677                     -35.44961                     -19.76945
                      -2.92399                     -38.57904                     -20.92949
                      -3.05241                     -41.73049                     -22.05229
                      -3.28197                     -44.89441                     -23.14211
                      -3.60619                     -48.06201                     -24.20729
                      -3.78995                     -49.64570                     -24.73511
                      -1.48864                      -0.71324                      -0.93349
        </DataArray>
        <DataArray type="Float32" Name="RotationalAcceleration" NumberOfComponents="3" format="ascii">
                       0.05985                      -0.04208                       0.00179
                       0.07446                      -0.03812                      -0.00361
                       0.09451                      -0.03176                      -0.01207
                       0.11803                      -0.02289                      -0.02360
                       0.14318                      -0.01176                      -0.03780
                       0.16857                       0.00073                      -0.05358
                       0.19336                       0.01326                      -0.06935
                       0.21690                       0.02446                      -0.08355
                       0.23884                       0.03299                      -0.09460
                       0.25909                       0.03761                      -0.10109
                       0.27771                       0.03739                      -0.10196
                       0.29483                       0.03181                      -0.09664
                       0.31048                       0.02090                      -0.08515
                       0.32448                       0.00540                      -0.06833
                       0.33636                      -0.01314                      -0.04793
                       0.34525                      -0.03218                      -0.02677
                       0.34966                      -0.04816                      -0.00882
                       0.35052                      -0.05487                      -0.00122
                       0.05416                      -0.04349                       0.00374
        </DataArray>
        <DataArray type="Float32" Name="OrientationX" NumberOfComponents="3" format="ascii">
                       0.98980                      -0.12023                       0.07638
                       0.98974                      -0.12133                       0.07541
                       0.98964                      -0.12307                       0.07388
                       0.99124                      -0.11666                       0.06196
                       0.99440                      -0.09922                       0.03630
                       0.99565                      -0.09094                       0.02015
                       0.99653                      -0.08323                       0.00321
                       0.99701                      -0.07573                      -0.01530
                       0.99700                      -0.06912                      -0.03491
                       0.99643                      -0.06416                      -0.05486
                       0.99531                      -0.06048                      -0.07554
                       0.99365                      -0.05833                      -0.09623
                       0.99164                      -0.05885                      -0.11479
                       0.98942                      -0.06025                      -0.13201
                       0.98709                      -0.06057                      -0.14829
                       0.98497                      -0.05864                      -0.16249
                       0.98385                      -0.05545                      -0.17019
                       0.98366                      -0.05364                      -0.17186
                       0.98982                      -0.11986                       0.07670
        </DataArray>
        <DataArray type="Float32" Name="OrientationY" NumberOfComponents="3" format="ascii">
                       0.13658                       0.64897                      -0.74846
                       0.13654                       0.64821                      -0.74912
                       0.13648                       0.64719                      -0.75002
                       0.12322                       0.64758                      -0.75196
                       0.09236                       0.64964                      -0.75461
                       0.07468                       0.65000                      -0.75626
                       0.05674                       0.65024                      -0.75760
                       0.03777                       0.65048                      -0.75859
                       0.01853                       0.65066                      -0.75914
                       0.00010                       0.65075                      -0.75929
                      -0.01805                       0.65084                      -0.75900
                      -0.03523                       0.65091                      -0.75834
                      -0.04907                       0.65089                      -0.75759
                      -0.06132                       0.65091                      -0.75667
                      -0.07353                       0.65110                      -0.75542
                      -0.08558                       0.65147                      -0.75383
                      -0.09346                       0.65181                      -0.75260
                      -0.09587                       0.65195                      -0.75218
                       0.13660                       0.64926                      -0.74820
        </DataArray>
        <DataArray type="Float32" Name="OrientationZ" NumberOfComponents="3" format="ascii">
                       0.04042                       0.75126                       0.65877
                       0.04201                       0.75173                       0.65813
                       0.04449                       0.75233                       0.65728
                       0.04760                       0.75301                       0.65628
                       0.05129                       0.75374                       0.65517
                       0.05568                       0.75448                       0.65396
                       0.06097                       0.75515                       0.65271
                       0.06740                       0.75574                       0.65139
                       0.07519                       0.75622                       0.64999
                       0.08442                       0.75657                       0.64844
                       0.09507                       0.75680                       0.64669
                       0.10687                       0.75691                       0.64472
                       0.11930                       0.75689                       0.64256
                       0.13152                       0.75676                       0.64033
                       0.14231                       0.75657                       0.63824
                       0.15006                       0.75640                       0.63666
                       0.15267                       0.75635                       0.63610
                       0.15239                       0.75636                       0.63615
                       0.03989                       0.75106                       0.65903
        </DataArray>
      </PointData>
      <Lines>
        <DataArray type="Int32" Name="connectivity" format="ascii">
      0      1
      1      2
      2      3
      3      4
      4      5
      5      6
      6      7
      7      8
      8      9
      9     10
     10     11
     11     12
     12     13
     13     14
     14     15
     15     16
     16     17
     18      0
        </DataArray>
        <DataArray type="Int32" Name="offsets" format="ascii">
      2
      4
      6
      8
     10
     12
     14
     16
     18
     20
     22
     24
     26
     28
     30
     32
     34
     36
        </DataArray>
      </Lines>
    </Piece>
  </PolyData>
</VTKFile>
