<?xml version="1.0"?>
<VTKFile type="PolyData" version="0.1" byte_order="LittleEndian">
  <PolyData>
    <Piece NumberOfPoints="     17" NumberOfVerts="  0" NumberOfLines="      0"
           NumberOfStrips="  0" NumberOfPolys="      0">
      <Points>
        <DataArray type="Float32" NumberOfComponents="3" format="ascii">
                       3.24874                      -1.14297                      93.21980
                       3.50636                      -2.38489                      96.60781
                       3.77005                      -3.62881                      99.99462
                       4.04222                      -4.87537                     103.37979
                       4.32492                      -6.12497                     106.76297
                       4.62021                      -7.37778                     110.14389
                       4.93027                      -8.63390                     113.52225
                       5.25757                      -9.89341                     116.89772
                       5.60482                     -11.15628                     120.26993
                       5.97482                     -12.42239                     123.63850
                       6.37024                     -13.69149                     127.00306
                       6.79322                     -14.96318                     130.36327
                       7.24491                     -16.23698                     133.71896
                       7.72482                     -17.51235                     137.07013
                       8.23011                     -18.78874                     140.41719
                       8.75478                     -20.06565                     143.76109
                       9.28867                     -21.34277                     147.10346
        </DataArray>
      </Points>
      <PointData>
        <DataArray type="Float32" Name="Force" NumberOfComponents="3" format="ascii">
                     171.54035                      76.51918                      15.06258
                     561.92965                     239.62879                      44.06777
                    1980.26006                    -691.15472                    -412.09208
                    3280.67619                   -1180.83996                    -704.55516
                    1956.45536                    -621.18726                    -395.39468
                    4109.68390                   -1123.34805                    -778.44766
                    4733.23568                   -1076.76431                    -840.25460
                    4872.68999                    -892.27261                    -814.55579
                    4820.83514                    -703.59241                    -772.38277
                    5546.36134                    -604.96361                    -854.67237
                    5578.82437                    -409.92723                    -833.70745
                    5597.38628                    -248.15335                    -827.37743
                    2798.33228                     -63.30433                    -409.94474
                    4642.00602                       6.90035                    -669.72977
                    3303.54463                     108.16334                    -461.77883
                    4260.22339                     235.77008                    -586.38979
                    3298.67788                     113.95308                    -483.62349
        </DataArray>
        <DataArray type="Float32" Name="Moment" NumberOfComponents="3" format="ascii">
                     -18.16673                      17.77681                      12.37009
                     146.57431                     310.98303                     175.22206
                     971.41541                    1772.82066                    1024.37416
                    1039.94663                    2238.75070                    1407.23371
                      66.80531                     103.73429                     282.85333
                    -743.79580                   -1989.67158                    -530.48710
                    -545.56231                   -1194.52884                    -919.63413
                    -325.14762                     187.47102                   -1452.30349
                    -244.77470                     823.92387                   -1612.54101
                    -248.90216                    1353.75977                   -1823.37600
                    -159.65439                    2573.77929                   -1708.25970
                     -11.43129                    3712.71892                    -773.62528
                    -170.95801                      66.61914                   -1066.12375
                    -531.82419                   -2685.83566                   -3300.34712
                    -415.82811                   -1794.22128                   -3031.78938
                    -378.10382                    1913.14279                   -2332.28383
                     -76.18953                    1263.13329                    -372.38869
        </DataArray>
      </PointData>
    </Piece>
  </PolyData>
</VTKFile>
