<?xml version="1.0"?>
<VTKFile type="PolyData" version="0.1" byte_order="LittleEndian">
  <PolyData>
    <Piece NumberOfPoints="     19" NumberOfVerts="  0" NumberOfLines="     18"
           NumberOfStrips="  0" NumberOfPolys="      0">
      <Points>
        <DataArray type="Float32" NumberOfComponents="3" format="ascii">
                       3.12514                      -0.55634                      91.51405
                       3.21933                      -1.05830                      92.78174
                       3.38209                      -2.15026                      95.28433
                       3.53539                      -3.28476                      97.77086
                       3.72592                      -4.72968                     100.86858
                       4.02494                      -6.33451                     104.63103
                       4.36938                      -7.82278                     108.43578
                       4.73075                      -9.31291                     112.23824
                       5.11547                     -10.80341                     116.03831
                       5.52714                     -12.29606                     119.83472
                       5.96549                     -13.79370                     123.62618
                       6.43894                     -15.29500                     127.41198
                       6.95053                     -16.79933                     131.19163
                       7.50111                     -18.30592                     134.96490
                       8.09029                     -19.81402                     138.73176
                       8.60523                     -21.07135                     141.86681
                       9.02876                     -22.07000                     144.37581
                       9.45576                     -23.01770                     146.90514
                       9.66655                     -23.53019                     148.15435
        </DataArray>
      </Points>
      <PointData>
        <DataArray type="Float32" Name="Force" NumberOfComponents="3" format="ascii">
                       0.15061                       3.17167                       1.23499
                      70.70440                      24.51483                       4.33039
                      89.31383                      57.44073                      15.77900
                      80.39782                      75.03261                      23.25738
                     690.51335                    -275.11175                    -163.42333
                     894.51127                    -312.47704                    -197.84640
                    1001.00527                    -283.55361                    -200.03497
                    1231.69988                    -287.55904                    -228.84818
                    1239.77417                    -227.12298                    -214.02790
                    1312.29470                    -189.33500                    -216.69610
                    1470.50446                    -150.02168                    -231.82497
                    1440.01799                     -91.21270                    -219.79781
                    1480.00254                     -52.27620                    -225.67350
                    1281.85114                      -3.51231                    -192.84919
                    1041.90505                      31.29010                    -153.31701
                     608.99940                      46.98732                     -81.84901
                     993.79001                      55.60455                    -144.45284
                    1025.25931                      40.92610                    -156.16201
                    1309.12328                      36.08037                    -205.15422
        </DataArray>
        <DataArray type="Float32" Name="Moment" NumberOfComponents="3" format="ascii">
                       0.00000                       0.00000                       0.00000
                       0.00000                       0.00000                       0.00000
                       0.00000                       0.00000                       0.00000
                       0.00000                       0.00000                       0.00000
                     -13.27818                      65.24350                    -165.93721
                     -30.77600                     144.52050                    -367.40027
                     -43.49986                     193.79001                    -492.38114
                     -65.42891                     274.56739                    -697.15704
                     -96.13849                     377.31849                    -957.29442
                    -115.83046                     422.31499                   -1070.45171
                    -134.63651                     453.10962                   -1147.24417
                    -154.52035                     478.91468                   -1211.09115
                    -132.70327                     379.39754                    -958.17468
                    -139.02429                     369.03970                    -930.80313
                    -141.27692                     352.53283                    -888.13594
                    -132.75832                     319.51084                    -804.36866
                    -120.14766                     284.86304                    -716.92506
                     -62.56079                     147.81869                    -371.99440
                     -68.29262                     161.84703                    -407.32261
        </DataArray>
        <DataArray type="Float32" Name="TranslationalVelocity" NumberOfComponents="3" format="ascii">
                       0.17081                      -1.34868                      -0.47062
                       0.12462                      -2.53864                      -0.93838
                       0.02352                      -4.88517                      -1.95564
                      -0.07699                      -7.21599                      -3.01279
                      -0.19416                     -10.12057                      -4.36015
                      -0.30007                     -13.65743                      -5.85980
                      -0.36508                     -17.24045                      -7.25486
                      -0.39394                     -20.82566                      -8.65654
                      -0.37202                     -24.41503                     -10.06611
                      -0.27922                     -28.00928                     -11.48897
                      -0.10241                     -31.60752                     -12.93044
                       0.19336                     -35.21073                     -14.39605
                       0.63381                     -38.81756                     -15.89095
                       1.23750                     -42.42557                     -17.41936
                       2.00851                     -46.03179                     -18.98342
                       2.76380                     -49.03423                     -20.31128
                       3.42948                     -51.43684                     -21.37966
                       4.12552                     -53.85853                     -22.40426
                       4.47105                     -55.05456                     -22.95310
        </DataArray>
        <DataArray type="Float32" Name="RotationalVelocity" NumberOfComponents="3" format="ascii">
                       0.93024                       0.00792                      -0.11358
                       0.93025                       0.00846                      -0.11336
                       0.93037                       0.01009                      -0.11273
                       0.93060                       0.01235                      -0.11186
                       0.93101                       0.01606                      -0.11043
                       0.93163                       0.02160                      -0.10830
                       0.93242                       0.02868                      -0.10558
                       0.93360                       0.03826                      -0.10190
                       0.93536                       0.05156                      -0.09681
                       0.93775                       0.06975                      -0.08984
                       0.94078                       0.09433                      -0.08041
                       0.94413                       0.12477                      -0.06870
                       0.94753                       0.16008                      -0.05508
                       0.95068                       0.19794                      -0.04043
                       0.95329                       0.23447                      -0.02628
                       0.95481                       0.25938                      -0.01660
                       0.95552                       0.27238                      -0.01155
                       0.95585                       0.27907                      -0.00894
                       0.95588                       0.27972                      -0.00869
        </DataArray>
        <DataArray type="Float32" Name="TranslationalAcceleration" NumberOfComponents="3" format="ascii">
                       0.75451                       0.72513                      -0.82338
                       0.69597                       1.25940                      -1.89873
                       0.56091                       2.39866                      -4.01137
                       0.36614                       3.56105                      -6.10983
                       0.00313                       5.01715                      -8.72933
                      -0.64386                       6.62187                     -11.93241
                      -1.57037                       8.08484                     -15.17822
                      -2.80575                       9.50382                     -18.41657
                      -4.35270                      10.87402                     -21.64926
                      -6.18748                      12.19372                     -24.88177
                      -8.24147                      13.46952                     -28.12180
                     -10.47454                      14.69659                     -31.38477
                     -12.80115                      15.88180                     -34.69008
                     -15.12707                      17.03817                     -38.06036
                     -17.36000                      18.18280                     -41.51594
                     -19.09818                      19.13919                     -44.46692
                     -20.38045                      19.90259                     -46.87745
                     -21.53562                      20.62263                     -49.33512
                     -22.10478                      21.01976                     -50.55671
        </DataArray>
        <DataArray type="Float32" Name="OrientationX" NumberOfComponents="3" format="ascii">
                       0.95968                      -0.22979                      -0.16189
                       0.95965                      -0.22966                      -0.16224
                       0.95958                      -0.22927                      -0.16322
                       0.95948                      -0.22875                      -0.16454
                       0.95930                      -0.22788                      -0.16675
                       0.96723                      -0.19767                      -0.15932
                       0.97219                      -0.17512                      -0.15549
                       0.97597                      -0.15483                      -0.15336
                       0.97943                      -0.13307                      -0.15165
                       0.98241                      -0.11029                      -0.15066
                       0.98458                      -0.08809                      -0.15114
                       0.98612                      -0.06567                      -0.15248
                       0.98690                      -0.04477                      -0.15498
                       0.98688                      -0.02805                      -0.15897
                       0.98672                      -0.01194                      -0.16200
                       0.98667                       0.00081                      -0.16270
                       0.98681                       0.00964                      -0.16162
                       0.98695                       0.01411                      -0.16040
                       0.98702                       0.01393                      -0.15997
        </DataArray>
        <DataArray type="Float32" Name="OrientationY" NumberOfComponents="3" format="ascii">
                       0.27243                       0.90227                       0.33420
                       0.27243                       0.90226                       0.33423
                       0.27243                       0.90223                       0.33431
                       0.27244                       0.90219                       0.33440
                       0.27245                       0.90214                       0.33453
                       0.24173                       0.90886                       0.33992
                       0.21944                       0.91306                       0.34375
                       0.19989                       0.91630                       0.34705
                       0.17917                       0.91927                       0.35048
                       0.15777                       0.92185                       0.35396
                       0.13750                       0.92384                       0.35724
                       0.11736                       0.92535                       0.36049
                       0.09910                       0.92632                       0.36347
                       0.08526                       0.92678                       0.36580
                       0.07165                       0.92701                       0.36812
                       0.06027                       0.92705                       0.37006
                       0.05179                       0.92699                       0.37149
                       0.04725                       0.92693                       0.37225
                       0.04725                       0.92693                       0.37225
        </DataArray>
        <DataArray type="Float32" Name="OrientationZ" NumberOfComponents="3" format="ascii">
                       0.06928                      -0.36483                       0.92849
                       0.06963                      -0.36494                       0.92842
                       0.07061                      -0.36526                       0.92822
                       0.07195                      -0.36568                       0.92796
                       0.07420                      -0.36635                       0.92751
                       0.07761                      -0.36730                       0.92686
                       0.08177                      -0.36831                       0.92610
                       0.08679                      -0.36936                       0.92522
                       0.09277                      -0.37044                       0.92421
                       0.09985                      -0.37151                       0.92304
                       0.10816                      -0.37251                       0.92170
                       0.11743                      -0.37338                       0.92022
                       0.12729                      -0.37407                       0.91862
                       0.13707                      -0.37456                       0.91702
                       0.14579                      -0.37484                       0.91556
                       0.15113                      -0.37493                       0.91465
                       0.15340                      -0.37496                       0.91426
                       0.15393                      -0.37497                       0.91417
                       0.15347                      -0.37498                       0.91424
        </DataArray>
      </PointData>
      <Lines>
        <DataArray type="Int32" Name="connectivity" format="ascii">
      0      1
      1      2
      2      3
      3      4
      4      5
      5      6
      6      7
      7      8
      8      9
      9     10
     10     11
     11     12
     12     13
     13     14
     14     15
     15     16
     16     17
     17     18
        </DataArray>
        <DataArray type="Int32" Name="offsets" format="ascii">
      2
      4
      6
      8
     10
     12
     14
     16
     18
     20
     22
     24
     26
     28
     30
     32
     34
     36
        </DataArray>
      </Lines>
    </Piece>
  </PolyData>
</VTKFile>
