<?xml version="1.0"?>
<VTKFile type="PolyData" version="0.1" byte_order="LittleEndian">
  <PolyData>
    <Piece NumberOfPoints="     19" NumberOfVerts="  0" NumberOfLines="     18"
           NumberOfStrips="  0" NumberOfPolys="      0">
      <Points>
        <DataArray type="Float32" NumberOfComponents="3" format="ascii">
                       3.10755                      -0.34975                      91.57334
                       3.20771                      -0.66906                      92.89843
                       3.38356                      -1.39978                      95.52843
                       3.54932                      -2.17481                      98.14860
                       3.75306                      -3.17113                     101.41748
                       4.06069                      -4.23064                     105.36758
                       4.40484                      -5.16713                     109.34423
                       4.75755                      -6.10443                     113.31996
                       5.12324                      -7.04086                     117.29476
                       5.50316                      -7.97821                     121.26804
                       5.89617                      -8.91957                     125.23910
                       6.30657                      -9.86354                     129.20780
                       6.73512                     -10.80974                     133.17407
                       7.18139                     -11.75772                     137.13798
                       7.64560                     -12.70710                     141.09951
                       8.04322                     -13.49894                     144.39939
                       8.36620                     -14.12500                     147.04049
                       8.68996                     -14.69771                     149.69474
                       8.84980                     -15.02453                     151.01202
        </DataArray>
      </Points>
      <PointData>
        <DataArray type="Float32" Name="Force" NumberOfComponents="3" format="ascii">
                       0.08054                       2.81198                       0.66371
                      71.86454                      24.92546                       0.45918
                      89.77866                      58.75226                       7.10034
                      80.04466                      76.77692                      12.08033
                     699.59505                    -285.79785                    -123.32509
                     909.86897                    -327.66642                    -151.76593
                    1032.60423                    -304.28139                    -158.70607
                    1290.62315                    -318.50674                    -187.44317
                    1328.01383                    -265.28075                    -182.56517
                    1437.32553                    -236.98938                    -191.35258
                    1636.30662                    -208.57856                    -210.65905
                    1647.94167                    -154.16701                    -206.95371
                    1750.51669                    -122.59667                    -218.99523
                    1579.43132                     -57.38999                    -192.74834
                    1352.42332                      -1.50814                    -159.51286
                     953.59615                      35.78947                    -106.08872
                    1128.42614                      40.56536                    -127.07458
                    1055.35048                      28.64652                    -121.14246
                    1348.02341                      17.62526                    -158.81969
        </DataArray>
        <DataArray type="Float32" Name="Moment" NumberOfComponents="3" format="ascii">
                       0.00000                       0.00000                       0.00000
                       0.00000                       0.00000                       0.00000
                       0.00000                       0.00000                       0.00000
                       0.00000                       0.00000                       0.00000
                     -14.41610                      43.52012                    -182.63428
                     -31.01648                      91.30881                    -383.08839
                     -42.51022                     121.46972                    -509.47775
                     -61.62927                     170.17408                    -713.50563
                     -86.97566                     231.07323                    -968.44410
                    -100.37855                     255.53714                   -1070.46502
                    -110.26494                     267.93082                   -1121.77417
                    -120.59891                     279.20921                   -1168.30384
                    -100.77408                     222.40190                    -930.03140
                    -101.75829                     214.82176                    -897.79684
                     -99.74555                     202.91781                    -847.60709
                     -95.40643                     190.01643                    -793.47379
                     -95.32642                     188.33952                    -786.37885
                     -50.58654                      99.89029                    -417.07111
                     -52.88868                     104.72713                    -437.28421
        </DataArray>
        <DataArray type="Float32" Name="TranslationalVelocity" NumberOfComponents="3" format="ascii">
                       0.07611                      -1.38034                      -0.29893
                       0.04708                      -2.61452                      -0.59414
                      -0.01838                      -5.06276                      -1.27002
                      -0.07833                      -7.50504                      -1.98878
                      -0.13462                     -10.56000                      -2.91679
                      -0.14786                     -14.27240                      -3.91231
                      -0.09332                     -18.03089                      -4.80303
                       0.02597                     -21.80752                      -5.70483
                       0.22193                     -25.60305                      -6.61786
                       0.50697                     -29.41672                      -7.54557
                       0.88224                     -33.24509                      -8.49090
                       1.36889                     -37.08864                      -9.45598
                       1.97513                     -40.94498                     -10.44190
                       2.70251                     -44.81130                     -11.44878
                       3.54193                     -48.68453                     -12.47560
                       4.30907                     -51.91540                     -13.34342
                       4.95456                     -54.50295                     -14.03575
                       5.60935                     -57.10369                     -14.67678
                       5.93089                     -58.39440                     -15.03600
        </DataArray>
        <DataArray type="Float32" Name="RotationalVelocity" NumberOfComponents="3" format="ascii">
                       0.92235                       0.00395                      -0.11243
                       0.92291                       0.00513                      -0.11219
                       0.92438                       0.00844                      -0.11152
                       0.92631                       0.01294                      -0.11059
                       0.92941                       0.02047                      -0.10903
                       0.93377                       0.03197                      -0.10662
                       0.93844                       0.04595                      -0.10365
                       0.94331                       0.06252                      -0.10007
                       0.94827                       0.08185                      -0.09584
                       0.95319                       0.10411                      -0.09092
                       0.95788                       0.12947                      -0.08523
                       0.96218                       0.15706                      -0.07899
                       0.96592                       0.18572                      -0.07244
                       0.96899                       0.21353                      -0.06605
                       0.97126                       0.23768                      -0.06047
                       0.97243                       0.25190                      -0.05717
                       0.97289                       0.25734                      -0.05591
                       0.97300                       0.25768                      -0.05584
                       0.97294                       0.25575                      -0.05629
        </DataArray>
        <DataArray type="Float32" Name="TranslationalAcceleration" NumberOfComponents="3" format="ascii">
                       0.36331                      -0.08723                      -1.46874
                       0.17314                       0.04412                      -2.63862
                      -0.20122                       0.40260                      -4.96717
                      -0.55990                       0.84545                      -7.28445
                      -0.98060                       1.50332                     -10.16563
                      -1.44199                       2.30350                     -13.63303
                      -1.84838                       3.15730                     -17.12472
                      -2.19669                       4.17991                     -20.62472
                      -2.48250                       5.36858                     -24.14040
                      -2.69937                       6.71902                     -27.67939
                      -2.84740                       8.21059                     -31.24604
                      -2.90941                       9.84981                     -34.85240
                      -2.87623                      11.62653                     -38.50766
                      -2.74213                      13.52862                     -42.21882
                      -2.50877                      15.54003                     -45.98782
                      -2.24884                      17.28120                     -49.16685
                      -2.00497                      18.69806                     -51.73300
                      -1.73652                      20.07661                     -54.33182
                      -1.60951                      20.80137                     -55.60824
        </DataArray>
        <DataArray type="Float32" Name="OrientationX" NumberOfComponents="3" format="ascii">
                       0.96370                      -0.23377                      -0.12895
                       0.96369                      -0.23372                      -0.12916
                       0.96364                      -0.23358                      -0.12975
                       0.96358                      -0.23339                      -0.13055
                       0.96348                      -0.23307                      -0.13188
                       0.97101                      -0.20235                      -0.12725
                       0.97575                      -0.17983                      -0.12479
                       0.97940                      -0.15992                      -0.12331
                       0.98279                      -0.13874                      -0.12198
                       0.98577                      -0.11679                      -0.12092
                       0.98807                      -0.09581                      -0.12058
                       0.98988                      -0.07487                      -0.12057
                       0.99107                      -0.05572                      -0.12111
                       0.99162                      -0.04094                      -0.12250
                       0.99201                      -0.02652                      -0.12330
                       0.99230                      -0.01471                      -0.12296
                       0.99253                      -0.00613                      -0.12184
                       0.99267                      -0.00164                      -0.12081
                       0.99271                      -0.00172                      -0.12049
        </DataArray>
        <DataArray type="Float32" Name="OrientationY" NumberOfComponents="3" format="ascii">
                       0.25659                       0.94443                       0.20546
                       0.25659                       0.94442                       0.20551
                       0.25660                       0.94439                       0.20563
                       0.25661                       0.94436                       0.20578
                       0.25663                       0.94430                       0.20599
                       0.22579                       0.95118                       0.21043
                       0.20342                       0.95550                       0.21364
                       0.18381                       0.95883                       0.21645
                       0.16302                       0.96193                       0.21936
                       0.14156                       0.96464                       0.22231
                       0.12121                       0.96677                       0.22507
                       0.10099                       0.96846                       0.22778
                       0.08265                       0.96962                       0.23024
                       0.06873                       0.97025                       0.23214
                       0.05504                       0.97068                       0.23400
                       0.04357                       0.97089                       0.23552
                       0.03504                       0.97097                       0.23662
                       0.03047                       0.97098                       0.23720
                       0.03047                       0.97098                       0.23720
        </DataArray>
        <DataArray type="Float32" Name="OrientationZ" NumberOfComponents="3" format="ascii">
                       0.07375                      -0.23109                       0.97013
                       0.07395                      -0.23119                       0.97009
                       0.07450                      -0.23145                       0.96999
                       0.07526                      -0.23178                       0.96985
                       0.07652                      -0.23231                       0.96963
                       0.07846                      -0.23306                       0.96929
                       0.08082                      -0.23385                       0.96891
                       0.08362                      -0.23466                       0.96847
                       0.08690                      -0.23547                       0.96799
                       0.09069                      -0.23627                       0.96745
                       0.09501                      -0.23700                       0.96685
                       0.09971                      -0.23765                       0.96622
                       0.10460                      -0.23819                       0.96557
                       0.10936                      -0.23862                       0.96494
                       0.11348                      -0.23892                       0.96439
                       0.11592                      -0.23906                       0.96406
                       0.11685                      -0.23912                       0.96393
                       0.11692                      -0.23914                       0.96392
                       0.11659                      -0.23914                       0.96396
        </DataArray>
      </PointData>
      <Lines>
        <DataArray type="Int32" Name="connectivity" format="ascii">
      0      1
      1      2
      2      3
      3      4
      4      5
      5      6
      6      7
      7      8
      8      9
      9     10
     10     11
     11     12
     12     13
     13     14
     14     15
     15     16
     16     17
     17     18
        </DataArray>
        <DataArray type="Int32" Name="offsets" format="ascii">
      2
      4
      6
      8
     10
     12
     14
     16
     18
     20
     22
     24
     26
     28
     30
     32
     34
     36
        </DataArray>
      </Lines>
    </Piece>
  </PolyData>
</VTKFile>
