<?xml version="1.0"?>
<VTKFile type="PolyData" version="0.1" byte_order="LittleEndian">
  <PolyData>
    <Piece NumberOfPoints="     17" NumberOfVerts="  0" NumberOfLines="      0"
           NumberOfStrips="  0" NumberOfPolys="      0">
      <Points>
        <DataArray type="Float32" NumberOfComponents="3" format="ascii">
                       2.57644                       0.79609                      86.99790
                       1.98494                       1.70702                      83.54715
                       1.40067                       2.62108                      80.09600
                       0.82650                       3.53924                      76.64424
                       0.26489                       4.46205                      73.19165
                      -0.28151                       5.38983                      69.73796
                      -0.80948                       6.32278                      66.28281
                      -1.31506                       7.26110                      62.82576
                      -1.79357                       8.20488                      59.36636
                      -2.23978                       9.15403                      55.90413
                      -2.64842                      10.10824                      52.43865
                      -3.01477                      11.06696                      48.96971
                      -3.33558                      12.02941                      45.49729
                      -3.61015                      12.99470                      42.02167
                      -3.84165                      13.96187                      38.54341
                      -4.03867                      14.93003                      35.06325
                      -4.21694                      15.89855                      31.58214
        </DataArray>
      </Points>
      <PointData>
        <DataArray type="Float32" Name="Force" NumberOfComponents="3" format="ascii">
                     140.41163                     -53.03203                     -38.12018
                     474.69048                    -181.61198                    -128.24446
                    1740.53822                     606.56719                    -130.20288
                    2929.53883                    1019.01884                    -210.72049
                    1821.49581                     560.25376                    -144.15902
                    4061.75540                    1104.61654                    -342.62758
                    5074.06347                    1194.76375                    -446.01935
                    5798.57367                    1168.69506                    -517.09738
                    6386.91414                    1122.90572                    -555.31740
                    8247.04745                    1263.18798                    -679.81730
                    9667.73835                    1298.35426                    -726.05819
                   11189.07494                    1358.12546                    -727.17415
                    6451.28700                     720.03574                    -368.16358
                   12865.49254                    1298.00824                    -635.70600
                   12325.97481                    1078.68105                    -511.11215
                   17254.94509                    1206.54528                    -638.25071
                    7016.92086                     312.92647                    -281.49293
        </DataArray>
        <DataArray type="Float32" Name="Moment" NumberOfComponents="3" format="ascii">
                     -17.10113                     -17.00241                      -5.45082
                      83.51749                    -293.54715                    -136.67045
                     638.81539                   -1675.09192                    -700.05280
                     630.24943                   -2199.01979                    -926.93197
                      27.81700                    -179.00479                    -128.52922
                    -518.59894                    1811.71571                     594.77809
                    -292.45322                    1155.08058                     799.62373
                      48.68773                    -242.02563                    1065.85648
                     166.41677                    -957.22387                     938.80139
                     232.84514                   -1761.53574                     598.11484
                     455.83903                   -3969.79668                    -213.66434
                     693.43047                   -6912.24941                   -1661.99093
                     -50.21879                     426.58025                     158.22556
                    -785.86213                    8408.31543                    2440.16402
                    -645.16097                    7763.26363                    2237.53283
                    -248.74584                    1322.71445                     510.13077
                     -95.65841                    -232.93740                     157.62190
        </DataArray>
      </PointData>
    </Piece>
  </PolyData>
</VTKFile>
