<?xml version="1.0"?>
<VTKFile type="PolyData" version="0.1" byte_order="LittleEndian">
  <PolyData>
    <Piece NumberOfPoints="     19" NumberOfVerts="  0" NumberOfLines="     18"
           NumberOfStrips="  0" NumberOfPolys="      0">
      <Points>
        <DataArray type="Float32" NumberOfComponents="3" format="ascii">
                       3.14510                      -0.68762                      91.46214
                       3.23419                      -1.30570                      92.67784
                       3.38583                      -2.62622                      95.06845
                       3.52786                      -3.98761                      97.43908
                       3.70476                      -5.71529                     100.38929
                       3.99020                      -7.66531                     103.98606
                       4.32420                      -9.50419                     107.63524
                       4.67766                     -11.34544                     111.28141
                       5.05826                     -13.18774                     114.92434
                       5.47138                     -15.03294                     118.56229
                       5.91800                     -16.88367                     122.19346
                       6.40962                     -18.73873                     125.81663
                       6.95164                     -20.59728                     129.43081
                       7.54666                     -22.45828                     133.03542
                       8.19479                     -24.32064                     136.63019
                       8.76874                     -25.87291                     139.61947
                       9.24492                     -27.10760                     142.01128
                       9.72745                     -28.29348                     144.42767
                       9.96577                     -28.92339                     145.61682
        </DataArray>
      </Points>
      <PointData>
        <DataArray type="Float32" Name="Force" NumberOfComponents="3" format="ascii">
                       0.19932                       3.23764                       1.62064
                      70.06915                      23.47307                       6.67016
                      88.89751                      54.79888                      20.99228
                      80.34420                      71.51649                      29.95124
                     672.02139                    -260.03763                    -185.11396
                     871.69204                    -294.12843                    -222.16541
                     975.81153                    -265.37987                    -221.71838
                    1207.10596                    -268.45959                    -252.06037
                    1231.78428                    -212.50218                    -236.18089
                    1329.94759                    -178.56834                    -242.48122
                    1536.90441                    -144.15611                    -267.24136
                    1570.90225                     -90.36003                    -265.98174
                    1675.15665                     -53.29728                    -287.05674
                    1546.92575                      -2.75111                    -265.18387
                    1377.94408                      36.41976                    -235.74248
                    1084.73175                      57.30782                    -180.62340
                    1111.45673                      69.71316                    -183.99099
                     989.13050                      57.21722                    -167.59238
                    1302.29398                      53.90734                    -231.07448
        </DataArray>
        <DataArray type="Float32" Name="Moment" NumberOfComponents="3" format="ascii">
                       0.00000                       0.00000                       0.00000
                       0.00000                       0.00000                       0.00000
                       0.00000                       0.00000                       0.00000
                       0.00000                       0.00000                       0.00000
                     -12.44378                      78.76015                    -155.81261
                     -29.86032                     179.32175                    -354.56745
                     -42.70498                     241.25383                    -476.71248
                     -65.32241                     344.01617                    -679.22421
                     -97.99629                     476.44996                    -939.77520
                    -120.85929                     537.32779                   -1058.58196
                    -144.83305                     583.37235                   -1147.61894
                    -170.95158                     621.62703                   -1220.82989
                    -153.88004                     505.99958                    -991.93481
                    -165.27782                     495.35710                    -969.27199
                    -170.92692                     473.97674                    -925.86461
                    -172.86226                     457.61121                    -892.93234
                    -154.04271                     399.50880                    -779.17288
                     -78.62492                     202.51505                    -394.90431
                     -77.32559                     199.59452                    -389.22963
        </DataArray>
        <DataArray type="Float32" Name="TranslationalVelocity" NumberOfComponents="3" format="ascii">
                       0.21772                      -1.27973                      -0.57708
                       0.15965                      -2.41192                      -1.14845
                       0.03426                      -4.63618                      -2.36915
                      -0.09331                      -6.84268                      -3.62877
                      -0.25017                      -9.59203                      -5.22975
                      -0.41415                     -12.95731                      -7.04192
                      -0.55101                     -16.38361                      -8.75669
                      -0.66866                     -19.81697                     -10.47977
                      -0.75815                     -23.25875                     -12.21167
                      -0.80724                     -26.70845                     -13.95645
                      -0.80773                     -30.16368                     -15.71804
                      -0.73846                     -33.62484                     -17.50003
                      -0.58360                     -37.08996                     -19.30551
                      -0.33160                     -40.55625                     -21.13690
                       0.02037                     -44.02059                     -22.99514
                       0.38128                     -46.90468                     -24.56187
                       0.70727                     -49.21326                     -25.81822
                       1.05397                     -51.54551                     -27.03172
                       1.22416                     -52.69328                     -27.67364
        </DataArray>
        <DataArray type="Float32" Name="RotationalVelocity" NumberOfComponents="3" format="ascii">
                       0.92276                       0.00956                      -0.11333
                       0.92301                       0.00980                      -0.11322
                       0.92370                       0.01056                      -0.11289
                       0.92459                       0.01164                      -0.11241
                       0.92599                       0.01343                      -0.11161
                       0.92793                       0.01616                      -0.11038
                       0.93008                       0.01977                      -0.10871
                       0.93250                       0.02485                      -0.10632
                       0.93526                       0.03211                      -0.10286
                       0.93837                       0.04224                      -0.09797
                       0.94179                       0.05613                      -0.09121
                       0.94533                       0.07347                      -0.08271
                       0.94879                       0.09369                      -0.07275
                       0.95197                       0.11545                      -0.06199
                       0.95461                       0.13651                      -0.05155
                       0.95618                       0.15092                      -0.04439
                       0.95692                       0.15847                      -0.04063
                       0.95727                       0.16240                      -0.03867
                       0.95729                       0.16281                      -0.03846
        </DataArray>
        <DataArray type="Float32" Name="TranslationalAcceleration" NumberOfComponents="3" format="ascii">
                       0.18198                       0.61969                      -1.32748
                       0.00490                       1.17426                      -2.35828
                      -0.34324                       2.35482                      -4.38355
                      -0.69062                       3.56942                      -6.39539
                      -1.12957                       5.10932                      -8.90740
                      -1.66678                       6.84872                     -11.99252
                      -2.21811                       8.48852                     -15.14552
                      -2.81705                      10.13346                     -18.30962
                      -3.55696                      11.79636                     -21.47018
                      -4.58764                      13.49598                     -24.60075
                      -6.04220                      15.24440                     -27.67366
                      -8.17760                      17.05392                     -30.64219
                     -11.21912                      18.92231                     -33.45677
                     -15.35011                      20.83637                     -36.06909
                     -20.65657                      22.77505                     -38.44305
                     -25.90842                      24.39399                     -40.24320
                     -30.58092                      25.67769                     -41.58447
                     -35.48256                      26.91629                     -42.90891
                     -37.96343                      27.56798                     -43.54614
        </DataArray>
        <DataArray type="Float32" Name="OrientationX" NumberOfComponents="3" format="ascii">
                       0.95693                      -0.22467                      -0.18389
                       0.95690                      -0.22448                      -0.18426
                       0.95682                      -0.22396                      -0.18530
                       0.95671                      -0.22324                      -0.18672
                       0.95653                      -0.22204                      -0.18908
                       0.96477                      -0.19255                      -0.17926
                       0.96994                      -0.17026                      -0.17385
                       0.97388                      -0.14995                      -0.17053
                       0.97748                      -0.12798                      -0.16781
                       0.98053                      -0.10470                      -0.16610
                       0.98267                      -0.08158                      -0.16645
                       0.98407                      -0.05788                      -0.16812
                       0.98455                      -0.03537                      -0.17148
                       0.98408                      -0.01676                      -0.17692
                       0.98341                       0.00111                      -0.18137
                       0.98302                       0.01492                      -0.18288
                       0.98299                       0.02416                      -0.18204
                       0.98306                       0.02880                      -0.18098
                       0.98313                       0.02863                      -0.18066
        </DataArray>
        <DataArray type="Float32" Name="OrientationY" NumberOfComponents="3" format="ascii">
                       0.28283                       0.86437                       0.41578
                       0.28284                       0.86435                       0.41581
                       0.28284                       0.86431                       0.41589
                       0.28285                       0.86426                       0.41599
                       0.28286                       0.86418                       0.41614
                       0.25223                       0.87070                       0.42222
                       0.22999                       0.87476                       0.42650
                       0.21049                       0.87786                       0.43017
                       0.18981                       0.88070                       0.43397
                       0.16847                       0.88314                       0.43782
                       0.14824                       0.88497                       0.44142
                       0.12815                       0.88632                       0.44499
                       0.10995                       0.88710                       0.44828
                       0.09617                       0.88740                       0.45085
                       0.08262                       0.88745                       0.45343
                       0.07130                       0.88732                       0.45561
                       0.06287                       0.88713                       0.45722
                       0.05835                       0.88700                       0.45807
                       0.05834                       0.88700                       0.45807
        </DataArray>
        <DataArray type="Float32" Name="OrientationZ" NumberOfComponents="3" format="ascii">
                       0.06554                      -0.44988                       0.89068
                       0.06592                      -0.45000                       0.89059
                       0.06701                      -0.45035                       0.89034
                       0.06851                      -0.45080                       0.88999
                       0.07100                      -0.45153                       0.88942
                       0.07478                      -0.45256                       0.88859
                       0.07946                      -0.45366                       0.88762
                       0.08519                      -0.45483                       0.88649
                       0.09225                      -0.45605                       0.88516
                       0.10085                      -0.45728                       0.88359
                       0.11129                      -0.45844                       0.88173
                       0.12325                      -0.45945                       0.87961
                       0.13626                      -0.46021                       0.87729
                       0.14945                      -0.46069                       0.87489
                       0.16146                      -0.46090                       0.87264
                       0.16907                      -0.46091                       0.87119
                       0.17254                      -0.46089                       0.87052
                       0.17373                      -0.46088                       0.87029
                       0.17336                      -0.46089                       0.87036
        </DataArray>
      </PointData>
      <Lines>
        <DataArray type="Int32" Name="connectivity" format="ascii">
      0      1
      1      2
      2      3
      3      4
      4      5
      5      6
      6      7
      7      8
      8      9
      9     10
     10     11
     11     12
     12     13
     13     14
     14     15
     15     16
     16     17
     17     18
        </DataArray>
        <DataArray type="Int32" Name="offsets" format="ascii">
      2
      4
      6
      8
     10
     12
     14
     16
     18
     20
     22
     24
     26
     28
     30
     32
     34
     36
        </DataArray>
      </Lines>
    </Piece>
  </PolyData>
</VTKFile>
