<?xml version="1.0"?>
<VTKFile type="PolyData" version="0.1" byte_order="LittleEndian">
  <PolyData>
    <Piece NumberOfPoints="     17" NumberOfVerts="  0" NumberOfLines="      0"
           NumberOfStrips="  0" NumberOfPolys="      0">
      <Points>
        <DataArray type="Float32" NumberOfComponents="3" format="ascii">
                       2.85761                       3.28040                      89.84155
                       2.66569                       6.87946                      89.52959
                       2.48103                      10.47846                      89.21273
                       2.30633                      14.07743                      88.88981
                       2.14370                      17.67633                      88.56007
                       1.99540                      21.27518                      88.22299
                       1.86440                      24.87397                      87.87836
                       1.75461                      28.47274                      87.52615
                       1.67086                      32.07145                      87.16637
                       1.61867                      35.66997                      86.79893
                       1.60380                      39.26801                      86.42363
                       1.63152                      42.86511                      86.04021
                       1.70567                      46.46065                      85.64843
                       1.82754                      50.05399                      85.24837
                       1.99444                      53.64470                      84.84059
                       2.19807                      57.23284                      84.42648
                       2.42268                      60.81934                      84.00870
        </DataArray>
      </Points>
      <PointData>
        <DataArray type="Float32" Name="Force" NumberOfComponents="3" format="ascii">
                     149.24473                       2.04694                     -69.91357
                     485.55959                       3.84005                    -244.28497
                    2002.63457                     134.05403                     432.01478
                    3516.17678                     234.94376                     870.06461
                    2129.62113                     129.50035                     453.62301
                    4468.17940                     236.34927                     740.09861
                    5175.39214                     223.90558                     613.90089
                    5443.43263                     176.84894                     413.13477
                    5517.48212                     115.89709                     227.06001
                    6528.78383                      53.18464                      55.38110
                    6856.91001                     -44.71372                    -151.74104
                    7092.14210                    -157.28993                    -332.72309
                    3666.73371                    -126.08666                    -243.06211
                    6407.96100                    -301.63449                    -559.54218
                    5162.98779                    -317.57024                    -577.36513
                    6340.57254                    -468.40319                    -847.05016
                    3283.98525                    -257.10064                    -445.76192
        </DataArray>
        <DataArray type="Float32" Name="Moment" NumberOfComponents="3" format="ascii">
                     -19.44128                       1.66273                     -15.91835
                      65.77057                      32.65817                    -357.01973
                     559.79525                     213.34542                   -2115.32434
                     656.65633                     578.10317                   -2912.70389
                       5.32151                     357.37930                    -252.37662
                    -498.81157                     574.47842                    2157.79390
                    -294.46052                     -37.08793                    1502.12979
                    -117.47894                   -1016.73029                     338.82606
                     -73.70531                   -1416.90426                    -245.74004
                    -102.18631                   -1763.35269                    -775.72272
                    -166.87335                   -2178.93021                   -2239.21503
                    -308.82852                   -2012.51514                   -4023.66165
                     -20.29047                    -771.48987                     402.88552
                     296.11729                   -1195.45502                    4893.69404
                     294.69831                   -1333.69438                    3859.98223
                    -118.82375                   -2290.87064                     686.93935
                    -162.81469                    -800.16055                    -783.67947
        </DataArray>
      </PointData>
    </Piece>
  </PolyData>
</VTKFile>
