<?xml version="1.0"?>
<VTKFile type="PolyData" version="0.1" byte_order="LittleEndian">
  <PolyData>
    <Piece NumberOfPoints="     19" NumberOfVerts="  0" NumberOfLines="     18"
           NumberOfStrips="  0" NumberOfPolys="      0">
      <Points>
        <DataArray type="Float32" NumberOfComponents="3" format="ascii">
                       3.17071                      -3.11431                      91.36846
                       3.18599                      -6.48075                      92.69293
                       3.20891                      -9.84864                      94.01360
                       3.24252                     -13.21843                      95.32916
                       3.28947                     -16.59038                      96.63875
                       3.35258                     -19.96462                      97.94175
                       3.43510                     -23.34121                      99.23755
                       3.54091                     -26.72015                     100.52546
                       3.67448                     -30.10136                     101.80481
                       3.84072                     -33.48458                     103.07495
                       4.04450                     -36.86936                     104.33538
                       4.29003                     -40.25508                     105.58583
                       4.58007                     -43.64092                     106.82634
                       4.91482                     -47.02611                     108.05742
                       5.29077                     -50.41002                     109.28021
                       5.69919                     -53.79249                     110.49672
                       6.12454                     -57.17405                     111.71003
                       6.33903                     -58.86472                     112.31634
                       3.16456                      -1.43139                      90.70547
        </DataArray>
      </Points>
      <PointData>
        <DataArray type="Float32" Name="TranslationalVelocity" NumberOfComponents="3" format="ascii">
                      -0.64134                      -1.12233                      -2.81322
                      -1.04205                      -2.33656                      -5.89484
                      -1.44314                      -3.55176                      -8.98683
                      -1.84426                      -4.76800                     -12.09198
                      -2.24476                      -5.98532                     -15.21201
                      -2.64334                      -7.20373                     -18.34792
                      -3.03800                      -8.42313                     -21.50034
                      -3.42596                      -9.64324                     -24.66961
                      -3.80368                     -10.86371                     -27.85587
                      -4.16699                     -12.08404                     -31.05900
                      -4.51146                     -13.30364                     -34.27859
                      -4.83285                     -14.52176                     -37.51387
                      -5.12774                     -15.73761                     -40.76360
                      -5.39431                     -16.95042                     -44.02613
                      -5.63324                     -18.15977                     -47.29927
                      -5.84886                     -19.36594                     -50.58018
                      -6.05030                     -20.57023                     -53.86538
                      -6.14896                     -21.17215                     -55.50857
                      -0.44111                      -0.51544                      -1.27458
        </DataArray>
        <DataArray type="Float32" Name="RotationalVelocity" NumberOfComponents="3" format="ascii">
                       0.91429                      -0.00538                      -0.11686
                       0.91655                      -0.00541                      -0.11696
                       0.91968                      -0.00541                      -0.11698
                       0.92336                      -0.00536                      -0.11689
                       0.92736                      -0.00521                      -0.11655
                       0.93156                      -0.00490                      -0.11579
                       0.93587                      -0.00435                      -0.11442
                       0.94024                      -0.00347                      -0.11224
                       0.94462                      -0.00220                      -0.10905
                       0.94897                      -0.00049                      -0.10474
                       0.95322                       0.00167                      -0.09930
                       0.95727                       0.00423                      -0.09285
                       0.96104                       0.00706                      -0.08569
                       0.96436                       0.00997                      -0.07834
                       0.96706                       0.01264                      -0.07158
                       0.96888                       0.01467                      -0.06645
                       0.96954                       0.01550                      -0.06435
                       0.96954                       0.01554                      -0.06425
                       0.91341                      -0.00534                      -0.11677
        </DataArray>
        <DataArray type="Float32" Name="TranslationalAcceleration" NumberOfComponents="3" format="ascii">
                      -1.58131                       2.91048                      -1.23512
                      -1.75253                       5.81313                      -2.25979
                      -1.92006                       8.71759                      -3.32925
                      -2.07992                      11.62443                      -4.45532
                      -2.22715                      14.53418                      -5.64544
                      -2.35725                      17.44761                      -6.90317
                      -2.46799                      20.36591                      -8.22875
                      -2.56021                      23.29064                      -9.61976
                      -2.63799                      26.22360                     -11.07160
                      -2.70853                      29.16644                     -12.57810
                      -2.78182                      32.12041                     -14.13186
                      -2.86969                      35.08597                     -15.72469
                      -2.98465                      38.06262                     -17.34789
                      -3.13829                      41.04882                     -18.99260
                      -3.33929                      44.04210                     -20.65032
                      -3.59112                      47.03927                     -22.31361
                      -3.88944                      50.03707                     -23.97654
                      -4.04910                      51.53574                     -24.80728
                      -1.49520                       1.45952                      -0.73221
        </DataArray>
        <DataArray type="Float32" Name="RotationalAcceleration" NumberOfComponents="3" format="ascii">
                      -0.03123                      -0.07618                       0.01610
                      -0.02095                      -0.07593                       0.01665
                      -0.00675                      -0.07535                       0.01802
                       0.01011                      -0.07428                       0.02060
                       0.02845                      -0.07268                       0.02452
                       0.04727                      -0.07070                       0.02940
                       0.06579                      -0.06865                       0.03444
                       0.08339                      -0.06687                       0.03882
                       0.09960                      -0.06568                       0.04171
                       0.11415                      -0.06540                       0.04231
                       0.12688                      -0.06628                       0.03998
                       0.13772                      -0.06845                       0.03439
                       0.14665                      -0.07192                       0.02552
                       0.15363                      -0.07649                       0.01388
                       0.15857                      -0.08174                       0.00053
                       0.16128                      -0.08699                      -0.01282
                       0.16142                      -0.09128                      -0.02370
                       0.16078                      -0.09304                      -0.02816
                      -0.03523                      -0.07624                       0.01597
        </DataArray>
        <DataArray type="Float32" Name="OrientationX" NumberOfComponents="3" format="ascii">
                       0.93922                      -0.12285                      -0.32057
                       0.93922                      -0.12113                      -0.32125
                       0.93920                      -0.11844                      -0.32230
                       0.94365                      -0.11041                      -0.31199
                       0.95339                      -0.09552                      -0.28623
                       0.95847                      -0.08445                      -0.27239
                       0.96327                      -0.07237                      -0.25860
                       0.96794                      -0.05884                      -0.24421
                       0.97221                      -0.04398                      -0.22995
                       0.97581                      -0.02814                      -0.21682
                       0.97885                      -0.01120                      -0.20428
                       0.98120                       0.00631                      -0.19288
                       0.98254                       0.02303                      -0.18461
                       0.98334                       0.03878                      -0.17758
                       0.98403                       0.05299                      -0.16992
                       0.98484                       0.06409                      -0.16120
                       0.98560                       0.06873                      -0.15447
                       0.98597                       0.06900                      -0.15197
                       0.93923                      -0.12343                      -0.32034
        </DataArray>
        <DataArray type="Float32" Name="OrientationY" NumberOfComponents="3" format="ascii">
                       0.34329                       0.34535                       0.87343
                       0.34329                       0.34509                       0.87354
                       0.34329                       0.34473                       0.87368
                       0.33076                       0.34584                       0.87806
                       0.30137                       0.34859                       0.88750
                       0.28449                       0.34973                       0.89261
                       0.26731                       0.35068                       0.89753
                       0.24906                       0.35149                       0.90245
                       0.23049                       0.35207                       0.90715
                       0.21266                       0.35235                       0.91139
                       0.19505                       0.35235                       0.91532
                       0.17835                       0.35207                       0.91882
                       0.16490                       0.35159                       0.92152
                       0.15299                       0.35097                       0.92381
                       0.14104                       0.35022                       0.92599
                       0.12916                       0.34938                       0.92804
                       0.12133                       0.34879                       0.92931
                       0.11890                       0.34862                       0.92969
                       0.34329                       0.34545                       0.87339
        </DataArray>
        <DataArray type="Float32" Name="OrientationZ" NumberOfComponents="3" format="ascii">
                       0.00340                      -0.93040                       0.36653
                       0.00504                      -0.93072                       0.36569
                       0.00763                      -0.93120                       0.36443
                       0.01095                      -0.93177                       0.36287
                       0.01501                      -0.93239                       0.36113
                       0.01988                      -0.93304                       0.35923
                       0.02573                      -0.93369                       0.35715
                       0.03274                      -0.93434                       0.35488
                       0.04106                      -0.93494                       0.35242
                       0.05075                      -0.93545                       0.34981
                       0.06173                      -0.93580                       0.34708
                       0.07370                      -0.93595                       0.34433
                       0.08613                      -0.93587                       0.34165
                       0.09815                      -0.93558                       0.33919
                       0.10857                      -0.93517                       0.33715
                       0.11580                      -0.93479                       0.33580
                       0.11775                      -0.93468                       0.33543
                       0.11713                      -0.93472                       0.33553
                       0.00286                      -0.93028                       0.36683
        </DataArray>
      </PointData>
      <Lines>
        <DataArray type="Int32" Name="connectivity" format="ascii">
      0      1
      1      2
      2      3
      3      4
      4      5
      5      6
      6      7
      7      8
      8      9
      9     10
     10     11
     11     12
     12     13
     13     14
     14     15
     15     16
     16     17
     18      0
        </DataArray>
        <DataArray type="Int32" Name="offsets" format="ascii">
      2
      4
      6
      8
     10
     12
     14
     16
     18
     20
     22
     24
     26
     28
     30
     32
     34
     36
        </DataArray>
      </Lines>
    </Piece>
  </PolyData>
</VTKFile>
