<?xml version="1.0"?>
<VTKFile type="PolyData" version="0.1" byte_order="LittleEndian">
  <PolyData>
    <Piece NumberOfPoints="     19" NumberOfVerts="  0" NumberOfLines="     18"
           NumberOfStrips="  0" NumberOfPolys="      0">
      <Points>
        <DataArray type="Float32" NumberOfComponents="3" format="ascii">
                       2.35499                       2.40262                      87.91731
                       1.91548                       5.05220                      85.49369
                       1.48371                       7.70143                      83.06830
                       1.06259                      10.35036                      80.64072
                       0.65452                      12.99902                      78.21061
                       0.26208                      15.64741                      75.77766
                      -0.11147                      18.29570                      73.34161
                      -0.46195                      20.94410                      70.90228
                      -0.78424                      23.59281                      68.45942
                      -1.07256                      26.24190                      66.01274
                      -1.32096                      28.89121                      63.56194
                      -1.52400                      31.54032                      61.10677
                      -1.67778                      34.18857                      58.64710
                      -1.78111                      36.83526                      56.18308
                      -1.83703                      39.47981                      53.71519
                      -1.85450                      42.12213                      51.24424
                      -1.85032                      44.76298                      48.77158
                      -1.84547                      46.08320                      47.53503
                       2.57625                       1.07774                      89.12874
        </DataArray>
      </Points>
      <PointData>
        <DataArray type="Float32" Name="TranslationalVelocity" NumberOfComponents="3" format="ascii">
                      -0.25301                       2.06265                       2.20787
                       0.07015                       4.35979                       4.66057
                       0.39748                       6.66751                       7.12300
                       0.73106                       8.98846                       9.59772
                       1.07303                      11.32424                      12.08615
                       1.42490                      13.67550                      14.58888
                       1.78694                      16.04201                      17.10607
                       2.15786                      18.42283                      19.63766
                       2.53484                      20.81657                      22.18338
                       2.91358                      23.22163                      24.74276
                       3.28858                      25.63642                      27.31511
                       3.65364                      28.05956                      29.89939
                       4.00249                      30.48992                      32.49417
                       4.32964                      32.92660                      35.09766
                       4.63147                      35.36880                      37.70775
                       4.90748                      37.81561                      40.32230
                       5.16170                      40.26549                      42.93936
                       5.28421                      41.49095                      44.24829
                      -0.41380                       0.91633                       0.98356
        </DataArray>
        <DataArray type="Float32" Name="RotationalVelocity" NumberOfComponents="3" format="ascii">
                       0.92619                      -0.01255                      -0.10988
                       0.92942                      -0.01286                      -0.11081
                       0.93384                      -0.01342                      -0.11224
                       0.93903                      -0.01433                      -0.11419
                       0.94459                      -0.01559                      -0.11658
                       0.95023                      -0.01702                      -0.11919
                       0.95575                      -0.01837                      -0.12167
                       0.96100                      -0.01934                      -0.12370
                       0.96593                      -0.01966                      -0.12496
                       0.97049                      -0.01908                      -0.12516
                       0.97470                      -0.01742                      -0.12411
                       0.97860                      -0.01460                      -0.12175
                       0.98216                      -0.01071                      -0.11814
                       0.98535                      -0.00597                      -0.11354
                       0.98804                      -0.00086                      -0.10844
                       0.99001                       0.00392                      -0.10357
                       0.99093                       0.00740                      -0.09994
                       0.99106                       0.00867                      -0.09858
                       0.92492                      -0.01245                      -0.10954
        </DataArray>
        <DataArray type="Float32" Name="TranslationalAcceleration" NumberOfComponents="3" format="ascii">
                       0.93414                      -2.18799                       1.96846
                       1.16368                      -4.42379                       4.18508
                       1.40875                      -6.67882                       6.41833
                       1.67552                      -8.95800                       8.67271
                       1.96902                     -11.26450                      10.95098
                       2.29078                     -13.60036                      13.25418
                       2.63725                     -15.96705                      15.58206
                       2.99892                     -18.36555                      17.93353
                       3.36028                     -20.79625                      20.30700
                       3.70051                     -23.25857                      22.70081
                       3.99501                     -25.75056                      25.11349
                       4.21766                     -28.26843                      27.54388
                       4.34391                     -30.80648                      29.99104
                       4.35464                     -33.35753                      32.45385
                       4.24084                     -35.91397                      34.93087
                       4.00906                     -38.46942                      37.42015
                       3.68766                     -41.02090                      39.91844
                       3.50967                     -42.29556                      41.16931
                       0.82249                      -1.07413                       0.86364
        </DataArray>
        <DataArray type="Float32" Name="RotationalAcceleration" NumberOfComponents="3" format="ascii">
                       0.03172                      -0.00434                       0.00309
                       0.03126                      -0.00641                       0.00091
                       0.03071                      -0.00951                      -0.00238
                       0.03014                      -0.01370                      -0.00686
                       0.02945                      -0.01856                      -0.01205
                       0.02854                      -0.02329                      -0.01705
                       0.02741                      -0.02684                      -0.02073
                       0.02604                      -0.02809                      -0.02185
                       0.02454                      -0.02594                      -0.01922
                       0.02308                      -0.01953                      -0.01193
                       0.02190                      -0.00830                       0.00057
                       0.02124                       0.00779                       0.01828
                       0.02126                       0.02810                       0.04051
                       0.02199                       0.05125                       0.06569
                       0.02334                       0.07487                       0.09128
                       0.02500                       0.09551                       0.11357
                       0.02634                       0.10851                       0.12754
                       0.02683                       0.11242                       0.13173
                       0.03189                      -0.00352                       0.00396
        </DataArray>
        <DataArray type="Float32" Name="OrientationX" NumberOfComponents="3" format="ascii">
                       0.98198                       0.18727                       0.02545
                       0.98217                       0.18609                       0.02653
                       0.98248                       0.18424                       0.02823
                       0.98468                       0.17315                       0.02051
                       0.98871                       0.14982                       0.00015
                       0.99085                       0.13463                      -0.00980
                       0.99277                       0.11848                      -0.01920
                       0.99452                       0.10063                      -0.02845
                       0.99600                       0.08143                      -0.03681
                       0.99716                       0.06152                      -0.04341
                       0.99799                       0.04058                      -0.04867
                       0.99845                       0.01929                      -0.05228
                       0.99860                      -0.00029                      -0.05290
                       0.99845                      -0.01866                      -0.05247
                       0.99794                      -0.03590                      -0.05308
                       0.99715                      -0.05057                      -0.05592
                       0.99652                      -0.05819                      -0.05968
                       0.99631                      -0.05965                      -0.06166
                       0.98191                       0.18766                       0.02510
        </DataArray>
        <DataArray type="Float32" Name="OrientationY" NumberOfComponents="3" format="ascii">
                       0.14407                      -0.65455                      -0.74216
                       0.14414                      -0.65501                      -0.74175
                       0.14424                      -0.65563                      -0.74118
                       0.13126                      -0.65873                      -0.74084
                       0.10080                      -0.66451                      -0.74045
                       0.08342                      -0.66782                      -0.73963
                       0.06578                      -0.67087                      -0.73865
                       0.04707                      -0.67371                      -0.73749
                       0.02808                      -0.67618                      -0.73620
                       0.00986                      -0.67818                      -0.73483
                      -0.00813                      -0.67973                      -0.73342
                      -0.02518                      -0.68081                      -0.73203
                      -0.03891                      -0.68144                      -0.73084
                      -0.05109                      -0.68174                      -0.72981
                      -0.06329                      -0.68173                      -0.72886
                      -0.07539                      -0.68142                      -0.72800
                      -0.08333                      -0.68105                      -0.72748
                      -0.08578                      -0.68090                      -0.72733
                       0.14404                      -0.65437                      -0.74233
        </DataArray>
        <DataArray type="Float32" Name="OrientationZ" NumberOfComponents="3" format="ascii">
                      -0.12233                       0.73246                      -0.66973
                      -0.12065                       0.73235                      -0.67015
                      -0.11805                       0.73226                      -0.67071
                      -0.11476                       0.73219                      -0.67136
                      -0.11084                       0.73211                      -0.67211
                      -0.10613                       0.73205                      -0.67294
                      -0.10040                       0.73205                      -0.67382
                      -0.09338                       0.73211                      -0.67475
                      -0.08484                       0.73222                      -0.67576
                      -0.07465                       0.73232                      -0.67686
                      -0.06285                       0.73234                      -0.67803
                      -0.04972                       0.73221                      -0.67926
                      -0.03584                       0.73188                      -0.68049
                      -0.02215                       0.73136                      -0.68164
                      -0.01002                       0.73072                      -0.68261
                      -0.00129                       0.73014                      -0.68329
                       0.00169                       0.72992                      -0.68353
                       0.00140                       0.72994                      -0.68351
                      -0.12288                       0.73252                      -0.66957
        </DataArray>
      </PointData>
      <Lines>
        <DataArray type="Int32" Name="connectivity" format="ascii">
      0      1
      1      2
      2      3
      3      4
      4      5
      5      6
      6      7
      7      8
      8      9
      9     10
     10     11
     11     12
     12     13
     13     14
     14     15
     15     16
     16     17
     18      0
        </DataArray>
        <DataArray type="Int32" Name="offsets" format="ascii">
      2
      4
      6
      8
     10
     12
     14
     16
     18
     20
     22
     24
     26
     28
     30
     32
     34
     36
        </DataArray>
      </Lines>
    </Piece>
  </PolyData>
</VTKFile>
