<?xml version="1.0"?>
<VTKFile type="PolyData" version="0.1" byte_order="LittleEndian">
  <PolyData>
    <Piece NumberOfPoints="     19" NumberOfVerts="  0" NumberOfLines="     18"
           NumberOfStrips="  0" NumberOfPolys="      0">
      <Points>
        <DataArray type="Float32" NumberOfComponents="3" format="ascii">
                       2.81199                      -1.17035                      89.19309
                       2.64928                      -2.23323                      88.34947
                       2.29315                      -4.29871                      86.59201
                       1.92325                      -6.33515                      84.80054
                       1.45403                      -8.86259                      82.53976
                       0.96021                     -11.98499                      79.92708
                       0.50732                     -15.18754                      77.40786
                       0.05845                     -18.38949                      74.88714
                      -0.38286                     -21.59211                      72.36582
                      -0.81669                     -24.79427                      69.84257
                      -1.24488                     -27.99400                      67.31522
                      -1.66512                     -31.19226                      64.78462
                      -2.07786                     -34.38925                      62.25114
                      -2.48417                     -37.58519                      59.71525
                      -2.88349                     -40.78029                      57.17713
                      -3.21251                     -43.44246                      55.06082
                      -3.47382                     -45.57693                      53.37341
                      -3.73179                     -47.74612                      51.72844
                      -3.86551                     -48.80429                      50.87405
        </DataArray>
      </Points>
      <PointData>
        <DataArray type="Float32" Name="Force" NumberOfComponents="3" format="ascii">
                       0.46344                      -3.09590                       3.83234
                      68.41106                     -22.66886                      15.57020
                      96.52562                     -49.11789                      43.71767
                      90.62465                     -60.13990                      58.86785
                     704.60264                     163.73636                    -340.93740
                     902.29714                     171.29051                    -386.20631
                    1050.68500                     159.69659                    -396.85355
                    1352.26895                     168.73151                    -460.39999
                    1449.93465                     142.58252                    -440.56907
                    1637.19867                     131.57518                    -454.55682
                    1959.39815                     121.94465                    -491.74325
                    2120.39194                     100.75421                    -484.49419
                    2378.44970                      92.19032                    -508.08782
                    2387.74270                      61.56710                    -462.63104
                    2346.92007                      28.56807                    -407.80846
                    2179.17751                      -3.46088                    -337.65554
                    2123.03881                     -22.81133                    -303.68297
                    1528.37116                     -31.10084                    -200.59264
                    1476.30617                     -38.52972                    -183.68616
        </DataArray>
        <DataArray type="Float32" Name="Moment" NumberOfComponents="3" format="ascii">
                       0.00000                       0.00000                       0.00000
                       0.00000                       0.00000                       0.00000
                       0.00000                       0.00000                       0.00000
                       0.00000                       0.00000                       0.00000
                      25.94581                     173.26612                     136.83288
                      52.65108                     355.12227                     280.51327
                      66.62029                     454.91650                     359.44128
                      91.00041                     630.54209                     498.36958
                     121.01125                     852.71683                     674.22099
                     130.99341                     940.71663                     744.10321
                     134.03862                     982.93834                     777.84314
                     136.33402                    1022.13062                     809.22646
                     107.93435                     827.45988                     655.39892
                     104.03602                     814.42046                     645.33663
                      98.99393                     788.41248                     624.93620
                      92.30548                     741.83971                     588.12190
                      86.77693                     698.96167                     554.15206
                      46.11065                     370.66506                     293.86021
                      48.24500                     386.77981                     306.62017
        </DataArray>
        <DataArray type="Float32" Name="TranslationalVelocity" NumberOfComponents="3" format="ascii">
                      -0.07245                       0.85030                      -1.05611
                      -0.19179                       1.64611                      -2.03573
                      -0.42091                       3.30830                      -3.94250
                      -0.63606                       5.01144                      -5.83300
                      -0.88009                       7.17603                      -8.19922
                      -1.14047                       9.69668                     -11.15619
                      -1.35032                      12.15237                     -14.23296
                      -1.48869                      14.63640                     -17.35664
                      -1.54547                      17.14700                     -20.52923
                      -1.51209                      19.68403                     -23.74880
                      -1.39242                      22.24538                     -27.00686
                      -1.17403                      24.83029                     -30.30580
                      -0.85833                      27.43567                     -33.64147
                      -0.45294                      30.05812                     -37.00870
                       0.02645                      32.69446                     -40.40085
                       0.46390                      34.89894                     -43.24086
                       0.82529                      36.65940                     -45.52323
                       1.17262                      38.37631                     -47.84158
                       1.34664                      39.26814                     -48.97337
        </DataArray>
        <DataArray type="Float32" Name="RotationalVelocity" NumberOfComponents="3" format="ascii">
                       0.92041                       0.00356                      -0.11102
                       0.92207                       0.00265                      -0.11018
                       0.92631                       0.00011                      -0.10779
                       0.93170                      -0.00335                      -0.10444
                       0.94014                      -0.00919                      -0.09866
                       0.95198                      -0.01825                      -0.08947
                       0.96470                      -0.02925                      -0.07798
                       0.97773                      -0.04190                      -0.06445
                       0.99064                      -0.05593                      -0.04917
                       1.00305                      -0.07100                      -0.03247
                       1.01455                      -0.08673                      -0.01476
                       1.02495                      -0.10241                       0.00310
                       1.03404                      -0.11727                       0.02018
                       1.04158                      -0.13028                       0.03521
                       1.04730                      -0.14016                       0.04663
                       1.05032                      -0.14466                       0.05174
                       1.05141                      -0.14503                       0.05200
                       1.05148                      -0.14276                       0.04911
                       1.05113                      -0.14058                       0.04642
        </DataArray>
        <DataArray type="Float32" Name="TranslationalAcceleration" NumberOfComponents="3" format="ascii">
                       0.59527                       0.88454                       1.22227
                       0.63531                       1.72526                       2.06045
                       0.73374                       3.36169                       3.78896
                       0.88504                       5.01374                       5.52291
                       1.18125                       7.14356                       7.66464
                       1.72724                       9.92235                      10.06345
                       2.54477                      12.94383                      12.26649
                       3.68785                      16.13822                      14.35286
                       5.19524                      19.50834                      16.32138
                       7.09363                      23.04902                      18.17908
                       9.35418                      26.73434                      19.94750
                      12.01614                      30.57144                      21.62894
                      15.05789                      34.54608                      23.23912
                      18.43326                      38.64039                      24.79468
                      22.06648                      42.83300                      26.31377
                      25.21286                      46.38026                      27.56353
                      27.75639                      49.24361                      28.55031
                      30.25139                      52.13371                      29.48179
                      31.47860                      53.55821                      29.99094
        </DataArray>
        <DataArray type="Float32" Name="OrientationX" NumberOfComponents="3" format="ascii">
                       0.94044                       0.11091                      -0.32135
                       0.94046                       0.11102                      -0.32126
                       0.94051                       0.11132                      -0.32102
                       0.94057                       0.11173                      -0.32070
                       0.94067                       0.11241                      -0.32017
                       0.95051                       0.09367                      -0.29625
                       0.95707                       0.08057                      -0.27845
                       0.96242                       0.06942                      -0.26253
                       0.96767                       0.05767                      -0.24553
                       0.97262                       0.04565                      -0.22786
                       0.97690                       0.03445                      -0.21089
                       0.98074                       0.02340                      -0.19393
                       0.98387                       0.01350                      -0.17838
                       0.98605                       0.00626                      -0.16633
                       0.98796                      -0.00115                      -0.15467
                       0.98936                      -0.00778                      -0.14525
                       0.99027                      -0.01305                      -0.13851
                       0.99070                      -0.01612                      -0.13509
                       0.99068                      -0.01633                      -0.13526
        </DataArray>
        <DataArray type="Float32" Name="OrientationY" NumberOfComponents="3" format="ascii">
                       0.31869                      -0.61667                       0.71983
                       0.31868                      -0.61674                       0.71977
                       0.31865                      -0.61692                       0.71963
                       0.31862                      -0.61714                       0.71946
                       0.31857                      -0.61747                       0.71920
                       0.28833                      -0.62120                       0.72868
                       0.26632                      -0.62368                       0.73491
                       0.24697                      -0.62566                       0.73997
                       0.22642                      -0.62747                       0.74499
                       0.20518                      -0.62904                       0.74981
                       0.18500                      -0.63027                       0.75401
                       0.16491                      -0.63123                       0.75786
                       0.14665                      -0.63190                       0.76105
                       0.13276                      -0.63232                       0.76325
                       0.11907                      -0.63258                       0.76528
                       0.10762                      -0.63267                       0.76691
                       0.09909                      -0.63264                       0.76808
                       0.09452                      -0.63260                       0.76869
                       0.09452                      -0.63260                       0.76869
        </DataArray>
        <DataArray type="Float32" Name="OrientationZ" NumberOfComponents="3" format="ascii">
                      -0.11833                      -0.77937                      -0.61529
                      -0.11822                      -0.77930                      -0.61540
                      -0.11793                      -0.77911                      -0.61569
                      -0.11753                      -0.77888                      -0.61606
                      -0.11685                      -0.77852                      -0.61664
                      -0.11578                      -0.77803                      -0.61746
                      -0.11445                      -0.77752                      -0.61836
                      -0.11289                      -0.77700                      -0.61930
                      -0.11110                      -0.77650                      -0.62025
                      -0.10911                      -0.77603                      -0.62119
                      -0.10694                      -0.77561                      -0.62209
                      -0.10468                      -0.77524                      -0.62293
                      -0.10245                      -0.77493                      -0.62369
                      -0.10039                      -0.77468                      -0.62433
                      -0.09873                      -0.77449                      -0.62483
                      -0.09786                      -0.77438                      -0.62510
                      -0.09766                      -0.77434                      -0.62519
                      -0.09785                      -0.77431                      -0.62519
                      -0.09811                      -0.77431                      -0.62516
        </DataArray>
      </PointData>
      <Lines>
        <DataArray type="Int32" Name="connectivity" format="ascii">
      0      1
      1      2
      2      3
      3      4
      4      5
      5      6
      6      7
      7      8
      8      9
      9     10
     10     11
     11     12
     12     13
     13     14
     14     15
     15     16
     16     17
     17     18
        </DataArray>
        <DataArray type="Int32" Name="offsets" format="ascii">
      2
      4
      6
      8
     10
     12
     14
     16
     18
     20
     22
     24
     26
     28
     30
     32
     34
     36
        </DataArray>
      </Lines>
    </Piece>
  </PolyData>
</VTKFile>
