<?xml version="1.0"?>
<VTKFile type="PolyData" version="0.1" byte_order="LittleEndian">
  <PolyData>
    <Piece NumberOfPoints="     17" NumberOfVerts="  0" NumberOfLines="      0"
           NumberOfStrips="  0" NumberOfPolys="      0">
      <Points>
        <DataArray type="Float32" NumberOfComponents="3" format="ascii">
                       2.76970                      -3.32347                      90.01492
                       2.59891                      -6.93421                      89.87098
                       2.43625                     -10.54511                      89.72161
                       2.28502                     -14.15619                      89.56506
                       2.14813                     -17.76748                      89.40018
                       2.02874                     -21.37895                      89.22621
                       1.93056                     -24.99057                      89.04242
                       1.85808                     -28.60223                      88.84808
                       1.81657                     -32.21375                      88.64250
                       1.81180                     -35.82480                      88.42514
                       1.84955                     -39.43490                      88.19567
                       1.93494                     -43.04339                      87.95412
                       2.07137                     -46.64952                      87.70095
                       2.25935                     -50.25260                      87.43715
                       2.49507                     -53.85226                      87.16431
                       2.76864                     -57.44880                      86.88485
                       3.06226                     -61.04356                      86.60204
        </DataArray>
      </Points>
      <PointData>
        <DataArray type="Float32" Name="Force" NumberOfComponents="3" format="ascii">
                     220.26526                     -13.91583                      86.40432
                     701.01400                     -40.90546                     238.14739
                    2238.44453                     -49.24666                   -1109.42370
                    3680.99514                     -66.32757                   -1851.52518
                    2235.96991                     -35.26291                   -1023.05256
                    4855.43197                     -60.48375                   -2021.43872
                    5898.56212                     -41.10359                   -2212.90484
                    6583.27030                       2.59176                   -2223.97522
                    7104.98307                      68.12131                   -2203.00755
                    9020.65221                     184.78827                   -2581.66002
                   10419.14070                     349.13283                   -2778.20406
                   11939.35817                     574.54769                   -3033.11326
                    6858.26401                     407.44889                   -1678.56615
                   13678.38394                     965.40384                   -3210.74390
                   13173.72080                    1088.44251                   -2933.91087
                   18631.42333                    1708.17616                   -3866.69037
                    7624.76524                     717.48121                   -1421.13035
        </DataArray>
        <DataArray type="Float32" Name="Moment" NumberOfComponents="3" format="ascii">
                     -17.72562                      -5.35615                      26.71851
                     207.46820                     -95.76346                     385.32220
                    1264.66774                    -505.62338                    2233.96902
                    1340.11093                    -706.12878                    2870.54787
                      75.41337                    -215.96926                     224.72264
                   -1072.50694                     -11.88291                   -2329.13819
                    -707.53771                     429.35761                   -1581.87397
                    -149.77612                    1133.44631                     -84.67491
                     109.57774                    1212.66817                     726.40936
                     341.55073                    1071.07128                    1644.98492
                     998.12493                     788.61170                    4136.01918
                    1860.88278                     -43.30523                    7509.03741
                    -140.95870                     110.39371                    -490.06684
                   -2291.29982                     684.14787                   -9268.27050
                   -2025.47670                     601.70567                   -8591.21107
                    -474.22542                     203.90679                   -1420.82335
                     -98.90308                     184.21087                     181.45558
        </DataArray>
      </PointData>
    </Piece>
  </PolyData>
</VTKFile>
