<?xml version="1.0"?>
<VTKFile type="PolyData" version="0.1" byte_order="LittleEndian">
  <PolyData>
    <Piece NumberOfPoints="     17" NumberOfVerts="  0" NumberOfLines="      0"
           NumberOfStrips="  0" NumberOfPolys="      0">
      <Points>
        <DataArray type="Float32" NumberOfComponents="3" format="ascii">
                       3.30325                      -2.31551                      92.51911
                       3.47715                      -4.82782                      95.11631
                       3.65827                      -7.34311                      97.71012
                       3.84952                      -9.86228                     100.29943
                       4.05346                     -12.38587                     102.88346
                       4.27282                     -14.91413                     105.46165
                       4.51084                     -17.44722                     108.03344
                       4.77137                     -19.98521                     110.59818
                       5.05891                     -22.52806                     113.15520
                       5.37838                     -25.07552                     115.70382
                       5.73468                     -27.62712                     118.24339
                       6.13209                     -30.18213                     120.77339
                       6.57341                     -32.73963                     123.29359
                       7.05895                     -35.29862                     125.80415
                       7.58532                     -37.85818                     128.30595
                       8.14397                     -40.41765                     130.80089
                       8.71962                     -42.97691                     133.29223
        </DataArray>
      </Points>
      <PointData>
        <DataArray type="Float32" Name="Force" NumberOfComponents="3" format="ascii">
                     174.40771                      60.25325                      46.65535
                     566.32272                     186.24524                     140.48928
                    1867.39217                    -525.16623                    -645.35946
                    3096.18199                    -890.14663                   -1102.35712
                    1859.48859                    -466.91217                    -605.49458
                    3962.76834                    -850.29307                   -1173.88314
                    4721.79890                    -836.78430                   -1268.33654
                    5159.91524                    -733.68902                   -1265.91058
                    5509.20695                    -629.55250                   -1271.05486
                    6983.10328                    -617.18222                   -1535.50058
                    8055.65486                    -527.61252                   -1726.76509
                    9363.36431                    -458.42241                   -2028.23227
                    5436.86686                    -198.81459                   -1188.75665
                   10986.62541                    -263.21792                   -2422.40589
                   10832.88578                    -116.85316                   -2414.80188
                   15946.01906                      17.68973                   -3559.28729
                    6972.21755                      82.60643                   -1512.13477
        </DataArray>
        <DataArray type="Float32" Name="Moment" NumberOfComponents="3" format="ascii">
                     -16.93139                      12.22516                      18.68763
                     152.28077                     197.09103                     270.05622
                     995.73741                    1132.86711                    1544.93141
                    1060.37557                    1463.91865                    1999.84054
                      60.24609                      45.64229                     220.04375
                    -794.99264                   -1364.99755                   -1372.23129
                    -568.92677                    -499.05223                   -1395.45439
                    -266.31725                     975.27003                   -1217.41362
                    -119.15337                    1608.97548                    -916.34045
                      -8.61808                    2234.70670                    -511.19073
                     363.15746                    3639.15404                     870.02476
                     945.31117                    5142.56044                    3335.62442
                    -137.78660                      50.49905                    -591.06844
                   -1416.77267                   -4749.79635                   -5729.28388
                   -1271.84138                   -4595.95277                   -5335.52961
                    -278.90391                     -62.67591                    -964.00388
                     -79.71142                     447.19432                      49.94247
        </DataArray>
      </PointData>
    </Piece>
  </PolyData>
</VTKFile>
