<?xml version="1.0"?>
<VTKFile type="PolyData" version="0.1" byte_order="LittleEndian">
  <PolyData>
    <Piece NumberOfPoints="     17" NumberOfVerts="  0" NumberOfLines="      0"
           NumberOfStrips="  0" NumberOfPolys="      0">
      <Points>
        <DataArray type="Float32" NumberOfComponents="3" format="ascii">
                       3.29363                      -2.05599                      92.73614
                       3.49501                      -4.28600                      95.57759
                       3.70399                      -6.51873                      98.41636
                       3.92360                      -8.75505                     101.25149
                       4.15645                     -10.99544                     104.08235
                       4.40535                     -13.24014                     106.90841
                       4.67356                     -15.48934                     109.72912
                       4.96503                     -17.74314                     112.54384
                       5.28435                     -20.00152                     115.35184
                       5.63655                     -22.26429                     118.15236
                       6.02666                     -24.53102                     120.94462
                       6.45906                     -26.80101                     123.72798
                       6.93663                     -29.07337                     126.50202
                       7.45969                     -31.34712                     129.26672
                       8.02475                     -33.62136                     132.02279
                       8.62308                     -35.89544                     134.77203
                       9.23897                     -38.16926                     137.51765
        </DataArray>
      </Points>
      <PointData>
        <DataArray type="Float32" Name="Force" NumberOfComponents="3" format="ascii">
                     170.00874                      64.04186                      38.27882
                     551.87971                     199.26028                     115.70153
                    1846.35217                    -559.20805                    -581.36415
                    3065.23901                    -950.81669                    -995.39383
                    1838.53389                    -498.10818                    -548.64205
                    3905.07025                    -901.93766                   -1064.53455
                    4620.63192                    -877.12033                   -1147.18499
                    4992.77697                    -753.73583                   -1136.74770
                    5264.93033                    -630.30626                   -1130.55028
                    6591.64806                    -596.63028                   -1351.94665
                    7479.77387                    -481.65349                   -1496.88982
                    8557.60023                    -386.49362                   -1729.71992
                    4901.07571                    -149.13387                    -998.19971
                    9765.66113                    -151.01677                   -2002.88054
                    9494.22520                      -4.24132                   -1970.65001
                   14040.06075                     153.79176                   -2945.87699
                    6493.63436                     106.95041                   -1359.79431
        </DataArray>
        <DataArray type="Float32" Name="Moment" NumberOfComponents="3" format="ascii">
                     -16.88927                      13.48131                      16.92370
                     147.12935                     221.86654                     245.22866
                     968.30246                    1272.38228                    1409.53851
                    1033.28017                    1636.10977                    1835.74144
                      59.59523                      58.38681                     223.25133
                    -767.75343                   -1499.03223                   -1192.49244
                    -557.83075                    -633.05227                   -1330.72710
                    -291.55617                     850.09995                   -1362.90746
                    -169.65706                    1526.06242                   -1193.36656
                     -99.64074                    2205.00198                    -969.66466
                     179.44669                    3682.04243                      67.39248
                     626.87592                    5268.16624                    2123.72405
                    -165.96569                     161.03306                    -771.81161
                   -1174.83701                   -4393.65993                   -5155.65911
                   -1023.31033                   -4145.82987                   -4751.60472
                    -291.73122                     545.75948                   -1261.99437
                     -68.75160                     663.64097                      -2.92391
        </DataArray>
      </PointData>
    </Piece>
  </PolyData>
</VTKFile>
