<?xml version="1.0"?>
<VTKFile type="PolyData" version="0.1" byte_order="LittleEndian">
  <PolyData>
    <Piece NumberOfPoints="     19" NumberOfVerts="  0" NumberOfLines="     18"
           NumberOfStrips="  0" NumberOfPolys="      0">
      <Points>
        <DataArray type="Float32" NumberOfComponents="3" format="ascii">
                       3.23940                      -0.03895                      93.41510
                       3.51686                      -0.08154                      97.02184
                       3.79434                      -0.12413                     100.62858
                       4.07184                      -0.16672                     104.23531
                       4.34937                      -0.20931                     107.84205
                       4.62693                      -0.25190                     111.44878
                       4.90453                      -0.29449                     115.05551
                       5.18217                      -0.33709                     118.66224
                       5.45985                      -0.37968                     122.26896
                       5.73758                      -0.42228                     125.87568
                       6.01536                      -0.46488                     129.48239
                       6.29319                      -0.50747                     133.08910
                       6.57107                      -0.55007                     136.69581
                       6.84900                      -0.59267                     140.30252
                       7.12696                      -0.63526                     143.90922
                       7.40496                      -0.67786                     147.51592
                       7.68295                      -0.72045                     151.12261
                       7.82195                      -0.74175                     152.92596
                       3.10067                      -0.01766                      91.61173
        </DataArray>
      </Points>
      <PointData>
        <DataArray type="Float32" Name="TranslationalVelocity" NumberOfComponents="3" format="ascii">
                      -0.00453                      -3.11630                      -0.03986
                      -0.01036                      -6.52397                      -0.07965
                      -0.01358                      -9.93171                      -0.11964
                      -0.01320                     -13.33961                      -0.15991
                      -0.00836                     -16.74771                      -0.20053
                       0.00166                     -20.15603                      -0.24155
                       0.01754                     -23.56456                      -0.28302
                       0.03992                     -26.97331                      -0.32500
                       0.06938                     -30.38227                      -0.36753
                       0.10642                     -33.79141                      -0.41065
                       0.15143                     -37.20067                      -0.45438
                       0.20456                     -40.60999                      -0.49873
                       0.26564                     -44.01927                      -0.54371
                       0.33409                     -47.42845                      -0.58924
                       0.40869                     -50.83748                      -0.63525
                       0.48748                     -54.24635                      -0.68159
                       0.56752                     -57.65510                      -0.72801
                       0.60742                     -59.35945                      -0.75121
                      -0.00111                      -1.41247                      -0.02000
        </DataArray>
        <DataArray type="Float32" Name="RotationalVelocity" NumberOfComponents="3" format="ascii">
                       0.93608                      -0.00056                      -0.11338
                       0.93609                       0.00001                      -0.11338
                       0.93612                       0.00088                      -0.11337
                       0.93618                       0.00201                      -0.11336
                       0.93624                       0.00335                      -0.11335
                       0.93629                       0.00488                      -0.11334
                       0.93636                       0.00660                      -0.11332
                       0.93642                       0.00849                      -0.11330
                       0.93647                       0.01053                      -0.11328
                       0.93652                       0.01269                      -0.11326
                       0.93655                       0.01494                      -0.11324
                       0.93655                       0.01719                      -0.11321
                       0.93653                       0.01935                      -0.11318
                       0.93650                       0.02127                      -0.11316
                       0.93645                       0.02277                      -0.11314
                       0.93641                       0.02360                      -0.11312
                       0.93639                       0.02346                      -0.11312
                       0.93639                       0.02311                      -0.11313
                       0.93608                      -0.00076                      -0.11339
        </DataArray>
        <DataArray type="Float32" Name="TranslationalAcceleration" NumberOfComponents="3" format="ascii">
                      -0.35011                      -0.05244                      -3.17898
                      -0.81035                      -0.12917                      -6.36451
                      -1.06692                      -0.21139                      -9.56591
                      -1.04062                      -0.30620                     -12.78953
                      -0.66552                      -0.41729                     -16.04059
                       0.11439                      -0.54455                     -19.32342
                       1.34703                      -0.68754                     -22.64176
                       3.07295                      -0.84568                     -25.99876
                       5.32493                      -1.01673                     -29.39695
                       8.12611                      -1.19683                     -32.83806
                      11.48695                      -1.38083                     -36.32280
                      15.40093                      -1.56265                     -39.85050
                      19.83899                      -1.73624                     -43.41874
                      24.74275                      -1.89693                     -47.02287
                      30.01656                      -2.04207                     -50.65536
                      35.51829                      -2.17200                     -54.30515
                      41.04886                      -2.29181                     -57.95689
                      43.79258                      -2.35019                     -59.78104
                      -0.07992                      -0.01449                      -1.58931
        </DataArray>
        <DataArray type="Float32" Name="RotationalAcceleration" NumberOfComponents="3" format="ascii">
                       0.03073                      -0.04258                      -0.01073
                       0.03118                       0.00185                      -0.01024
                       0.03374                       0.07036                      -0.00963
                       0.03810                       0.15871                      -0.00892
                       0.04270                       0.26379                      -0.00803
                       0.04699                       0.38319                      -0.00696
                       0.05133                       0.51484                      -0.00573
                       0.05529                       0.65673                      -0.00436
                       0.05839                       0.80654                      -0.00283
                       0.06022                       0.96126                      -0.00115
                       0.06046                       1.11687                       0.00067
                       0.05892                       1.26797                       0.00257
                       0.05583                       1.40745                       0.00446
                       0.05171                       1.52617                       0.00618
                       0.04717                       1.61261                       0.00755
                       0.04325                       1.65251                       0.00832
                       0.04155                       1.62859                       0.00817
                       0.04149                       1.59830                       0.00782
                       0.03099                      -0.05816                      -0.01094
        </DataArray>
        <DataArray type="Float32" Name="OrientationX" NumberOfComponents="3" format="ascii">
                       0.96995                      -0.23067                      -0.07734
                       0.96995                      -0.23067                      -0.07734
                       0.96995                      -0.23067                      -0.07735
                       0.97294                      -0.21770                      -0.07743
                       0.97923                      -0.18735                      -0.07757
                       0.98239                      -0.16996                      -0.07761
                       0.98528                      -0.15230                      -0.07764
                       0.98799                      -0.13358                      -0.07764
                       0.99038                      -0.11456                      -0.07761
                       0.99232                      -0.09631                      -0.07756
                       0.99391                      -0.07831                      -0.07748
                       0.99512                      -0.06124                      -0.07739
                       0.99588                      -0.04749                      -0.07730
                       0.99639                      -0.03529                      -0.07720
                       0.99676                      -0.02307                      -0.07710
                       0.99697                      -0.01094                      -0.07697
                       0.99704                      -0.00297                      -0.07688
                       0.99704                      -0.00051                      -0.07685
                       0.96995                      -0.23067                      -0.07734
        </DataArray>
        <DataArray type="Float32" Name="OrientationY" NumberOfComponents="3" format="ascii">
                       0.23089                       0.97296                      -0.00627
                       0.23089                       0.97296                      -0.00627
                       0.23089                       0.97296                      -0.00627
                       0.21795                       0.97595                      -0.00525
                       0.18770                       0.98222                      -0.00285
                       0.17036                       0.98538                      -0.00147
                       0.15276                       0.98826                      -0.00009
                       0.13409                       0.99097                       0.00138
                       0.11512                       0.99335                       0.00287
                       0.09694                       0.99528                       0.00429
                       0.07899                       0.99686                       0.00569
                       0.06197                       0.99805                       0.00701
                       0.04825                       0.99880                       0.00808
                       0.03609                       0.99931                       0.00902
                       0.02390                       0.99966                       0.00996
                       0.01181                       0.99987                       0.01090
                       0.00386                       0.99993                       0.01151
                       0.00142                       0.99993                       0.01170
                       0.23089                       0.97296                      -0.00627
        </DataArray>
        <DataArray type="Float32" Name="OrientationZ" NumberOfComponents="3" format="ascii">
                       0.07670                      -0.01177                       0.99699
                       0.07670                      -0.01177                       0.99698
                       0.07670                      -0.01177                       0.99698
                       0.07671                      -0.01177                       0.99698
                       0.07672                      -0.01177                       0.99698
                       0.07673                      -0.01177                       0.99698
                       0.07674                      -0.01177                       0.99698
                       0.07675                      -0.01177                       0.99698
                       0.07676                      -0.01177                       0.99698
                       0.07678                      -0.01177                       0.99698
                       0.07679                      -0.01177                       0.99698
                       0.07681                      -0.01177                       0.99698
                       0.07682                      -0.01177                       0.99698
                       0.07683                      -0.01177                       0.99697
                       0.07684                      -0.01177                       0.99697
                       0.07685                      -0.01177                       0.99697
                       0.07684                      -0.01177                       0.99697
                       0.07684                      -0.01177                       0.99697
                       0.07669                      -0.01177                       0.99699
        </DataArray>
      </PointData>
      <Lines>
        <DataArray type="Int32" Name="connectivity" format="ascii">
      0      1
      1      2
      2      3
      3      4
      4      5
      5      6
      6      7
      7      8
      8      9
      9     10
     10     11
     11     12
     12     13
     13     14
     14     15
     15     16
     16     17
     18      0
        </DataArray>
        <DataArray type="Int32" Name="offsets" format="ascii">
      2
      4
      6
      8
     10
     12
     14
     16
     18
     20
     22
     24
     26
     28
     30
     32
     34
     36
        </DataArray>
      </Lines>
    </Piece>
  </PolyData>
</VTKFile>
