<?xml version="1.0"?>
<VTKFile type="PolyData" version="0.1" byte_order="LittleEndian">
  <PolyData>
    <Piece NumberOfPoints="     19" NumberOfVerts="  0" NumberOfLines="     18"
           NumberOfStrips="  0" NumberOfPolys="      0">
      <Points>
        <DataArray type="Float32" NumberOfComponents="3" format="ascii">
                       2.96598                       1.48274                      90.03226
                       2.89568                       2.84517                      89.95031
                       2.74543                       5.57555                      89.88212
                       2.59375                       8.30891                      89.85695
                       2.40855                      11.72806                      89.84809
                       2.23425                      15.82374                      89.68164
                       2.08547                      19.91108                      89.37405
                       1.95560                      23.99806                      89.05427
                       1.85258                      28.08458                      88.72012
                       1.78334                      32.17063                      88.37360
                       1.75080                      36.25630                      88.01941
                       1.76851                      40.34097                      87.65461
                       1.84417                      44.42383                      87.27879
                       1.98236                      48.50386                      86.89173
                       2.18444                      52.58006                      86.49372
                       2.39459                      55.97383                      86.15489
                       2.58300                      58.68628                      85.87233
                       2.77061                      61.39351                      85.53423
                       2.86928                      62.75058                      85.40641
        </DataArray>
      </Points>
      <PointData>
        <DataArray type="Float32" Name="Force" NumberOfComponents="3" format="ascii">
                      -0.03311                      -0.01853                      -0.26957
                      63.00250                       1.78695                     -23.12578
                      73.48470                       0.28108                     -54.25251
                      62.18390                      -1.45781                     -71.09802
                     700.39720                      43.18607                     178.12385
                     979.75833                      56.38358                     246.24664
                    1096.21540                      52.81189                     196.22112
                    1353.04702                      52.71284                     172.08031
                    1399.00945                      39.77409                     110.56036
                    1524.78730                      25.51348                      64.56704
                    1761.38469                       4.61820                       9.66950
                    1828.85564                     -24.41589                     -50.11439
                    1939.51874                     -58.77246                     -98.47073
                    1806.91045                     -87.35152                    -144.66255
                    1627.92918                    -106.26970                    -174.51371
                    1448.20250                    -111.09815                    -186.19827
                    1419.36754                    -116.46517                    -192.48559
                    1135.22412                     -95.51975                    -154.25968
                    1250.33336                    -104.72610                    -165.63950
        </DataArray>
        <DataArray type="Float32" Name="Moment" NumberOfComponents="3" format="ascii">
                       0.00000                       0.00000                       0.00000
                       0.00000                       0.00000                       0.00000
                       0.00000                       0.00000                       0.00000
                       0.00000                       0.00000                       0.00000
                       8.62343                    -189.09206                      11.93731
                      13.92509                    -335.08486                      21.32033
                      18.06541                    -492.51024                      31.63176
                      21.66746                    -705.85008                      45.85231
                      22.66083                    -975.75097                      64.28070
                      15.38685                   -1107.41716                      74.22350
                       2.69403                   -1199.41440                      82.10535
                     -14.66518                   -1283.20525                      89.99625
                     -28.90786                   -1084.84627                      78.11214
                     -44.85735                   -1057.37545                      78.18286
                     -57.22573                   -1001.17323                      75.83905
                     -63.14033                    -944.89533                      72.69743
                     -59.07622                    -825.75628                      64.00984
                     -30.92232                    -420.28581                      32.68405
                     -30.47196                    -414.82011                      32.25308
        </DataArray>
        <DataArray type="Float32" Name="TranslationalVelocity" NumberOfComponents="3" format="ascii">
                       0.44504                       0.05902                       1.42968
                       0.59923                       0.14265                       2.68793
                       0.91021                       0.22276                       5.20941
                       1.22568                       0.26358                       7.73304
                       1.62834                       0.29380                      10.88886
                       2.12243                       0.46880                      14.66709
                       2.63262                       0.77143                      18.43529
                       3.16755                       1.08352                      22.20067
                       3.73782                       1.40594                      25.96291
                       4.35852                       1.73552                      29.72154
                       5.03999                       2.06667                      33.47610
                       5.80789                       2.39829                      37.22402
                       6.68138                       2.72645                      40.96228
                       7.67439                       3.04656                      44.68770
                       8.79030                       3.35397                      48.39794
                       9.80330                       3.59937                      51.47844
                      10.65817                       3.79650                      53.93553
                      11.52996                       4.04265                      56.38574
                      11.96852                       4.12673                      57.61379
        </DataArray>
        <DataArray type="Float32" Name="RotationalVelocity" NumberOfComponents="3" format="ascii">
                       0.92310                       0.01000                      -0.11340
                       0.92302                       0.00997                      -0.11378
                       0.92282                       0.00989                      -0.11494
                       0.92261                       0.00977                      -0.11657
                       0.92230                       0.00959                      -0.11925
                       0.92185                       0.00932                      -0.12322
                       0.92132                       0.00897                      -0.12833
                       0.92077                       0.00850                      -0.13537
                       0.92015                       0.00785                      -0.14531
                       0.91939                       0.00695                      -0.15909
                       0.91827                       0.00572                      -0.17789
                       0.91665                       0.00418                      -0.20130
                       0.91444                       0.00237                      -0.22855
                       0.91174                       0.00040                      -0.25784
                       0.90884                      -0.00152                      -0.28617
                       0.90666                      -0.00284                      -0.30556
                       0.90545                      -0.00354                      -0.31575
                       0.90480                      -0.00391                      -0.32110
                       0.90473                      -0.00395                      -0.32170
        </DataArray>
        <DataArray type="Float32" Name="TranslationalAcceleration" NumberOfComponents="3" format="ascii">
                       0.43838                      -1.29679                      -0.13124
                       0.45260                      -2.47860                      -0.09681
                       0.46544                      -4.84566                      -0.08569
                       0.45976                      -7.21843                      -0.03639
                       0.42258                     -10.19714                       0.13888
                       0.36319                     -13.76205                       0.69348
                       0.27724                     -17.29192                       1.62728
                       0.10347                     -20.80120                       2.83718
                      -0.26226                     -24.29071                       4.31781
                      -0.98818                     -27.76267                       6.05604
                      -2.22134                     -31.21790                       8.01362
                      -4.25285                     -34.64398                      10.21147
                      -7.33491                     -38.01647                      12.64768
                     -11.67190                     -41.29950                      15.31911
                     -17.35759                     -44.45312                      18.21188
                     -23.04435                     -46.97057                      20.76593
                     -28.12660                     -48.91040                      22.89387
                     -33.44998                     -50.78943                      25.10029
                     -36.15516                     -51.75145                      26.17360
        </DataArray>
        <DataArray type="Float32" Name="OrientationX" NumberOfComponents="3" format="ascii">
                       0.99261                       0.05799                       0.10656
                       0.99263                       0.05763                       0.10659
                       0.99269                       0.05658                       0.10665
                       0.99276                       0.05513                       0.10674
                       0.99287                       0.05274                       0.10690
                       0.99604                       0.04714                       0.07544
                       0.99775                       0.04114                       0.05285
                       0.99887                       0.03411                       0.03323
                       0.99960                       0.02536                       0.01259
                       0.99986                       0.01457                      -0.00851
                       0.99960                       0.00144                      -0.02822
                       0.99877                      -0.01380                      -0.04756
                       0.99743                      -0.03049                      -0.06481
                       0.99587                      -0.04739                      -0.07750
                       0.99393                      -0.06322                      -0.08999
                       0.99218                      -0.07380                      -0.10062
                       0.99091                      -0.07922                      -0.10873
                       0.99022                      -0.08162                      -0.11311
                       0.99023                      -0.08151                      -0.11312
        </DataArray>
        <DataArray type="Float32" Name="OrientationY" NumberOfComponents="3" format="ascii">
                       0.10982                      -0.05622                      -0.99236
                       0.10984                      -0.05662                      -0.99234
                       0.10989                      -0.05760                      -0.99227
                       0.10995                      -0.05880                      -0.99220
                       0.11004                      -0.06063                      -0.99208
                       0.07841                      -0.06472                      -0.99482
                       0.05558                      -0.06836                      -0.99611
                       0.03561                      -0.07176                      -0.99679
                       0.01446                      -0.07497                      -0.99708
                      -0.00735                      -0.07784                      -0.99694
                      -0.02801                      -0.08026                      -0.99638
                      -0.04853                      -0.08218                      -0.99543
                      -0.06716                      -0.08358                      -0.99424
                      -0.08130                      -0.08457                      -0.99310
                      -0.09521                      -0.08501                      -0.99182
                      -0.10678                      -0.08492                      -0.99065
                      -0.11536                      -0.08456                      -0.98972
                      -0.11994                      -0.08432                      -0.98919
                      -0.11994                      -0.08431                      -0.98919
        </DataArray>
        <DataArray type="Float32" Name="OrientationZ" NumberOfComponents="3" format="ascii">
                      -0.05155                       0.99673                      -0.06217
                      -0.05115                       0.99673                      -0.06253
                      -0.05000                       0.99674                      -0.06340
                      -0.04843                       0.99675                      -0.06444
                      -0.04584                       0.99677                      -0.06601
                      -0.04202                       0.99679                      -0.06816
                      -0.03737                       0.99681                      -0.07050
                      -0.03161                       0.99684                      -0.07290
                      -0.02434                       0.99686                      -0.07530
                      -0.01519                       0.99686                      -0.07772
                      -0.00370                       0.99677                      -0.08018
                       0.00983                       0.99652                      -0.08275
                       0.02490                       0.99603                      -0.08541
                       0.04051                       0.99529                      -0.08807
                       0.05505                       0.99437                      -0.09052
                       0.06457                       0.99365                      -0.09213
                       0.06921                       0.99326                      -0.09293
                       0.07120                       0.99309                      -0.09328
                       0.07109                       0.99310                      -0.09326
        </DataArray>
      </PointData>
      <Lines>
        <DataArray type="Int32" Name="connectivity" format="ascii">
      0      1
      1      2
      2      3
      3      4
      4      5
      5      6
      6      7
      7      8
      8      9
      9     10
     10     11
     11     12
     12     13
     13     14
     14     15
     15     16
     16     17
     17     18
        </DataArray>
        <DataArray type="Int32" Name="offsets" format="ascii">
      2
      4
      6
      8
     10
     12
     14
     16
     18
     20
     22
     24
     26
     28
     30
     32
     34
     36
        </DataArray>
      </Lines>
    </Piece>
  </PolyData>
</VTKFile>
