<?xml version="1.0"?>
<VTKFile type="PolyData" version="0.1" byte_order="LittleEndian">
  <PolyData>
    <Piece NumberOfPoints="     17" NumberOfVerts="  0" NumberOfLines="      0"
           NumberOfStrips="  0" NumberOfPolys="      0">
      <Points>
        <DataArray type="Float32" NumberOfComponents="3" format="ascii">
                       2.48505                       1.52054                      87.26432
                       1.94225                       3.20948                      84.11151
                       1.40740                       4.89763                      80.95692
                       0.88353                       6.58499                      77.80007
                       0.37308                       8.27152                      74.64058
                      -0.12140                       9.95720                      71.47810
                      -0.59686                      11.64218                      68.31234
                      -1.04956                      13.32671                      65.14302
                      -1.47501                      15.01106                      61.96983
                      -1.86825                      16.69536                      58.79248
                      -2.22423                      18.37959                      55.61071
                      -2.53846                      20.06353                      52.42440
                      -2.80787                      21.74674                      49.23361
                      -3.03189                      23.42879                      46.03867
                      -3.21371                      25.10931                      42.84021
                      -3.36179                      26.78825                      39.63913
                      -3.49160                      28.46615                      36.43667
        </DataArray>
      </Points>
      <PointData>
        <DataArray type="Float32" Name="Force" NumberOfComponents="3" format="ascii">
                     150.23443                     -41.61808                     -48.29294
                     528.52335                    -144.15670                    -166.93938
                    2066.01677                     694.71281                      28.69942
                    3384.39040                    1123.04512                      51.02411
                    2062.91715                     609.21298                      -1.10370
                    4521.82987                    1186.88951                     -60.51679
                    5519.54056                    1258.78877                    -137.96828
                    6169.97187                    1206.23772                    -209.56946
                    6623.77142                    1120.12835                    -253.27379
                    8340.75849                    1208.78041                    -331.73154
                    9575.65929                    1178.86663                    -364.90784
                   10911.81586                    1156.90498                    -356.10764
                    6261.79269                     584.76078                    -175.62503
                   12512.18048                    1007.00791                    -295.70635
                   12105.32223                     797.19131                    -231.42243
                   17235.03242                     862.89145                    -306.66334
                    7027.58838                     213.58936                    -172.33318
        </DataArray>
        <DataArray type="Float32" Name="Moment" NumberOfComponents="3" format="ascii">
                     -17.97557                     -16.57450                     -10.48833
                      96.46653                    -312.42219                    -232.83938
                     719.82109                   -1767.73166                   -1211.29766
                     666.78691                   -2161.99942                   -1644.52284
                      18.12370                    -125.49154                    -258.48100
                    -581.21082                    1943.46967                     921.12264
                    -346.35183                    1189.49301                     880.92354
                     -19.81208                    -297.16665                     754.43895
                      95.35874                    -996.20577                     491.23021
                     148.96622                   -1698.54440                     -21.50775
                     332.99868                   -3684.00211                   -1220.40307
                     507.84365                   -6215.90784                   -3091.66144
                     -40.69650                     349.08018                     196.44026
                    -564.33527                    7410.40914                    3925.95688
                    -439.50195                    6906.64848                    3596.17432
                    -179.04884                    1049.16967                     483.52004
                    -101.66542                    -192.38528                      47.66234
        </DataArray>
      </PointData>
    </Piece>
  </PolyData>
</VTKFile>
