<?xml version="1.0"?>
<VTKFile type="PolyData" version="0.1" byte_order="LittleEndian">
  <PolyData>
    <Piece NumberOfPoints="     19" NumberOfVerts="  0" NumberOfLines="     18"
           NumberOfStrips="  0" NumberOfPolys="      0">
      <Points>
        <DataArray type="Float32" NumberOfComponents="3" format="ascii">
                       2.90495                      -0.41598                      88.71696
                       2.68061                      -0.77399                      87.41720
                       2.20802                      -1.39840                      84.79639
                       1.72806                      -1.97921                      82.16462
                       1.13038                      -2.67862                      78.86688
                       0.48667                      -3.65504                      74.93537
                      -0.10621                      -4.75531                      71.03003
                      -0.67309                      -5.85599                      67.12096
                      -1.20449                      -6.95828                      63.20738
                      -1.69245                      -8.05973                      59.28794
                      -2.13443                      -9.15672                      55.36186
                      -2.51447                     -10.25005                      51.42832
                      -2.82396                     -11.33975                      47.48762
                      -3.05810                     -12.42612                      43.54081
                      -3.21644                     -13.50951                      39.58939
                      -3.29942                     -14.41071                      36.29439
                      -3.34107                     -15.13861                      33.65977
                      -3.37482                     -15.91954                      31.03911
                      -3.39340                     -16.26973                      29.71818
        </DataArray>
      </Points>
      <PointData>
        <DataArray type="Float32" Name="Force" NumberOfComponents="3" format="ascii">
                       0.10206                      -2.95940                       0.80576
                      53.91073                     -24.76778                      -2.38200
                      74.48925                     -59.96887                       3.98608
                      71.30991                     -79.52942                      10.11625
                     644.99257                     251.07018                    -176.01300
                     868.70145                     284.01077                    -217.30730
                    1041.45603                     281.67425                    -237.29158
                    1373.42419                     316.38697                    -286.48935
                    1539.53093                     296.86945                    -289.67434
                    1837.44478                     312.17899                    -311.42223
                    2348.61439                     354.58498                    -350.36045
                    2795.99688                     391.88926                    -360.16353
                    3305.97022                     468.14259                    -364.32266
                    3735.33518                     525.37649                    -338.28920
                    4190.38669                     591.24553                    -305.52640
                    4479.83066                     629.21320                    -274.76377
                    4476.42718                     620.53520                    -248.33950
                    3326.09986                     471.62737                    -180.62803
                    1206.88037                      19.09668                     -24.51123
        </DataArray>
        <DataArray type="Float32" Name="Moment" NumberOfComponents="3" format="ascii">
                       0.00000                       0.00000                       0.00000
                       0.00000                       0.00000                       0.00000
                       0.00000                       0.00000                       0.00000
                       0.00000                       0.00000                       0.00000
                      29.55611                      49.88017                     179.45776
                      65.21348                     113.68124                     409.27177
                      84.60592                     153.69180                     553.76747
                     114.75444                     219.84498                     792.91818
                     147.72043                     303.55074                    1096.17965
                     152.08451                     343.24005                    1241.39898
                     144.18952                     370.12818                    1341.15448
                     128.21252                     391.36210                    1421.16671
                      91.06338                     350.88701                    1277.21397
                      66.29329                     349.27832                    1274.44293
                      41.36697                     329.52374                    1205.04493
                      25.65578                     304.84869                    1116.40764
                      16.97241                     262.40263                     961.61035
                       7.24888                     126.57874                     463.98398
                       6.26626                     106.89689                     391.82035
        </DataArray>
        <DataArray type="Float32" Name="TranslationalVelocity" NumberOfComponents="3" format="ascii">
                       0.21204                       1.32059                      -0.32022
                       0.15889                       2.54047                      -0.64706
                       0.06096                       5.00110                      -1.21572
                      -0.03899                       7.46783                      -1.74214
                      -0.17526                      10.54932                      -2.37171
                      -0.38100                      14.19982                      -3.24610
                      -0.63721                      17.80227                      -4.22379
                      -0.93419                      21.38674                      -5.19160
                      -1.27193                      24.95374                      -6.15189
                      -1.64537                      28.50528                      -7.10481
                      -2.04298                      32.04522                      -8.05028
                      -2.45576                      35.57317                      -8.99191
                      -2.86832                      39.09011                      -9.93273
                      -3.26420                      42.59667                     -10.87487
                      -3.62833                      46.09351                     -11.81925
                      -3.90080                      49.00141                     -12.60776
                      -4.09634                      51.32288                     -13.24601
                      -4.27718                      53.63131                     -13.93149
                      -4.35986                      54.79512                     -14.23879
        </DataArray>
        <DataArray type="Float32" Name="RotationalVelocity" NumberOfComponents="3" format="ascii">
                       0.91916                       0.00806                      -0.11597
                       0.91850                       0.00892                      -0.11609
                       0.91685                       0.01116                      -0.11643
                       0.91475                       0.01419                      -0.11691
                       0.91143                       0.01930                      -0.11776
                       0.90679                       0.02724                      -0.11917
                       0.90190                       0.03654                      -0.12091
                       0.89713                       0.04632                      -0.12281
                       0.89275                       0.05557                      -0.12463
                       0.88895                       0.06328                      -0.12612
                       0.88593                       0.06816                      -0.12696
                       0.88362                       0.06972                      -0.12699
                       0.88193                       0.06760                      -0.12611
                       0.88077                       0.06190                      -0.12432
                       0.88007                       0.05327                      -0.12180
                       0.87979                       0.04476                      -0.11938
                       0.87975                       0.03799                      -0.11750
                       0.87987                       0.03163                      -0.11575
                       0.87998                       0.02872                      -0.11496
        </DataArray>
        <DataArray type="Float32" Name="TranslationalAcceleration" NumberOfComponents="3" format="ascii">
                      -0.51246                       0.33002                       1.15846
                      -0.36760                       0.79620                       2.23431
                      -0.07539                       1.65456                       4.41464
                       0.20944                       2.48251                       6.60196
                       0.54792                       3.50531                       9.33130
                       0.90985                       4.85847                      12.53532
                       1.21415                       6.32652                      15.66522
                       1.46498                       7.81116                      18.76465
                       1.66072                       9.31539                      21.83464
                       1.80358                      10.83967                      24.87772
                       1.90326                      12.38164                      27.89857
                       1.96216                      13.94523                      30.89390
                       1.99050                      15.52988                      33.86234
                       2.00046                      17.13259                      36.80263
                       2.00546                      18.74786                      39.71513
                       2.01519                      20.09841                      42.12423
                       2.03137                      21.18460                      44.03934
                       2.05625                      22.30816                      45.93025
                       2.07518                      22.83962                      46.89133
        </DataArray>
        <DataArray type="Float32" Name="OrientationX" NumberOfComponents="3" format="ascii">
                       0.95177                       0.21083                      -0.22289
                       0.95186                       0.21097                      -0.22240
                       0.95209                       0.21136                      -0.22101
                       0.95242                       0.21189                      -0.21910
                       0.95294                       0.21276                      -0.21594
                       0.96151                       0.18397                      -0.20408
                       0.96744                       0.16376                      -0.19297
                       0.97248                       0.14663                      -0.18104
                       0.97751                       0.12883                      -0.16699
                       0.98235                       0.11097                      -0.15058
                       0.98672                       0.09487                      -0.13181
                       0.99065                       0.07949                      -0.11084
                       0.99384                       0.06633                      -0.08873
                       0.99607                       0.05758                      -0.06731
                       0.99769                       0.04865                      -0.04736
                       0.99861                       0.04032                      -0.03385
                       0.99909                       0.03334                      -0.02669
                       0.99929                       0.02940                      -0.02362
                       0.99928                       0.02931                      -0.02396
        </DataArray>
        <DataArray type="Float32" Name="OrientationY" NumberOfComponents="3" format="ascii">
                       0.25930                      -0.94108                       0.21708
                       0.25932                      -0.94106                       0.21718
                       0.25936                      -0.94099                       0.21741
                       0.25941                      -0.94091                       0.21769
                       0.25948                      -0.94079                       0.21813
                       0.22903                      -0.94696                       0.22543
                       0.20694                      -0.95078                       0.23062
                       0.18755                      -0.95373                       0.23501
                       0.16695                      -0.95648                       0.23932
                       0.14563                      -0.95894                       0.24336
                       0.12537                      -0.96091                       0.24684
                       0.10519                      -0.96256                       0.24984
                       0.08684                      -0.96379                       0.25214
                       0.07290                      -0.96456                       0.25360
                       0.05915                      -0.96522                       0.25467
                       0.04764                      -0.96569                       0.25528
                       0.03907                      -0.96600                       0.25559
                       0.03447                      -0.96614                       0.25572
                       0.03447                      -0.96614                       0.25572
        </DataArray>
        <DataArray type="Float32" Name="OrientationZ" NumberOfComponents="3" format="ascii">
                      -0.16399                      -0.26441                      -0.95037
                      -0.16347                      -0.26440                      -0.95046
                      -0.16202                      -0.26432                      -0.95073
                      -0.16003                      -0.26417                      -0.95111
                      -0.15674                      -0.26390                      -0.95173
                      -0.15179                      -0.26350                      -0.95264
                      -0.14570                      -0.26305                      -0.95372
                      -0.13820                      -0.26250                      -0.95498
                      -0.12889                      -0.26182                      -0.95647
                      -0.11739                      -0.26100                      -0.95818
                      -0.10324                      -0.26009                      -0.96005
                      -0.08683                      -0.25917                      -0.96192
                      -0.06879                      -0.25829                      -0.96362
                      -0.05032                      -0.25751                      -0.96497
                      -0.03332                      -0.25688                      -0.96587
                      -0.02239                      -0.25654                      -0.96627
                      -0.01726                      -0.25640                      -0.96642
                      -0.01530                      -0.25635                      -0.96646
                      -0.01566                      -0.25636                      -0.96645
        </DataArray>
      </PointData>
      <Lines>
        <DataArray type="Int32" Name="connectivity" format="ascii">
      0      1
      1      2
      2      3
      3      4
      4      5
      5      6
      6      7
      7      8
      8      9
      9     10
     10     11
     11     12
     12     13
     13     14
     14     15
     15     16
     16     17
     17     18
        </DataArray>
        <DataArray type="Int32" Name="offsets" format="ascii">
      2
      4
      6
      8
     10
     12
     14
     16
     18
     20
     22
     24
     26
     28
     30
     32
     34
     36
        </DataArray>
      </Lines>
    </Piece>
  </PolyData>
</VTKFile>
