<?xml version="1.0"?>
<VTKFile type="PolyData" version="0.1" byte_order="LittleEndian">
  <PolyData>
    <Piece NumberOfPoints="     19" NumberOfVerts="  0" NumberOfLines="     18"
           NumberOfStrips="  0" NumberOfPolys="      0">
      <Points>
        <DataArray type="Float32" NumberOfComponents="3" format="ascii">
                       3.18087                       3.07049                      91.32264
                       3.18947                       6.45235                      92.60727
                       3.20525                       9.83404                      93.89229
                       3.23096                      13.21547                      95.17784
                       3.26890                      16.59658                      96.46392
                       3.32161                      19.97735                      97.75035
                       3.39229                      23.35772                      99.03697
                       3.48506                      26.73757                     100.32352
                       3.60489                      30.11674                     101.60961
                       3.75740                      33.49499                     102.89460
                       3.94838                      36.87202                     104.17762
                       4.18305                      40.24744                     105.45763
                       4.46512                      43.62078                     106.73351
                       4.79567                      46.99163                     108.00439
                       5.17174                      50.35977                     109.26988
                       5.58469                      53.72547                     110.53051
                       6.01842                      57.08972                     111.78818
                       6.23794                      58.77164                     112.41662
                       3.17796                       1.37953                      90.68039
        </DataArray>
      </Points>
      <PointData>
        <DataArray type="Float32" Name="TranslationalVelocity" NumberOfComponents="3" format="ascii">
                       0.54632                      -1.12561                       2.90975
                       0.95272                      -2.31299                       6.03287
                       1.35540                      -3.50023                       9.15230
                       1.75289                      -4.68741                      12.26703
                       2.14384                      -5.87455                      15.37655
                       2.52671                      -7.06168                      18.48068
                       2.89948                      -8.24888                      21.57941
                       3.25962                      -9.43628                      24.67288
                       3.60403                     -10.62392                      27.76137
                       3.92919                     -11.81159                      30.84533
                       4.23151                     -12.99880                      33.92535
                       4.50768                     -14.18469                      37.00213
                       4.75531                     -15.36810                      40.07642
                       4.97358                     -16.54787                      43.14892
                       5.16415                     -17.72318                      46.22029
                       5.33213                     -18.89410                      49.29108
                       5.48725                     -20.06223                      52.36170
                       5.56313                     -20.64590                      53.89700
                       0.34241                      -0.53186                       1.34742
        </DataArray>
        <DataArray type="Float32" Name="RotationalVelocity" NumberOfComponents="3" format="ascii">
                       0.92394                       0.00887                      -0.11722
                       0.92308                       0.00859                      -0.11648
                       0.92189                       0.00815                      -0.11531
                       0.92049                       0.00758                      -0.11381
                       0.91902                       0.00688                      -0.11195
                       0.91753                       0.00600                      -0.10964
                       0.91607                       0.00491                      -0.10676
                       0.91470                       0.00354                      -0.10314
                       0.91346                       0.00184                      -0.09867
                       0.91240                      -0.00021                      -0.09326
                       0.91156                      -0.00261                      -0.08694
                       0.91098                      -0.00530                      -0.07986
                       0.91065                      -0.00816                      -0.07233
                       0.91055                      -0.01100                      -0.06486
                       0.91062                      -0.01353                      -0.05820
                       0.91076                      -0.01537                      -0.05336
                       0.91083                      -0.01602                      -0.05165
                       0.91082                      -0.01597                      -0.05176
                       0.92428                       0.00896                      -0.11745
        </DataArray>
        <DataArray type="Float32" Name="TranslationalAcceleration" NumberOfComponents="3" format="ascii">
                      -1.17883                      -2.73952                      -1.14616
                      -1.23701                      -5.61616                      -2.39169
                      -1.25749                      -8.44888                      -3.73244
                      -1.22699                     -11.22696                      -5.19176
                      -1.13684                     -13.94419                      -6.78393
                      -0.98710                     -16.59756                      -8.51673
                      -0.78770                     -19.18641                     -10.39268
                      -0.55959                     -21.71169                     -12.40998
                      -0.33514                     -24.17545                     -14.56318
                      -0.15649                     -26.58026                     -16.84320
                      -0.07248                     -28.92869                     -19.23720
                      -0.13416                     -31.22291                     -21.72856
                      -0.38877                     -33.46440                     -24.29732
                      -0.87230                     -35.65448                     -26.92144
                      -1.60075                     -37.79586                     -29.57849
                      -2.55986                     -39.89563                     -32.24801
                      -3.69325                     -41.96838                     -34.91464
                      -4.29344                     -43.00039                     -36.24575
                      -1.14207                      -1.29189                      -0.54360
        </DataArray>
        <DataArray type="Float32" Name="RotationalAcceleration" NumberOfComponents="3" format="ascii">
                      -0.03087                      -0.02043                      -0.01897
                      -0.05518                      -0.01740                      -0.02687
                      -0.08809                      -0.01299                      -0.03837
                      -0.12634                      -0.00734                      -0.05313
                      -0.16775                      -0.00123                      -0.06911
                      -0.21060                       0.00441                      -0.08383
                      -0.25345                       0.00858                      -0.09466
                      -0.29523                       0.01011                      -0.09855
                      -0.33502                       0.00791                      -0.09265
                      -0.37199                       0.00114                      -0.07472
                      -0.40530                      -0.01067                      -0.04350
                      -0.43419                      -0.02750                       0.00091
                      -0.45804                      -0.04865                       0.05666
                      -0.47640                      -0.07260                       0.11979
                      -0.48886                      -0.09693                       0.18387
                      -0.49514                      -0.11808                       0.23958
                      -0.49528                      -0.13127                       0.27431
                      -0.49384                      -0.13519                       0.28463
                      -0.02135                      -0.02163                      -0.01584
        </DataArray>
        <DataArray type="Float32" Name="OrientationX" NumberOfComponents="3" format="ascii">
                       0.99353                      -0.04181                       0.10558
                       0.99353                      -0.04325                       0.10503
                       0.99352                      -0.04552                       0.10417
                       0.99492                      -0.04369                       0.09071
                       0.99751                      -0.03619                       0.06052
                       0.99852                      -0.03410                       0.04244
                       0.99918                      -0.03287                       0.02378
                       0.99947                      -0.03244                       0.00371
                       0.99930                      -0.03330                      -0.01712
                       0.99864                      -0.03595                      -0.03775
                       0.99747                      -0.04015                      -0.05866
                       0.99581                      -0.04590                      -0.07909
                       0.99388                      -0.05351                      -0.09664
                       0.99173                      -0.06151                      -0.11263
                       0.98942                      -0.06809                      -0.12807
                       0.98723                      -0.07164                      -0.14225
                       0.98600                      -0.07147                      -0.15064
                       0.98575                      -0.07034                      -0.15282
                       0.99353                      -0.04134                       0.10576
        </DataArray>
        <DataArray type="Float32" Name="OrientationY" NumberOfComponents="3" format="ascii">
                       0.11355                       0.35260                      -0.92886
                       0.11355                       0.35251                      -0.92889
                       0.11354                       0.35239                      -0.92894
                       0.10031                       0.35285                      -0.93029
                       0.06943                       0.35393                      -0.93269
                       0.05179                       0.35440                      -0.93366
                       0.03391                       0.35484                      -0.93431
                       0.01500                       0.35531                      -0.93463
                      -0.00416                       0.35579                      -0.93456
                      -0.02249                       0.35629                      -0.93411
                      -0.04052                       0.35685                      -0.93328
                      -0.05756                       0.35747                      -0.93215
                      -0.07125                       0.35806                      -0.93098
                      -0.08334                       0.35867                      -0.92973
                      -0.09543                       0.35940                      -0.92829
                      -0.10738                       0.36022                      -0.92667
                      -0.11524                       0.36078                      -0.92550
                      -0.11766                       0.36096                      -0.92513
                       0.11355                       0.35263                      -0.92885
        </DataArray>
        <DataArray type="Float32" Name="OrientationZ" NumberOfComponents="3" format="ascii">
                       0.00161                       0.93484                       0.35507
                       0.00315                       0.93481                       0.35514
                       0.00557                       0.93474                       0.35528
                       0.00864                       0.93466                       0.35544
                       0.01234                       0.93457                       0.35556
                       0.01680                       0.93447                       0.35564
                       0.02227                       0.93435                       0.35566
                       0.02900                       0.93419                       0.35560
                       0.03721                       0.93397                       0.35540
                       0.04703                       0.93368                       0.35500
                       0.05841                       0.93330                       0.35432
                       0.07106                       0.93280                       0.35333
                       0.08442                       0.93217                       0.35205
                       0.09758                       0.93143                       0.35058
                       0.10923                       0.93069                       0.34911
                       0.11763                       0.93011                       0.34792
                       0.12050                       0.92991                       0.34750
                       0.12023                       0.92993                       0.34754
                       0.00110                       0.93485                       0.35505
        </DataArray>
      </PointData>
      <Lines>
        <DataArray type="Int32" Name="connectivity" format="ascii">
      0      1
      1      2
      2      3
      3      4
      4      5
      5      6
      6      7
      7      8
      8      9
      9     10
     10     11
     11     12
     12     13
     13     14
     14     15
     15     16
     16     17
     18      0
        </DataArray>
        <DataArray type="Int32" Name="offsets" format="ascii">
      2
      4
      6
      8
     10
     12
     14
     16
     18
     20
     22
     24
     26
     28
     30
     32
     34
     36
        </DataArray>
      </Lines>
    </Piece>
  </PolyData>
</VTKFile>
