<?xml version="1.0"?>
<VTKFile type="PolyData" version="0.1" byte_order="LittleEndian">
  <PolyData>
    <Piece NumberOfPoints="     19" NumberOfVerts="  0" NumberOfLines="     18"
           NumberOfStrips="  0" NumberOfPolys="      0">
      <Points>
        <DataArray type="Float32" NumberOfComponents="3" format="ascii">
                       3.16258                      -3.12811                      91.33320
                       3.17283                      -6.50950                      92.61907
                       3.19072                      -9.89235                      93.90100
                       3.21931                     -13.27712                      95.17766
                       3.26124                     -16.66406                      96.44816
                       3.31936                     -20.05330                      97.71186
                       3.39694                     -23.44490                      98.96816
                       3.49789                     -26.83887                     100.21635
                       3.62673                     -30.23510                     101.45575
                       3.78843                     -33.63334                     102.68574
                       3.98789                     -37.03314                     103.90581
                       4.22940                     -40.43385                     105.11569
                       4.51574                     -43.83466                     106.31547
                       4.84715                     -47.23477                     107.50564
                       5.22010                     -50.63356                     108.68739
                       5.62580                     -54.03087                     109.86276
                       6.04861                     -57.42724                     111.03489
                       6.26184                     -59.12533                     111.62060
                       3.15893                      -1.43771                      90.68948
        </DataArray>
      </Points>
      <PointData>
        <DataArray type="Float32" Name="TranslationalVelocity" NumberOfComponents="3" format="ascii">
                      -0.66100                      -1.08602                      -2.82883
                      -1.06380                      -2.26406                      -5.92348
                      -1.46689                      -3.44301                      -9.02897
                      -1.86991                      -4.62291                     -12.14820
                      -2.27212                      -5.80379                     -15.28297
                      -2.67218                      -6.98565                     -18.43433
                      -3.06806                      -8.16837                     -21.60289
                      -3.45703                      -9.35165                     -24.78898
                      -3.83558                     -10.53511                     -27.99267
                      -4.19969                     -11.71826                     -31.21377
                      -4.54507                     -12.90047                     -34.45179
                      -4.86764                     -14.08102                     -37.70584
                      -5.16416                     -15.25912                     -40.97461
                      -5.43295                     -16.43404                     -44.25633
                      -5.67483                     -17.60538                     -47.54872
                      -5.89411                     -18.77349                     -50.84889
                      -6.09987                     -19.93971                     -54.15330
                      -6.20084                     -20.52259                     -55.80608
                      -0.45972                      -0.49721                      -1.28378
        </DataArray>
        <DataArray type="Float32" Name="RotationalVelocity" NumberOfComponents="3" format="ascii">
                       0.91403                      -0.00631                      -0.11667
                       0.91640                      -0.00634                      -0.11676
                       0.91968                      -0.00633                      -0.11675
                       0.92353                      -0.00628                      -0.11663
                       0.92772                      -0.00612                      -0.11623
                       0.93211                      -0.00580                      -0.11540
                       0.93661                      -0.00524                      -0.11396
                       0.94115                      -0.00438                      -0.11171
                       0.94570                      -0.00314                      -0.10848
                       0.95019                      -0.00148                      -0.10416
                       0.95455                       0.00059                      -0.09875
                       0.95871                       0.00303                      -0.09236
                       0.96256                       0.00572                      -0.08531
                       0.96595                       0.00847                      -0.07811
                       0.96869                       0.01099                      -0.07152
                       0.97053                       0.01288                      -0.06655
                       0.97119                       0.01363                      -0.06459
                       0.97118                       0.01365                      -0.06455
                       0.91312                      -0.00628                      -0.11659
        </DataArray>
        <DataArray type="Float32" Name="TranslationalAcceleration" NumberOfComponents="3" format="ascii">
                      -1.56133                       2.89952                      -1.25861
                      -1.72265                       5.78649                      -2.31883
                      -1.87683                       8.68256                      -3.40845
                      -2.01944                      11.59017                      -4.53537
                      -2.14575                      14.51093                      -5.70458
                      -2.25236                      17.44617                      -6.91825
                      -2.33873                      20.39721                      -8.17603
                      -2.40797                      23.36540                      -9.47543
                      -2.46697                      26.35205                     -10.81217
                      -2.52617                      29.35809                     -12.18061
                      -2.59888                      32.38381                     -13.57417
                      -2.70010                      35.42845                     -14.98570
                      -2.84487                      38.49011                     -16.40793
                      -3.04618                      41.56571                     -17.83392
                      -3.31239                      44.65124                     -19.25783
                      -3.64424                      47.74217                     -20.67597
                      -4.03140                      50.83431                     -22.08758
                      -4.23672                      52.38021                     -22.79186
                      -1.47938                       1.45794                      -0.73468
        </DataArray>
        <DataArray type="Float32" Name="RotationalAcceleration" NumberOfComponents="3" format="ascii">
                      -0.00903                      -0.07234                       0.01397
                      -0.00265                      -0.07181                       0.01533
                       0.00622                      -0.07090                       0.01770
                       0.01683                      -0.06949                       0.02133
                       0.02838                      -0.06765                       0.02613
                       0.04015                      -0.06558                       0.03151
                       0.05156                      -0.06364                       0.03655
                       0.06212                      -0.06220                       0.04027
                       0.07148                      -0.06165                       0.04169
                       0.07943                      -0.06230                       0.03994
                       0.08590                      -0.06441                       0.03438
                       0.09092                      -0.06806                       0.02478
                       0.09458                      -0.07318                       0.01135
                       0.09698                      -0.07942                      -0.00505
                       0.09826                      -0.08619                      -0.02282
                       0.09853                      -0.09256                      -0.03951
                       0.09780                      -0.09721                      -0.05171
                       0.09719                      -0.09892                      -0.05620
                      -0.01151                      -0.07253                       0.01350
        </DataArray>
        <DataArray type="Float32" Name="OrientationX" NumberOfComponents="3" format="ascii">
                       0.93907                      -0.12055                      -0.32189
                       0.93906                      -0.11882                      -0.32255
                       0.93905                      -0.11610                      -0.32358
                       0.94351                      -0.10818                      -0.31318
                       0.95327                      -0.09358                      -0.28726
                       0.95837                      -0.08266                      -0.27330
                       0.96318                      -0.07072                      -0.25939
                       0.96786                      -0.05732                      -0.24485
                       0.97215                      -0.04259                      -0.23044
                       0.97577                      -0.02684                      -0.21714
                       0.97883                      -0.00998                      -0.20443
                       0.98120                       0.00747                      -0.19285
                       0.98255                       0.02419                      -0.18442
                       0.98336                       0.03995                      -0.17724
                       0.98405                       0.05414                      -0.16944
                       0.98486                       0.06520                      -0.16061
                       0.98563                       0.06979                      -0.15384
                       0.98600                       0.07002                      -0.15133
                       0.93907                      -0.12114                      -0.32167
        </DataArray>
        <DataArray type="Float32" Name="OrientationY" NumberOfComponents="3" format="ascii">
                       0.34372                       0.33484                       0.87735
                       0.34372                       0.33455                       0.87746
                       0.34372                       0.33416                       0.87760
                       0.33120                       0.33520                       0.88201
                       0.30181                       0.33784                       0.89150
                       0.28493                       0.33890                       0.89664
                       0.26775                       0.33977                       0.90159
                       0.24950                       0.34051                       0.90653
                       0.23094                       0.34101                       0.91125
                       0.21311                       0.34123                       0.91550
                       0.19551                       0.34117                       0.91945
                       0.17881                       0.34084                       0.92296
                       0.16536                       0.34030                       0.92566
                       0.15345                       0.33965                       0.92795
                       0.14151                       0.33886                       0.93013
                       0.12964                       0.33800                       0.93218
                       0.12180                       0.33740                       0.93345
                       0.11938                       0.33723                       0.93382
                       0.34372                       0.33496                       0.87730
        </DataArray>
        <DataArray type="Float32" Name="OrientationZ" NumberOfComponents="3" format="ascii">
                       0.00202                      -0.93453                       0.35588
                       0.00365                      -0.93486                       0.35501
                       0.00624                      -0.93534                       0.35370
                       0.00956                      -0.93592                       0.35209
                       0.01362                      -0.93654                       0.35030
                       0.01851                      -0.93719                       0.34834
                       0.02437                      -0.93784                       0.34620
                       0.03141                      -0.93849                       0.34387
                       0.03977                      -0.93909                       0.34135
                       0.04952                      -0.93960                       0.33868
                       0.06057                      -0.93995                       0.33590
                       0.07263                      -0.94009                       0.33309
                       0.08515                      -0.94000                       0.33037
                       0.09727                      -0.93970                       0.32787
                       0.10778                      -0.93928                       0.32580
                       0.11506                      -0.93889                       0.32443
                       0.11705                      -0.93877                       0.32405
                       0.11642                      -0.93881                       0.32415
                       0.00147                      -0.93441                       0.35618
        </DataArray>
      </PointData>
      <Lines>
        <DataArray type="Int32" Name="connectivity" format="ascii">
      0      1
      1      2
      2      3
      3      4
      4      5
      5      6
      6      7
      7      8
      8      9
      9     10
     10     11
     11     12
     12     13
     13     14
     14     15
     15     16
     16     17
     18      0
        </DataArray>
        <DataArray type="Int32" Name="offsets" format="ascii">
      2
      4
      6
      8
     10
     12
     14
     16
     18
     20
     22
     24
     26
     28
     30
     32
     34
     36
        </DataArray>
      </Lines>
    </Piece>
  </PolyData>
</VTKFile>
