<?xml version="1.0"?>
<VTKFile type="PolyData" version="0.1" byte_order="LittleEndian">
  <PolyData>
    <Piece NumberOfPoints="     17" NumberOfVerts="  0" NumberOfLines="      0"
           NumberOfStrips="  0" NumberOfPolys="      0">
      <Points>
        <DataArray type="Float32" NumberOfComponents="3" format="ascii">
                       2.25812                      -2.66533                      88.15229
                       1.85711                      -5.54041                      85.99348
                       1.46349                      -8.41362                      83.83083
                       1.08023                     -11.28438                      81.66307
                       0.70992                     -14.15236                      79.48939
                       0.35539                     -17.01736                      77.30917
                       0.02002                     -19.87924                      75.12184
                      -0.29201                     -22.73783                      72.92678
                      -0.57578                     -25.59298                      70.72344
                      -0.82581                     -28.44453                      68.51139
                      -1.03656                     -31.29232                      66.29043
                      -1.20309                     -34.13620                      64.06076
                      -1.32199                     -36.97609                      61.82294
                      -1.39255                     -39.81196                      59.57796
                      -1.41812                     -42.64409                      57.32723
                      -1.40772                     -45.47321                      55.07251
                      -1.37792                     -48.30070                      52.81584
        </DataArray>
      </Points>
      <PointData>
        <DataArray type="Float32" Name="Force" NumberOfComponents="3" format="ascii">
                     179.01303                     -67.80552                      56.98849
                     628.83937                    -205.91927                     159.84593
                    2161.57061                     421.87612                    -945.53313
                    3622.43700                     742.40222                   -1612.01458
                    2213.49593                     401.58207                    -902.47989
                    4808.73112                     765.62971                   -1783.06088
                    5834.42123                     807.73394                   -1940.08956
                    6493.40178                     790.75021                   -1928.77538
                    7018.69079                     786.38197                   -1884.49340
                    8933.87440                     948.75082                   -2168.09250
                   10374.38385                    1086.18184                   -2277.77063
                   12003.60493                    1302.22091                   -2417.34893
                    6951.32468                     777.30063                   -1305.95480
                   13993.44528                    1606.73102                   -2434.39856
                   13658.29909                    1605.59999                   -2160.42779
                   19634.62872                    2284.86999                   -2776.81071
                    8097.11111                     857.49518                    -988.71469
        </DataArray>
        <DataArray type="Float32" Name="Moment" NumberOfComponents="3" format="ascii">
                     -19.94563                     -17.13840                      19.42360
                     182.18439                    -310.92678                     262.47300
                    1131.42484                   -1773.07158                    1425.05606
                    1216.08219                   -2416.54806                    1799.63005
                      45.25112                    -395.22333                      -4.45498
                   -1035.86026                    1200.71197                   -1987.48206
                    -657.00825                    1123.96535                   -1147.16665
                     -87.64644                     823.26052                     461.88613
                     163.00128                     450.02161                    1193.53812
                     364.51417                    -209.17167                    1858.72936
                     942.13203                   -1883.25077                    3754.07688
                    1673.76757                   -4523.18706                    6121.94475
                    -117.54779                     320.47634                    -358.65939
                   -2017.01300                    5883.12585                   -7332.94815
                   -1796.86178                    5485.41773                   -6900.61893
                    -406.62748                     827.93875                   -1029.72844
                     -97.76056                      29.73803                     256.88793
        </DataArray>
      </PointData>
    </Piece>
  </PolyData>
</VTKFile>
