<?xml version="1.0"?>
<VTKFile type="PolyData" version="0.1" byte_order="LittleEndian">
  <PolyData>
    <Piece NumberOfPoints="     17" NumberOfVerts="  0" NumberOfLines="      0"
           NumberOfStrips="  0" NumberOfPolys="      0">
      <Points>
        <DataArray type="Float32" NumberOfComponents="3" format="ascii">
                       2.52939                       1.20136                      87.12557
                       1.96101                       2.54886                      83.81671
                       1.40027                       3.89759                      80.50705
                       0.85011                       5.24806                      77.19633
                       0.31301                       6.60054                      73.88428
                      -0.20839                       7.95517                      70.57061
                      -0.71091                       9.31216                      67.25500
                      -1.19061                      10.67173                      63.93707
                      -1.64278                      12.03406                      60.61641
                      -2.06218                      13.39919                      57.29262
                      -2.44349                      14.76693                      53.96533
                      -2.78193                      16.13688                      50.63432
                      -3.07422                      17.50841                      47.29959
                      -3.31963                      18.88082                      43.96143
                      -3.52135                      20.25341                      40.62038
                      -3.68804                      21.62568                      37.27721
                      -3.83562                      22.99760                      33.93295
        </DataArray>
      </Points>
      <PointData>
        <DataArray type="Float32" Name="Force" NumberOfComponents="3" format="ascii">
                     146.09781                     -46.81681                     -44.25254
                     504.11031                    -161.01260                    -150.99673
                    1910.57610                     656.49794                     -50.87764
                    3166.29034                    1077.43884                     -78.19614
                    1947.27470                     587.91874                     -71.36101
                    4300.59392                    1152.36402                    -197.89309
                    5300.74120                    1234.10682                    -285.47387
                    5976.43242                    1194.59295                    -353.53662
                    6467.19933                    1125.62177                    -389.04883
                    8193.78403                    1234.88974                    -480.05005
                    9434.40400                    1226.71904                    -509.51460
                   10753.49752                    1227.07146                    -496.66955
                    6158.35025                     627.65719                    -246.46612
                   12261.31963                    1090.55761                    -419.08377
                   11804.00040                     868.48936                    -333.62359
                   16751.05453                     941.65524                    -429.68930
                    6864.26897                     245.40498                    -207.26203
        </DataArray>
        <DataArray type="Float32" Name="Moment" NumberOfComponents="3" format="ascii">
                     -17.46829                     -16.93765                      -8.20053
                      89.91575                    -305.75321                    -186.63975
                     678.51765                   -1736.60198                    -962.17495
                     645.35679                   -2202.94210                   -1294.56092
                      23.00051                    -158.55109                    -192.33314
                    -547.90205                    1882.69648                     769.23184
                    -320.70945                    1171.81058                     831.03424
                       7.82536                    -268.09943                     870.63529
                     120.07457                    -954.61831                     651.36684
                     174.99487                   -1674.86460                     200.13909
                     371.18173                   -3712.54745                    -809.50936
                     565.83889                   -6352.12458                   -2428.34964
                     -45.17573                     380.47951                     180.01688
                    -633.69595                    7640.00683                    3224.22665
                    -494.35932                    7058.61479                    2967.18943
                    -190.95989                    1048.72881                     537.73991
                     -90.76618                    -205.39464                     101.76740
        </DataArray>
      </PointData>
    </Piece>
  </PolyData>
</VTKFile>
