<?xml version="1.0"?>
<VTKFile type="PolyData" version="0.1" byte_order="LittleEndian">
  <PolyData>
    <Piece NumberOfPoints="     19" NumberOfVerts="  0" NumberOfLines="     18"
           NumberOfStrips="  0" NumberOfPolys="      0">
      <Points>
        <DataArray type="Float32" NumberOfComponents="3" format="ascii">
                       3.16183                      -0.78172                      91.41515
                       3.24607                      -1.48319                      92.58508
                       3.38733                      -2.96724                      94.87842
                       3.51884                      -4.49073                      97.14890
                       3.68276                      -6.42028                      99.97198
                       3.95442                      -8.61775                     103.42420
                       4.27664                     -10.70886                     106.93599
                       4.61963                     -12.80277                     110.44415
                       4.99149                     -14.89825                     113.94848
                       5.39811                     -16.99705                     117.44697
                       5.84076                     -19.10162                     120.93763
                       6.33181                     -21.21075                     124.41908
                       6.87728                     -23.32347                     127.89025
                       7.48013                     -25.43859                     131.35049
                       8.14045                     -27.55485                     134.79958
                       8.72743                     -29.31848                     137.66661
                       9.21556                     -30.72240                     139.96069
                       9.71097                     -32.07941                     142.28261
                       9.95544                     -32.79342                     143.42195
        </DataArray>
      </Points>
      <PointData>
        <DataArray type="Float32" Name="Force" NumberOfComponents="3" format="ascii">
                       0.24124                       3.30522                       1.95236
                      70.14158                      22.80758                       8.48805
                      89.46143                      53.17417                      25.06215
                      81.18505                      69.37827                      35.19129
                     668.11052                    -250.86394                    -202.55596
                     867.64929                    -282.95251                    -241.75795
                     972.68545                    -254.87062                    -239.68691
                    1209.06362                    -258.38472                    -271.98781
                    1247.89166                    -206.44363                    -256.06672
                    1367.67293                    -176.25083                    -265.92247
                    1613.58981                    -146.51590                    -298.75398
                    1707.41380                     -97.70193                    -308.25725
                    1885.92518                     -64.62669                    -346.50207
                    1858.54130                      -8.62383                    -340.46799
                    1816.09361                      34.27152                    -335.73027
                    1702.30416                      63.59809                    -312.88217
                    1798.39525                      80.05294                    -331.12794
                    1577.75067                      60.02473                    -299.24352
                    1289.59585                      63.40280                    -235.30036
        </DataArray>
        <DataArray type="Float32" Name="Moment" NumberOfComponents="3" format="ascii">
                       0.00000                       0.00000                       0.00000
                       0.00000                       0.00000                       0.00000
                       0.00000                       0.00000                       0.00000
                       0.00000                       0.00000                       0.00000
                     -11.90262                      89.62635                    -150.26111
                     -29.12619                     206.93149                    -346.72324
                     -41.94937                     278.62623                    -466.51351
                     -64.60018                     397.26478                    -664.56241
                     -97.66621                     550.36666                    -919.66865
                    -121.39706                     620.64950                   -1035.72089
                    -146.87351                     674.77065                   -1124.19668
                    -175.04560                     720.35015                   -1197.87894
                    -162.11426                     599.01982                    -994.07206
                    -176.28711                     590.12399                    -977.26074
                    -184.68121                     569.25941                    -940.90112
                    -185.18510                     543.41336                    -897.08310
                    -168.98329                     485.16577                    -800.47549
                     -85.92964                     244.87574                    -403.94173
                     -78.83629                     225.14064                    -371.40789
        </DataArray>
        <DataArray type="Float32" Name="TranslationalVelocity" NumberOfComponents="3" format="ascii">
                       0.22725                      -1.22664                      -0.67276
                       0.15664                      -2.31747                      -1.32171
                       0.00656                      -4.45343                      -2.69470
                      -0.14575                      -6.56847                      -4.10516
                      -0.33406                      -9.20081                      -5.89364
                      -0.53700                     -12.43197                      -7.93489
                      -0.71465                     -15.72925                      -9.88249
                      -0.87736                     -19.03089                     -11.83772
                      -1.02249                     -22.33747                     -13.80004
                      -1.14778                     -25.64744                     -15.77162
                      -1.25369                     -28.95806                     -17.75461
                      -1.33609                     -32.26912                     -19.74920
                      -1.39390                     -35.57925                     -21.75506
                      -1.42743                     -38.88711                     -23.77133
                      -1.43919                     -42.19148                     -25.79657
                      -1.43636                     -44.94240                     -27.48929
                      -1.42795                     -47.14549                     -28.83920
                      -1.41424                     -49.37559                     -30.14534
                      -1.41204                     -50.47004                     -30.83160
        </DataArray>
        <DataArray type="Float32" Name="RotationalVelocity" NumberOfComponents="3" format="ascii">
                       0.92400                       0.00752                      -0.11374
                       0.92421                       0.00777                      -0.11360
                       0.92475                       0.00845                      -0.11323
                       0.92544                       0.00939                      -0.11272
                       0.92654                       0.01097                      -0.11186
                       0.92809                       0.01339                      -0.11053
                       0.92975                       0.01635                      -0.10889
                       0.93148                       0.01982                      -0.10695
                       0.93322                       0.02379                      -0.10471
                       0.93492                       0.02825                      -0.10217
                       0.93654                       0.03319                      -0.09935
                       0.93803                       0.03841                      -0.09634
                       0.93934                       0.04367                      -0.09330
                       0.94045                       0.04863                      -0.09042
                       0.94129                       0.05278                      -0.08801
                       0.94174                       0.05508                      -0.08667
                       0.94191                       0.05581                      -0.08625
                       0.94194                       0.05559                      -0.08638
                       0.94190                       0.05511                      -0.08667
        </DataArray>
        <DataArray type="Float32" Name="TranslationalAcceleration" NumberOfComponents="3" format="ascii">
                       0.14407                       0.84543                      -1.08596
                       0.01280                       1.44027                      -2.10116
                      -0.24993                       2.70259                      -4.08927
                      -0.52511                       4.00537                      -6.05564
                      -0.89852                       5.66783                      -8.49727
                      -1.40091                       7.57809                     -11.48401
                      -1.97769                       9.41847                     -14.51922
                      -2.66030                      11.28888                     -17.53967
                      -3.51331                      13.19479                     -20.53332
                      -4.63262                      15.14432                     -23.47960
                      -6.09143                      17.13893                     -26.36028
                      -8.05374                      19.18016                     -29.13960
                     -10.65055                      21.25730                     -31.78346
                     -13.98204                      23.35230                     -34.26011
                     -18.08290                      25.44339                     -36.54827
                     -22.02936                      27.17100                     -38.31903
                     -25.47761                      28.53374                     -39.66408
                     -29.05536                      29.85162                     -41.00981
                     -30.85740                      30.54031                     -41.65785
        </DataArray>
        <DataArray type="Float32" Name="OrientationX" NumberOfComponents="3" format="ascii">
                       0.95492                      -0.21951                      -0.19986
                       0.95489                      -0.21929                      -0.20024
                       0.95481                      -0.21865                      -0.20130
                       0.95470                      -0.21778                      -0.20276
                       0.95452                      -0.21634                      -0.20517
                       0.96300                      -0.18754                      -0.19356
                       0.96833                      -0.16557                      -0.18687
                       0.97240                      -0.14537                      -0.18249
                       0.97614                      -0.12342                      -0.17867
                       0.97932                      -0.10001                      -0.17588
                       0.98154                      -0.07653                      -0.17528
                       0.98299                      -0.05230                      -0.17608
                       0.98347                      -0.02908                      -0.17872
                       0.98293                      -0.00958                      -0.18374
                       0.98218                       0.00908                      -0.18774
                       0.98174                       0.02329                      -0.18881
                       0.98171                       0.03262                      -0.18758
                       0.98178                       0.03724                      -0.18631
                       0.98185                       0.03704                      -0.18599
        </DataArray>
        <DataArray type="Float32" Name="OrientationY" NumberOfComponents="3" format="ascii">
                       0.29032                       0.83110                       0.47432
                       0.29033                       0.83108                       0.47436
                       0.29033                       0.83102                       0.47446
                       0.29034                       0.83094                       0.47459
                       0.29036                       0.83083                       0.47478
                       0.25979                       0.83712                       0.48139
                       0.23760                       0.84102                       0.48604
                       0.21813                       0.84398                       0.49002
                       0.19749                       0.84667                       0.49411
                       0.17618                       0.84895                       0.49824
                       0.15598                       0.85064                       0.50207
                       0.13593                       0.85184                       0.50586
                       0.11777                       0.85248                       0.50932
                       0.10402                       0.85265                       0.51202
                       0.09051                       0.85257                       0.51472
                       0.07920                       0.85233                       0.51697
                       0.07079                       0.85206                       0.51864
                       0.06628                       0.85188                       0.51952
                       0.06628                       0.85188                       0.51952
        </DataArray>
        <DataArray type="Float32" Name="OrientationZ" NumberOfComponents="3" format="ascii">
                       0.06199                      -0.51096                       0.85737
                       0.06239                      -0.51110                       0.85726
                       0.06354                      -0.51147                       0.85695
                       0.06512                      -0.51196                       0.85654
                       0.06775                      -0.51275                       0.85586
                       0.07175                      -0.51386                       0.85487
                       0.07669                      -0.51505                       0.85372
                       0.08278                      -0.51630                       0.85240
                       0.09029                      -0.51761                       0.85084
                       0.09949                      -0.51892                       0.84901
                       0.11068                      -0.52014                       0.84688
                       0.12354                      -0.52119                       0.84445
                       0.13754                      -0.52195                       0.84181
                       0.15176                      -0.52239                       0.83909
                       0.16473                      -0.52253                       0.83655
                       0.17297                      -0.52248                       0.83492
                       0.17675                      -0.52243                       0.83416
                       0.17806                      -0.52241                       0.83390
                       0.17769                      -0.52242                       0.83397
        </DataArray>
      </PointData>
      <Lines>
        <DataArray type="Int32" Name="connectivity" format="ascii">
      0      1
      1      2
      2      3
      3      4
      4      5
      5      6
      6      7
      7      8
      8      9
      9     10
     10     11
     11     12
     12     13
     13     14
     14     15
     15     16
     16     17
     17     18
        </DataArray>
        <DataArray type="Int32" Name="offsets" format="ascii">
      2
      4
      6
      8
     10
     12
     14
     16
     18
     20
     22
     24
     26
     28
     30
     32
     34
     36
        </DataArray>
      </Lines>
    </Piece>
  </PolyData>
</VTKFile>
