<?xml version="1.0"?>
<VTKFile type="PolyData" version="0.1" byte_order="LittleEndian">
  <PolyData>
    <Piece NumberOfPoints="     17" NumberOfVerts="  0" NumberOfLines="      0"
           NumberOfStrips="  0" NumberOfPolys="      0">
      <Points>
        <DataArray type="Float32" NumberOfComponents="3" format="ascii">
                       2.34087                       3.01405                      88.87180
                       2.03066                       6.34752                      87.50098
                       1.72844                       9.68125                      86.12903
                       1.43725                      13.01540                      84.75573
                       1.15960                      16.35006                      83.38085
                       0.89821                      19.68527                      82.00414
                       0.65652                      23.02112                      80.62540
                       0.43896                      26.35773                      79.24448
                       0.25091                      29.69512                      77.86117
                       0.09844                      33.03318                      76.47512
                      -0.01218                      36.37155                      75.08589
                      -0.07527                      39.70962                      73.69300
                      -0.08673                      43.04655                      72.29601
                      -0.04537                      46.38147                      70.89472
                       0.04563                      49.71370                      69.48928
                       0.17687                      53.04321                      68.08036
                       0.33076                      56.37094                      66.66941
        </DataArray>
      </Points>
      <PointData>
        <DataArray type="Float32" Name="Force" NumberOfComponents="3" format="ascii">
                     160.85256                     -13.07621                     -68.50342
                     539.33389                     -43.53048                    -224.78149
                    2235.96354                     409.58976                     519.39845
                    3823.29605                     692.32408                     899.15613
                    2319.65132                     375.67006                     458.02575
                    4951.44567                     698.75667                     781.43350
                    5894.19063                     697.75203                     699.86596
                    6483.83669                     625.54930                     558.46057
                    6906.26858                     528.05683                     428.89357
                    8671.12744                     492.30460                     376.10583
                    9951.35487                     367.65667                     296.72053
                   11341.96863                     208.43095                     262.89452
                    6502.11082                      27.19524                     123.15091
                   12958.76607                    -133.14329                     185.54233
                   12470.64505                    -332.01869                     103.90268
                   17599.70605                    -739.95293                     -29.07498
                    7174.85338                    -388.16549                    -138.49379
        </DataArray>
        <DataArray type="Float32" Name="Moment" NumberOfComponents="3" format="ascii">
                     -19.16722                      -4.20373                     -17.43964
                     103.65858                     -88.70273                    -399.72134
                     738.69327                    -494.55802                   -2305.40051
                     731.63146                    -303.89385                   -3186.27260
                      -1.23264                     326.52959                    -396.87205
                    -636.36733                    1425.84209                    2018.60268
                    -380.08455                     721.83685                    1452.28580
                    -113.30599                    -475.66548                     356.55773
                     -17.59006                    -991.13851                    -285.34487
                      12.26380                   -1306.62180                   -1128.67534
                      98.16470                   -2183.29041                   -3367.11969
                     151.90349                   -3012.53548                   -6517.61309
                     -22.95444                     126.02148                     410.48404
                    -148.97355                    3312.29393                    8059.48533
                     -41.83907                    3085.11993                    7453.14722
                    -138.16856                     395.68939                    1224.66318
                    -120.14070                    -234.53380                     -86.82364
        </DataArray>
      </PointData>
    </Piece>
  </PolyData>
</VTKFile>
