<?xml version="1.0"?>
<VTKFile type="PolyData" version="0.1" byte_order="LittleEndian">
  <PolyData>
    <Piece NumberOfPoints="     17" NumberOfVerts="  0" NumberOfLines="      0"
           NumberOfStrips="  0" NumberOfPolys="      0">
      <Points>
        <DataArray type="Float32" NumberOfComponents="3" format="ascii">
                       2.76450                       3.20334                      89.34457
                       2.50617                       6.71064                      88.49636
                       2.25290                      10.21769                      87.64557
                       2.00661                      13.72446                      86.79161
                       1.76884                      17.23094                      85.93405
                       1.54104                      20.73713                      85.07260
                       1.32484                      24.24305                      84.20708
                       1.12217                      27.74875                      83.33744
                       0.93520                      31.25429                      82.46364
                       0.76626                      34.75968                      81.58559
                       0.61762                      38.26490                      80.70322
                       0.49120                      41.76988                      79.81642
                       0.38812                      45.27448                      78.92515
                       0.30820                      48.77859                      78.02954
                       0.24938                      52.28211                      77.12999
                       0.20693                      55.78508                      76.22734
                       0.17271                      59.28771                      75.32301
        </DataArray>
      </Points>
      <PointData>
        <DataArray type="Float32" Name="Force" NumberOfComponents="3" format="ascii">
                     153.19517                      -5.52101                     -69.89020
                     499.16165                     -22.54712                    -242.50206
                    2034.09998                     242.55234                     413.10500
                    3538.72999                     441.52357                     829.34486
                    2132.48676                     244.56337                     429.77745
                    4458.46648                     450.87049                     697.34606
                    5140.90242                     445.98009                     577.57551
                    5370.60325                     390.65310                     391.83695
                    5389.11261                     323.12239                     221.74828
                    6291.74492                     295.43334                      69.38604
                    6510.11460                     217.95739                    -114.34268
                    6665.85653                     137.56314                    -275.06900
                    3428.33131                      36.59174                    -206.59965
                    5935.86764                       0.12810                    -487.16999
                    4782.88166                     -59.98032                    -521.77881
                    6672.74206                    -144.44029                    -848.35989
                    3543.59684                     -82.93102                    -456.17865
        </DataArray>
        <DataArray type="Float32" Name="Moment" NumberOfComponents="3" format="ascii">
                     -19.43163                      -1.10445                     -16.42733
                      67.75990                     -21.70141                    -365.63362
                     569.52004                    -116.68315                   -2149.70348
                     654.46741                     135.46119                   -2970.74092
                      -2.37130                     315.54635                    -298.47478
                    -521.17717                     898.58843                    2060.94916
                    -301.74884                     258.31816                    1491.02229
                     -94.61209                    -790.09934                     484.48457
                     -32.12486                   -1210.06944                     -24.68624
                     -37.27031                   -1528.67886                    -480.86228
                     -59.18488                   -2059.12172                   -1807.75330
                    -173.47019                   -2104.56698                   -3501.21017
                      13.21725                    -497.67846                     451.61109
                     302.94896                    -151.18400                    4638.46023
                     332.40540                    -469.59091                    3579.10822
                     -23.88166                   -1819.77363                     307.55940
                     -92.80376                    -780.04651                    -567.46414
        </DataArray>
      </PointData>
    </Piece>
  </PolyData>
</VTKFile>
