<?xml version="1.0"?>
<VTKFile type="PolyData" version="0.1" byte_order="LittleEndian">
  <PolyData>
    <Piece NumberOfPoints="     17" NumberOfVerts="  0" NumberOfLines="      0"
           NumberOfStrips="  0" NumberOfPolys="      0">
      <Points>
        <DataArray type="Float32" NumberOfComponents="3" format="ascii">
                       2.55220                       1.01870                      87.06153
                       1.97219                       2.17008                      83.68141
                       1.39954                       3.32374                      80.30080
                       0.83713                       4.48042                      76.91951
                       0.28741                       5.64058                      73.53733
                      -0.24698                       6.80443                      70.15396
                      -0.76279                       7.97220                      66.76907
                      -1.25600                       9.14411                      63.38224
                      -1.72177                      10.32030                      59.99303
                      -2.15471                      11.50075                      56.60095
                      -2.54933                      12.68521                      53.20562
                      -2.90070                      13.87320                      49.80677
                      -3.20536                      15.06398                      46.40440
                      -3.46245                      16.25673                      42.99877
                      -3.67512                      17.45058                      39.59043
                      -3.85207                      18.64481                      36.18012
                      -4.00939                      19.83904                      32.76881
        </DataArray>
      </Points>
      <PointData>
        <DataArray type="Float32" Name="Force" NumberOfComponents="3" format="ascii">
                     143.71232                     -49.86552                     -41.71515
                     491.57622                    -171.00605                    -141.49080
                    1834.51646                     635.32066                     -89.51297
                    3061.78672                    1053.39933                    -142.17770
                    1892.70106                     576.80468                    -106.58283
                    4199.22115                    1133.96925                    -268.08231
                    5209.61003                    1220.74774                    -363.38506
                    5913.55232                    1188.68651                    -432.86511
                    6450.43701                    1131.09994                    -468.41348
                    8236.42564                    1255.84522                    -572.60268
                    9543.91607                    1266.25872                    -605.44712
                   10919.43607                    1288.24410                    -592.98182
                    6255.32250                     666.78227                    -295.00078
                   12424.98882                    1169.84230                    -501.49906
                   11888.16907                     937.39556                    -397.77317
                   16707.30611                    1007.33541                    -502.86139
                    6822.85163                     255.40596                    -232.26453
        </DataArray>
        <DataArray type="Float32" Name="Moment" NumberOfComponents="3" format="ascii">
                     -17.31116                     -17.06052                      -6.95183
                      86.99858                    -301.53368                    -163.33190
                     660.67734                   -1715.27312                    -837.91689
                     638.76499                   -2212.95785                   -1120.56648
                      25.58613                    -170.89788                    -159.93690
                    -533.63758                    1853.24858                     694.56758
                    -307.46097                    1164.11976                     818.26734
                      26.04719                    -259.73078                     953.26955
                     139.59856                    -956.43483                     765.96388
                     198.23928                   -1709.36294                     352.67725
                     405.35601                   -3815.76404                    -575.42087
                     617.36212                   -6569.17302                   -2106.60866
                     -48.60443                     406.84168                     166.78025
                    -696.97959                    7949.18403                    2877.07188
                    -549.53793                    7304.34065                    2649.52501
                    -217.76191                    1162.94000                     580.57947
                     -89.19302                    -225.43897                     137.37832
        </DataArray>
      </PointData>
    </Piece>
  </PolyData>
</VTKFile>
