<?xml version="1.0"?>
<VTKFile type="PolyData" version="0.1" byte_order="LittleEndian">
  <PolyData>
    <Piece NumberOfPoints="     19" NumberOfVerts="  0" NumberOfLines="     18"
           NumberOfStrips="  0" NumberOfPolys="      0">
      <Points>
        <DataArray type="Float32" NumberOfComponents="3" format="ascii">
                       2.56383                      -1.39672                      89.53473
                       2.44018                      -2.64411                      88.99010
                       2.16178                      -5.09943                      87.81724
                       1.87186                      -7.53555                      86.60296
                       1.50811                     -10.56840                      85.05747
                       1.15288                     -14.26568                      83.31882
                       0.85442                     -18.01432                      81.68603
                       0.57796                     -21.76149                      80.04595
                       0.33207                     -25.50780                      78.39893
                       0.12308                     -29.25221                      76.74240
                      -0.04763                     -32.99323                      75.07381
                      -0.16681                     -36.73077                      73.39286
                      -0.22791                     -40.46433                      71.69989
                      -0.22759                     -44.19346                      69.99595
                      -0.16576                     -47.91781                      68.28253
                      -0.07493                     -51.01821                      66.84935
                       0.01790                     -53.50012                      65.70762
                       0.12048                     -56.00487                      64.61493
                       0.16683                     -57.23966                      64.03110
        </DataArray>
      </Points>
      <PointData>
        <DataArray type="Float32" Name="Force" NumberOfComponents="3" format="ascii">
                       0.60992                      -2.33360                       5.24597
                      82.63653                     -17.50685                      21.69963
                     109.77523                     -35.65783                      57.76119
                     101.20386                     -42.33392                      75.46681
                     791.77420                     110.62722                    -422.02002
                    1029.45345                     123.51945                    -490.04580
                    1201.59753                     120.16737                    -499.76834
                    1549.75943                     136.37939                    -575.02599
                    1693.88302                     133.44349                    -556.84582
                    1962.57438                     149.52804                    -583.12782
                    2431.00269                     186.92358                    -650.78985
                    2804.79029                     229.38482                    -682.90107
                    3284.85495                     301.11012                    -747.55763
                    3628.37639                     366.58235                    -762.22899
                    3943.70627                     432.51848                    -766.77313
                    4134.00948                     469.80196                    -748.98395
                    4055.26719                     459.35758                    -690.51079
                    2942.71109                     325.91688                    -474.50124
                    1285.87136                      89.90391                     -91.82212
        </DataArray>
        <DataArray type="Float32" Name="Moment" NumberOfComponents="3" format="ascii">
                       0.00000                       0.00000                       0.00000
                       0.00000                       0.00000                       0.00000
                       0.00000                       0.00000                       0.00000
                       0.00000                       0.00000                       0.00000
                      20.28155                     221.17844                      96.03043
                      37.47296                     430.94248                     187.34258
                      45.48806                     560.96315                     244.24877
                      57.27630                     775.40260                     338.26891
                      67.13639                    1033.30332                     451.84643
                      62.69777                    1158.64987                     508.12132
                      49.32199                    1205.33519                     530.44383
                      32.77137                    1270.49644                     561.35424
                      10.78894                    1157.36801                     513.58625
                      -8.54481                    1154.34337                     514.48860
                     -25.24188                    1113.39672                     498.21527
                     -34.16908                    1055.66218                     473.57070
                     -34.54784                     938.77324                     421.61816
                     -18.21391                     475.46708                     213.62319
                     -15.09759                     399.01226                     179.25090
        </DataArray>
        <DataArray type="Float32" Name="TranslationalVelocity" NumberOfComponents="3" format="ascii">
                      -0.57392                       0.52299                      -1.30799
                      -0.70281                       1.04222                      -2.46793
                      -0.95558                       2.16153                      -4.75122
                      -1.20673                       3.32007                      -7.01568
                      -1.52105                       4.79309                      -9.83275
                      -1.90969                       6.44280                     -13.26236
                      -2.31050                       7.98655                     -16.73437
                      -2.71744                       9.53298                     -20.19999
                      -3.13134                      11.08077                     -23.65972
                      -3.55255                      12.63154                     -27.11278
                      -3.98027                      14.18763                     -30.55855
                      -4.41515                      15.74761                     -33.99685
                      -4.85658                      17.31036                     -37.42777
                      -5.30351                      18.87456                     -40.85148
                      -5.75430                      20.43895                     -44.26833
                      -6.13140                      21.74214                     -47.11144
                      -6.43349                      22.77761                     -49.38686
                      -6.73728                      23.76695                     -51.68315
                      -6.88653                      24.29664                     -52.81520
        </DataArray>
        <DataArray type="Float32" Name="RotationalVelocity" NumberOfComponents="3" format="ascii">
                       0.92887                      -0.01207                      -0.10847
                       0.92871                      -0.01201                      -0.10857
                       0.92831                      -0.01186                      -0.10884
                       0.92781                      -0.01165                      -0.10921
                       0.92702                      -0.01129                      -0.10985
                       0.92592                      -0.01074                      -0.11087
                       0.92473                      -0.01008                      -0.11212
                       0.92352                      -0.00933                      -0.11357
                       0.92233                      -0.00853                      -0.11515
                       0.92120                      -0.00770                      -0.11681
                       0.92017                      -0.00687                      -0.11848
                       0.91926                      -0.00610                      -0.12007
                       0.91848                      -0.00541                      -0.12148
                       0.91784                      -0.00486                      -0.12261
                       0.91737                      -0.00450                      -0.12334
                       0.91714                      -0.00439                      -0.12353
                       0.91707                      -0.00446                      -0.12335
                       0.91708                      -0.00465                      -0.12291
                       0.91712                      -0.00479                      -0.12260
        </DataArray>
        <DataArray type="Float32" Name="TranslationalAcceleration" NumberOfComponents="3" format="ascii">
                       1.19468                       1.22867                       0.63535
                       1.25002                       2.34709                       1.05719
                       1.36425                       4.55306                       1.97970
                       1.47809                       6.74215                       2.94085
                       1.61697                       9.46507                       4.16735
                       1.76704                      12.76986                       5.52598
                       1.89796                      16.10527                       6.78494
                       2.01936                      19.43103                       8.04775
                       2.14288                      22.74841                       9.30929
                       2.28922                      26.05827                      10.56581
                       2.47948                      29.36223                      11.81530
                       2.74949                      32.66305                      13.04990
                       3.13375                      35.96492                      14.26476
                       3.66205                      39.27281                      15.45742
                       4.35147                      42.59167                      16.62833
                       5.04326                      45.36753                      17.59032
                       5.66502                      47.59717                      18.34670
                       6.32092                      49.84697                      19.05593
                       6.65592                      50.95912                      19.44345
        </DataArray>
        <DataArray type="Float32" Name="OrientationX" NumberOfComponents="3" format="ascii">
                       0.93941                       0.05415                      -0.33848
                       0.93946                       0.05458                      -0.33829
                       0.93958                       0.05581                      -0.33776
                       0.93974                       0.05749                      -0.33703
                       0.94000                       0.06028                      -0.33581
                       0.95044                       0.05158                      -0.30659
                       0.95754                       0.04736                      -0.28439
                       0.96343                       0.04540                      -0.26410
                       0.96924                       0.04434                      -0.24207
                       0.97478                       0.04460                      -0.21865
                       0.97960                       0.04725                      -0.19530
                       0.98387                       0.05152                      -0.17128
                       0.98725                       0.05764                      -0.14838
                       0.98942                       0.06577                      -0.12935
                       0.99115                       0.07271                      -0.11105
                       0.99239                       0.07592                      -0.09692
                       0.99327                       0.07598                      -0.08748
                       0.99372                       0.07528                      -0.08275
                       0.99374                       0.07489                      -0.08293
        </DataArray>
        <DataArray type="Float32" Name="OrientationY" NumberOfComponents="3" format="ascii">
                       0.33076                      -0.40251                       0.85357
                       0.33075                      -0.40261                       0.85353
                       0.33072                      -0.40285                       0.85343
                       0.33069                      -0.40315                       0.85330
                       0.33065                      -0.40359                       0.85310
                       0.30044                      -0.40598                       0.86309
                       0.27844                      -0.40776                       0.86960
                       0.25910                      -0.40933                       0.87482
                       0.23856                      -0.41091                       0.87991
                       0.21732                      -0.41248                       0.88467
                       0.19714                      -0.41395                       0.88870
                       0.17708                      -0.41544                       0.89222
                       0.15885                      -0.41688                       0.89497
                       0.14503                      -0.41812                       0.89674
                       0.13141                      -0.41938                       0.89825
                       0.12000                      -0.42043                       0.89936
                       0.11149                      -0.42118                       0.90010
                       0.10692                      -0.42158                       0.90047
                       0.10692                      -0.42157                       0.90047
        </DataArray>
        <DataArray type="Float32" Name="OrientationZ" NumberOfComponents="3" format="ascii">
                      -0.09002                      -0.91381                      -0.39603
                      -0.08961                      -0.91374                      -0.39628
                      -0.08843                      -0.91356                      -0.39697
                      -0.08681                      -0.91333                      -0.39786
                      -0.08410                      -0.91295                      -0.39930
                      -0.07995                      -0.91243                      -0.40136
                      -0.07478                      -0.91186                      -0.40363
                      -0.06838                      -0.91125                      -0.40613
                      -0.06046                      -0.91060                      -0.40885
                      -0.05073                      -0.90988                      -0.41177
                      -0.03885                      -0.90907                      -0.41482
                      -0.02519                      -0.90816                      -0.41786
                      -0.01027                      -0.90713                      -0.42072
                       0.00489                      -0.90601                      -0.42323
                       0.01874                      -0.90489                      -0.42523
                       0.02753                      -0.90414                      -0.42634
                       0.03154                      -0.90379                      -0.42682
                       0.03291                      -0.90366                      -0.42698
                       0.03248                      -0.90370                      -0.42694
        </DataArray>
      </PointData>
      <Lines>
        <DataArray type="Int32" Name="connectivity" format="ascii">
      0      1
      1      2
      2      3
      3      4
      4      5
      5      6
      6      7
      7      8
      8      9
      9     10
     10     11
     11     12
     12     13
     13     14
     14     15
     15     16
     16     17
     17     18
        </DataArray>
        <DataArray type="Int32" Name="offsets" format="ascii">
      2
      4
      6
      8
     10
     12
     14
     16
     18
     20
     22
     24
     26
     28
     30
     32
     34
     36
        </DataArray>
      </Lines>
    </Piece>
  </PolyData>
</VTKFile>
