<?xml version="1.0"?>
<VTKFile type="PolyData" version="0.1" byte_order="LittleEndian">
  <PolyData>
    <Piece NumberOfPoints="     17" NumberOfVerts="  0" NumberOfLines="      0"
           NumberOfStrips="  0" NumberOfPolys="      0">
      <Points>
        <DataArray type="Float32" NumberOfComponents="3" format="ascii">
                       3.19193                       1.76510                      92.92301
                       3.41396                       3.72285                      95.95703
                       3.64500                       5.68069                      98.99032
                       3.88848                       7.63845                     102.02268
                       4.14726                       9.59606                     105.05387
                       4.42425                      11.55345                     108.08358
                       4.72291                      13.51046                     111.11147
                       5.04746                      15.46680                     114.13713
                       5.40282                      17.42214                     117.15996
                       5.79443                      19.37614                     120.17915
                       6.22771                      21.32855                     123.19366
                       6.70742                      23.27915                     126.20230
                       7.23667                      25.22783                     129.20387
                       7.81582                      27.17456                     132.19752
                       8.44106                      29.11947                     135.18313
                       9.10289                      31.06298                     138.16182
                       9.78428                      33.00580                     141.13662
        </DataArray>
      </Points>
      <PointData>
        <DataArray type="Float32" Name="Force" NumberOfComponents="3" format="ascii">
                     192.64295                      57.37043                     -50.93650
                     615.62020                     187.56972                    -167.81449
                    2371.77516                    -649.33900                     229.50135
                    4074.74975                   -1229.94478                     451.34128
                    2474.63975                    -682.01987                     221.17014
                    5275.66364                   -1268.04060                     322.26227
                    6287.95744                   -1306.02128                     201.20065
                    6923.60783                   -1253.77082                      33.86423
                    7334.27533                   -1186.77617                    -140.23541
                    9115.73884                   -1333.90413                    -387.61728
                   10327.44691                   -1392.48384                    -678.14695
                   11673.19478                   -1510.71490                   -1008.98627
                    6644.08596                    -835.61164                    -679.05296
                   13133.40078                   -1596.20553                   -1554.54665
                   12520.26523                   -1450.08361                   -1712.24766
                   17439.46792                   -1845.35163                   -2700.76899
                    7164.20044                    -638.73351                   -1218.80871
        </DataArray>
        <DataArray type="Float32" Name="Moment" NumberOfComponents="3" format="ascii">
                     -20.52501                      21.07531                      -5.99625
                     120.54279                     379.25139                    -176.63551
                     849.45876                    2206.89277                   -1101.53196
                    1050.70962                    3161.84053                   -1139.36070
                      73.25634                     440.70461                     208.49921
                    -680.73238                   -1850.10297                    1868.82193
                    -447.82724                   -1391.57791                    1014.09108
                    -220.49032                    -493.04150                    -458.82584
                    -130.71547                      63.10582                   -1106.84110
                     -71.67747                     839.12837                   -1603.87420
                      97.64458                    2923.77421                   -2984.18207
                     319.26860                    5978.74069                   -4434.39487
                     -60.35885                    -445.82873                     147.70786
                    -456.73357                   -7650.49336                    4740.98763
                    -302.37238                   -7045.99009                    4329.15916
                    -266.91119                   -1423.64765                     449.08659
                    -162.74061                     126.10430                    -425.70580
        </DataArray>
      </PointData>
    </Piece>
  </PolyData>
</VTKFile>
