<?xml version="1.0"?>
<VTKFile type="PolyData" version="0.1" byte_order="LittleEndian">
  <PolyData>
    <Piece NumberOfPoints="     19" NumberOfVerts="  0" NumberOfLines="     18"
           NumberOfStrips="  0" NumberOfPolys="      0">
      <Points>
        <DataArray type="Float32" NumberOfComponents="3" format="ascii">
                       2.57211                      -2.27113                      87.74713
                       2.10165                      -4.74664                      85.15138
                       1.63679                      -7.21873                      82.55139
                       1.17993                      -9.68645                      79.94581
                       0.73323                     -12.14920                      77.33379
                       0.29883                     -14.60673                      74.71480
                      -0.12115                     -17.05897                      72.08851
                      -0.52454                     -19.50595                      69.45471
                      -0.90916                     -21.94780                      66.81338
                      -1.27292                     -24.38478                      64.16459
                      -1.61404                     -26.81719                      61.50861
                      -1.93129                     -29.24544                      58.84587
                      -2.22443                     -31.66997                      56.17698
                      -2.49460                     -34.09130                      53.50276
                      -2.74490                     -36.51007                      50.82428
                      -2.98095                     -38.92703                      48.14286
                      -3.21165                     -41.34311                      45.46018
                      -3.32701                     -42.55106                      44.11875
                       2.80842                      -1.03268                      89.04414
        </DataArray>
      </Points>
      <PointData>
        <DataArray type="Float32" Name="TranslationalVelocity" NumberOfComponents="3" format="ascii">
                      -0.10929                       2.21339                      -2.09246
                      -0.38193                       4.68463                      -4.39980
                      -0.63285                       7.16634                      -6.71453
                      -0.85343                       9.66171                      -9.03916
                      -1.03616                      12.17270                     -11.37534
                      -1.17228                      14.70040                     -13.72455
                      -1.25045                      17.24574                     -16.08859
                      -1.25593                      19.80963                     -18.46963
                      -1.17057                      22.39285                     -20.86997
                      -0.97365                      24.99593                     -23.29169
                      -0.64356                      27.61916                     -25.73620
                      -0.16038                      30.26236                     -28.20386
                       0.49069                      32.92483                     -30.69378
                       1.31503                      35.60524                     -33.20383
                       2.30335                      38.30111                     -35.73066
                       3.42573                      41.00834                     -38.26993
                       4.62469                      43.72094                     -40.81648
                       5.23419                      45.07773                     -42.09088
                       0.03123                       0.97989                      -0.94025
        </DataArray>
        <DataArray type="Float32" Name="RotationalVelocity" NumberOfComponents="3" format="ascii">
                       0.93065                       0.00151                      -0.11188
                       0.93339                      -0.00206                      -0.10897
                       0.93747                      -0.00772                      -0.10431
                       0.94240                      -0.01490                      -0.09835
                       0.94784                      -0.02367                      -0.09096
                       0.95376                      -0.03443                      -0.08176
                       0.96025                      -0.04783                      -0.07014
                       0.96736                      -0.06459                      -0.05542
                       0.97506                      -0.08534                      -0.03700
                       0.98322                      -0.11046                      -0.01449
                       0.99161                      -0.13986                       0.01208
                       0.99992                      -0.17289                       0.04213
                       1.00778                      -0.20809                       0.07433
                       1.01481                      -0.24307                       0.10648
                       1.02047                      -0.27434                       0.13533
                       1.02419                      -0.29713                       0.15643
                       1.02543                      -0.30523                       0.16395
                       1.02537                      -0.30473                       0.16349
                       0.92968                       0.00266                      -0.11281
        </DataArray>
        <DataArray type="Float32" Name="TranslationalAcceleration" NumberOfComponents="3" format="ascii">
                       0.94608                       1.98723                       1.96522
                       1.13221                       4.32564                       4.13370
                       1.25177                       6.56170                       6.43994
                       1.26874                       8.66810                       8.92436
                       1.14707                      10.62816                      11.61306
                       0.86753                      12.43651                      14.51631
                       0.44245                      14.09756                      17.63053
                      -0.07682                      15.62390                      20.94076
                      -0.59882                      17.03468                      24.42392
                      -0.99517                      18.35366                      28.05341
                      -1.10905                      19.60744                      31.80395
                      -0.76955                      20.82385                      35.65545
                       0.18841                      22.03062                      39.59458
                       1.89828                      23.25334                      43.61292
                       4.43003                      24.51102                      47.70141
                       7.75261                      25.80983                      51.84147
                      11.69123                      27.13838                      55.99492
                      13.78230                      27.80747                      58.06869
                       0.84036                       0.79646                       0.90961
        </DataArray>
        <DataArray type="Float32" Name="RotationalAcceleration" NumberOfComponents="3" format="ascii">
                       0.07817                       0.01834                      -0.00540
                       0.03998                       0.03233                      -0.01179
                      -0.01314                       0.05425                      -0.02303
                      -0.07698                       0.08531                      -0.04103
                      -0.14621                       0.12332                      -0.06471
                      -0.21581                       0.16269                      -0.08961
                      -0.28167                       0.19552                      -0.10894
                      -0.34028                       0.21342                      -0.11534
                      -0.38928                       0.20831                      -0.10149
                      -0.42754                       0.17338                      -0.06112
                      -0.45513                       0.10430                       0.00995
                      -0.47308                       0.00021                       0.11272
                      -0.48280                      -0.13522                       0.24393
                      -0.48590                      -0.29274                       0.39504
                      -0.48428                      -0.45644                       0.55120
                      -0.47970                      -0.60282                       0.69027
                      -0.47298                      -0.69978                       0.78171
                      -0.46911                      -0.73132                       0.81115
                       0.09310                       0.01294                      -0.00297
        </DataArray>
        <DataArray type="Float32" Name="OrientationX" NumberOfComponents="3" format="ascii">
                       0.94243                       0.13880                      -0.30424
                       0.94263                       0.13984                      -0.30315
                       0.94293                       0.14147                      -0.30144
                       0.94733                       0.13399                      -0.29089
                       0.95646                       0.11411                      -0.26864
                       0.96150                       0.10415                      -0.25431
                       0.96634                       0.09436                      -0.23935
                       0.97112                       0.08414                      -0.22326
                       0.97563                       0.07407                      -0.20653
                       0.97965                       0.06489                      -0.18991
                       0.98330                       0.05613                      -0.17314
                       0.98645                       0.04816                      -0.15682
                       0.98884                       0.04254                      -0.14277
                       0.99078                       0.03765                      -0.13016
                       0.99245                       0.03193                      -0.11841
                       0.99382                       0.02493                      -0.10818
                       0.99451                       0.01900                      -0.10289
                       0.99466                       0.01658                      -0.10191
                       0.94236                       0.13844                      -0.30462
        </DataArray>
        <DataArray type="Float32" Name="OrientationY" NumberOfComponents="3" format="ascii">
                       0.30783                      -0.71551                       0.62712
                       0.30773                      -0.71605                       0.62656
                       0.30759                      -0.71679                       0.62578
                       0.29485                      -0.71947                       0.62882
                       0.26519                      -0.72423                       0.63653
                       0.24807                      -0.72710                       0.64015
                       0.23067                      -0.72980                       0.64358
                       0.21220                      -0.73238                       0.64699
                       0.19342                      -0.73474                       0.65019
                       0.17539                      -0.73680                       0.65297
                       0.15758                      -0.73862                       0.65545
                       0.14067                      -0.74017                       0.65754
                       0.12703                      -0.74137                       0.65896
                       0.11493                      -0.74236                       0.66007
                       0.10279                      -0.74317                       0.66116
                       0.09074                      -0.74378                       0.66224
                       0.08280                      -0.74405                       0.66298
                       0.08035                      -0.74409                       0.66323
                       0.30787                      -0.71530                       0.62735
        </DataArray>
        <DataArray type="Float32" Name="OrientationZ" NumberOfComponents="3" format="ascii">
                      -0.13064                      -0.68468                      -0.71704
                      -0.12945                      -0.68390                      -0.71800
                      -0.12754                      -0.68279                      -0.71939
                      -0.12503                      -0.68147                      -0.72108
                      -0.12193                      -0.68005                      -0.72296
                      -0.11823                      -0.67859                      -0.72494
                      -0.11395                      -0.67712                      -0.72699
                      -0.10907                      -0.67568                      -0.72908
                      -0.10359                      -0.67430                      -0.73116
                      -0.09756                      -0.67299                      -0.73319
                      -0.09109                      -0.67178                      -0.73513
                      -0.08441                      -0.67070                      -0.73691
                      -0.07781                      -0.66974                      -0.73850
                      -0.07177                      -0.66895                      -0.73984
                      -0.06689                      -0.66834                      -0.74084
                      -0.06395                      -0.66796                      -0.74144
                      -0.06396                      -0.66786                      -0.74154
                      -0.06483                      -0.66788                      -0.74144
                      -0.13104                      -0.68497                      -0.71669
        </DataArray>
      </PointData>
      <Lines>
        <DataArray type="Int32" Name="connectivity" format="ascii">
      0      1
      1      2
      2      3
      3      4
      4      5
      5      6
      6      7
      7      8
      8      9
      9     10
     10     11
     11     12
     12     13
     13     14
     14     15
     15     16
     16     17
     18      0
        </DataArray>
        <DataArray type="Int32" Name="offsets" format="ascii">
      2
      4
      6
      8
     10
     12
     14
     16
     18
     20
     22
     24
     26
     28
     30
     32
     34
     36
        </DataArray>
      </Lines>
    </Piece>
  </PolyData>
</VTKFile>
