<?xml version="1.0"?>
<VTKFile type="PolyData" version="0.1" byte_order="LittleEndian">
  <PolyData>
    <Piece NumberOfPoints="     19" NumberOfVerts="  0" NumberOfLines="     18"
           NumberOfStrips="  0" NumberOfPolys="      0">
      <Points>
        <DataArray type="Float32" NumberOfComponents="3" format="ascii">
                       3.22197                      -1.30924                      90.93430
                       3.25243                      -2.47721                      91.64338
                       3.28185                      -4.86172                      92.98316
                       3.29944                      -7.26994                      94.28452
                       3.31963                     -10.29553                      95.88610
                       3.42509                     -13.85633                      97.91829
                       3.58678                     -17.35384                     100.05143
                       3.76901                     -20.85345                     102.17946
                       3.97950                     -24.35442                     104.30273
                       4.22336                     -27.85765                     106.41874
                       4.50109                     -31.36442                     108.52471
                       4.82390                     -34.87374                     110.62002
                       5.19677                     -38.38471                     112.70429
                       5.62182                     -41.89624                     114.77764
                       6.09877                     -45.40729                     116.84058
                       6.52899                     -48.33234                     118.55336
                       6.88983                     -50.66772                     119.92732
                       7.25927                     -52.97508                     121.34778
                       7.43873                     -54.14992                     122.02247
        </DataArray>
      </Points>
      <PointData>
        <DataArray type="Float32" Name="Force" NumberOfComponents="3" format="ascii">
                       0.61079                       2.93354                       4.77666
                      78.72755                      14.71864                      20.60163
                     101.81220                      34.17918                      51.22706
                      93.15907                      44.28424                      67.92243
                     678.15873                    -170.05219                    -316.18547
                     879.80231                    -188.06899                    -364.10926
                    1004.88872                    -174.49996                    -359.86404
                    1285.60540                    -184.80797                    -412.95564
                    1385.96954                    -158.09325                    -397.99424
                    1596.14109                    -145.59514                    -426.59574
                    1973.06784                    -133.12595                    -491.87975
                    2254.43199                    -104.70846                    -537.87239
                    2685.74899                     -83.84304                    -642.86806
                    2961.68699                     -40.09032                    -699.54050
                    3227.30705                       7.72036                    -753.29039
                    3396.29710                      48.09938                    -776.54843
                    3341.91084                      73.78112                    -741.91106
                    2455.21176                      64.72454                    -532.24199
                    1260.57471                      80.76972                    -192.08395
        </DataArray>
        <DataArray type="Float32" Name="Moment" NumberOfComponents="3" format="ascii">
                       0.00000                       0.00000                       0.00000
                       0.00000                       0.00000                       0.00000
                       0.00000                       0.00000                       0.00000
                       0.00000                       0.00000                       0.00000
                      -5.91837                     176.24866                    -107.48459
                     -14.95070                     389.63880                    -237.38106
                     -22.54922                     509.53806                    -310.04438
                     -36.39407                     707.94929                    -430.12633
                     -57.58396                     958.40636                    -581.23251
                     -74.78067                    1060.52945                    -641.75146
                     -93.24169                    1123.57951                    -678.11242
                    -114.32746                    1177.22730                    -708.36345
                    -113.01699                    1005.97377                    -603.35737
                    -127.83835                    1001.35232                    -598.62395
                    -137.55537                     972.01420                    -579.36373
                    -139.00887                     925.54353                    -550.63837
                    -126.77825                     822.99511                    -489.22320
                     -64.44614                     415.26244                    -246.78861
                     -56.74243                     366.92748                    -218.08924
        </DataArray>
        <DataArray type="Float32" Name="TranslationalVelocity" NumberOfComponents="3" format="ascii">
                      -0.17707                      -0.77604                      -1.16925
                      -0.31542                      -1.43460                      -2.24807
                      -0.59717                      -2.67541                      -4.45012
                      -0.87951                      -3.87862                      -6.67252
                      -1.22999                      -5.35812                      -9.46197
                      -1.63491                      -7.24260                     -12.74089
                      -2.02278                      -9.22341                     -15.95706
                      -2.40096                     -11.19840                     -19.17050
                      -2.77026                     -13.16851                     -22.38037
                      -3.13298                     -15.13182                     -25.58727
                      -3.49270                     -17.08616                     -28.79261
                      -3.85279                     -19.03187                     -31.99461
                      -4.21778                     -20.96946                     -35.19211
                      -4.59203                     -22.89985                     -38.38392
                      -4.97898                     -24.82434                     -41.56920
                      -5.31204                     -26.42498                     -44.21875
                      -5.58509                     -27.71046                     -46.33189
                      -5.86006                     -29.03907                     -48.41848
                      -6.00080                     -29.67062                     -49.48078
        </DataArray>
        <DataArray type="Float32" Name="RotationalVelocity" NumberOfComponents="3" format="ascii">
                       0.92391                      -0.00055                      -0.11845
                       0.92369                      -0.00041                      -0.11820
                       0.92314                      -0.00006                      -0.11760
                       0.92249                       0.00041                      -0.11681
                       0.92154                       0.00116                      -0.11554
                       0.92027                       0.00227                      -0.11367
                       0.91891                       0.00348                      -0.11163
                       0.91747                       0.00466                      -0.10963
                       0.91598                       0.00567                      -0.10791
                       0.91440                       0.00635                      -0.10672
                       0.91275                       0.00653                      -0.10636
                       0.91104                       0.00615                      -0.10690
                       0.90934                       0.00522                      -0.10835
                       0.90772                       0.00379                      -0.11062
                       0.90628                       0.00204                      -0.11343
                       0.90535                       0.00053                      -0.11586
                       0.90484                      -0.00053                      -0.11757
                       0.90454                      -0.00140                      -0.11899
                       0.90447                      -0.00175                      -0.11956
        </DataArray>
        <DataArray type="Float32" Name="TranslationalAcceleration" NumberOfComponents="3" format="ascii">
                      -1.42642                       1.08148                      -0.76763
                      -1.52173                       2.07961                      -1.39948
                      -1.70400                       4.11703                      -2.59762
                      -1.88936                       6.16747                      -3.77202
                      -2.13317                       8.73009                      -5.23623
                      -2.47005                      11.71668                      -7.11655
                      -2.85432                      14.61166                      -9.11294
                      -3.26042                      17.47248                     -11.13881
                      -3.65951                      20.29552                     -13.20107
                      -4.00292                      23.07957                     -15.30706
                      -4.24237                      25.82989                     -17.45894
                      -4.29679                      28.54430                     -19.67429
                      -4.08979                      31.22957                     -21.96492
                      -3.55695                      33.89669                     -24.34030
                      -2.66342                      36.55925                     -26.80433
                      -1.65889                      38.78262                     -28.91935
                      -0.70529                      40.56259                     -30.65048
                       0.32154                      42.31438                     -32.43176
                       0.84919                      43.21384                     -33.29802
        </DataArray>
        <DataArray type="Float32" Name="OrientationX" NumberOfComponents="3" format="ascii">
                       0.94223                      -0.15592                      -0.29645
                       0.94222                      -0.15555                      -0.29668
                       0.94219                      -0.15447                      -0.29734
                       0.94215                      -0.15301                      -0.29823
                       0.94207                      -0.15058                      -0.29970
                       0.95212                      -0.13098                      -0.27623
                       0.95868                      -0.11495                      -0.26022
                       0.96390                      -0.09941                      -0.24702
                       0.96890                      -0.08214                      -0.23342
                       0.97346                      -0.06325                      -0.21996
                       0.97711                      -0.04345                      -0.20825
                       0.98009                      -0.02252                      -0.19728
                       0.98211                      -0.00177                      -0.18828
                       0.98297                       0.01673                      -0.18302
                       0.98358                       0.03399                      -0.17724
                       0.98416                       0.04627                      -0.17112
                       0.98477                       0.05347                      -0.16543
                       0.98516                       0.05665                      -0.16199
                       0.98523                       0.05625                      -0.16175
        </DataArray>
        <DataArray type="Float32" Name="OrientationY" NumberOfComponents="3" format="ascii">
                       0.33418                       0.49772                       0.80037
                       0.33418                       0.49767                       0.80040
                       0.33419                       0.49755                       0.80048
                       0.33419                       0.49740                       0.80057
                       0.33420                       0.49718                       0.80070
                       0.30399                       0.50137                       0.81007
                       0.28203                       0.50387                       0.81644
                       0.26273                       0.50570                       0.82173
                       0.24225                       0.50731                       0.82702
                       0.22107                       0.50859                       0.83214
                       0.20098                       0.50943                       0.83672
                       0.18099                       0.50986                       0.84100
                       0.16286                       0.50986                       0.84470
                       0.14911                       0.50956                       0.84742
                       0.13558                       0.50905                       0.84999
                       0.12425                       0.50848                       0.85206
                       0.11580                       0.50799                       0.85354
                       0.11128                       0.50771                       0.85431
                       0.11127                       0.50771                       0.85431
        </DataArray>
        <DataArray type="Float32" Name="OrientationZ" NumberOfComponents="3" format="ascii">
                       0.02275                      -0.85321                       0.52108
                       0.02315                      -0.85330                       0.52090
                       0.02429                      -0.85357                       0.52041
                       0.02584                      -0.85392                       0.51976
                       0.02843                      -0.85448                       0.51870
                       0.03239                      -0.85526                       0.51718
                       0.03727                      -0.85610                       0.51547
                       0.04323                      -0.85696                       0.51356
                       0.05048                      -0.85784                       0.51143
                       0.05923                      -0.85868                       0.50907
                       0.06973                      -0.85942                       0.50650
                       0.08165                      -0.85996                       0.50378
                       0.09450                      -0.86025                       0.50103
                       0.10744                      -0.86027                       0.49839
                       0.11912                      -0.86007                       0.49608
                       0.12643                      -0.85983                       0.49468
                       0.12968                      -0.85970                       0.49406
                       0.13064                      -0.85966                       0.49388
                       0.13018                      -0.85969                       0.49395
        </DataArray>
      </PointData>
      <Lines>
        <DataArray type="Int32" Name="connectivity" format="ascii">
      0      1
      1      2
      2      3
      3      4
      4      5
      5      6
      6      7
      7      8
      8      9
      9     10
     10     11
     11     12
     12     13
     13     14
     14     15
     15     16
     16     17
     17     18
        </DataArray>
        <DataArray type="Int32" Name="offsets" format="ascii">
      2
      4
      6
      8
     10
     12
     14
     16
     18
     20
     22
     24
     26
     28
     30
     32
     34
     36
        </DataArray>
      </Lines>
    </Piece>
  </PolyData>
</VTKFile>
