<?xml version="1.0"?>
<VTKFile type="PolyData" version="0.1" byte_order="LittleEndian">
  <PolyData>
    <Piece NumberOfPoints="     17" NumberOfVerts="  0" NumberOfLines="      0"
           NumberOfStrips="  0" NumberOfPolys="      0">
      <Points>
        <DataArray type="Float32" NumberOfComponents="3" format="ascii">
                       2.38037                       2.21402                      87.73241
                       1.91337                       4.65447                      85.10306
                       1.45388                       7.09363                      82.47119
                       1.00470                       9.53130                      79.83617
                       0.56807                      11.96735                      77.19754
                       0.14648                      14.40174                      74.55495
                      -0.25688                      16.83463                      71.90814
                      -0.63778                      19.26632                      69.25691
                      -0.99099                      21.69710                      66.60104
                      -1.31056                      24.12718                      63.94027
                      -1.59024                      26.55652                      61.27438
                      -1.82431                      28.98485                      58.60318
                      -2.00852                      31.41162                      55.92668
                      -2.14140                      33.83626                      53.24517
                      -2.22575                      36.25829                      50.55930
                      -2.27043                      38.67774                      47.87005
                      -2.29238                      41.09549                      45.17893
        </DataArray>
      </Points>
      <PointData>
        <DataArray type="Float32" Name="Force" NumberOfComponents="3" format="ascii">
                     157.76304                     -29.32469                     -55.40974
                     566.43366                    -102.08817                    -193.78624
                    2340.97834                     703.74289                     253.36026
                    3809.99884                    1132.41835                     415.46963
                    2306.40829                     614.22952                     195.60973
                    5030.89050                    1188.30939                     313.29180
                    6125.51442                    1249.71671                     247.29770
                    6872.83722                    1193.25251                     153.51067
                    7413.24395                    1094.91461                      77.64851
                    9368.81034                    1155.68436                      22.39941
                   10795.23679                    1083.03887                     -17.60361
                   12308.53836                     990.21862                      -8.64527
                    7054.32798                     460.26361                       3.41735
                   14052.99053                     693.95771                      17.21136
                   13510.46505                     415.04978                      14.58138
                   19063.61920                     204.16169                     -64.63564
                    7826.84561                     -76.15768                    -127.32882
        </DataArray>
        <DataArray type="Float32" Name="Moment" NumberOfComponents="3" format="ascii">
                     -18.94840                     -13.66553                     -15.33664
                     108.96033                    -282.74364                    -338.65891
                     792.56926                   -1615.84455                   -1807.33197
                     720.00263                   -1760.65214                   -2506.98299
                       4.85952                      29.38571                    -411.52312
                    -659.40416                    2012.51083                    1346.42135
                    -404.34875                    1219.53147                    1050.73163
                     -78.05300                    -314.76847                     450.60038
                      41.36565                   -1025.37858                       1.29693
                      91.98180                   -1662.98086                    -741.47473
                     258.77508                   -3526.05385                   -2570.81178
                     398.14671                   -5818.09843                   -5239.09669
                     -41.94244                     364.38414                     259.62216
                    -440.74639                    7028.47357                    6275.59855
                    -284.66131                    6481.12524                    5814.75647
                    -207.23557                     931.46721                     961.60875
                    -124.32743                    -348.18285                     -19.31326
        </DataArray>
      </PointData>
    </Piece>
  </PolyData>
</VTKFile>
