<?xml version="1.0"?>
<VTKFile type="PolyData" version="0.1" byte_order="LittleEndian">
  <PolyData>
    <Piece NumberOfPoints="     19" NumberOfVerts="  0" NumberOfLines="     18"
           NumberOfStrips="  0" NumberOfPolys="      0">
      <Points>
        <DataArray type="Float32" NumberOfComponents="3" format="ascii">
                       3.30133                      -2.23134                      92.59486
                       3.48507                      -4.65220                      95.27685
                       3.67612                      -7.07604                      97.95563
                       3.87744                      -9.50377                     100.63012
                       4.09160                     -11.93593                     103.29958
                       4.32137                     -14.37277                     105.96347
                       4.56998                     -16.81445                     108.62122
                       4.84135                     -19.26108                     111.27218
                       5.13999                     -21.71259                     113.91567
                       5.47087                     -24.16875                     116.55098
                       5.83895                     -26.62910                     119.17742
                       6.24854                     -29.09291                     121.79444
                       6.70247                     -31.55925                     124.40175
                       7.20106                     -34.02713                     126.99946
                       7.74088                     -36.49560                     129.58840
                       8.31333                     -38.96400                     132.17046
                       8.90297                     -41.43220                     134.74889
                       9.19968                     -42.66627                     136.03770
                       3.21088                      -1.02152                      91.25322
        </DataArray>
      </Points>
      <PointData>
        <DataArray type="Float32" Name="TranslationalVelocity" NumberOfComponents="3" format="ascii">
                       0.06983                      -2.27398                      -1.97359
                      -0.18351                      -4.74712                      -4.18857
                      -0.44007                      -7.22172                      -6.40936
                      -0.70080                      -9.69797                      -8.63752
                      -0.96630                     -12.17603                     -10.87398
                      -1.23703                     -14.65597                     -13.11920
                      -1.51356                     -17.13766                     -15.37327
                      -1.79667                     -19.62084                     -17.63605
                      -2.08736                     -22.10516                     -19.90710
                      -2.38679                     -24.59031                     -22.18570
                      -2.69620                     -27.07602                     -24.47082
                      -3.01672                     -29.56209                     -26.76114
                      -3.34914                     -32.04844                     -29.05515
                      -3.69367                     -34.53499                     -31.35129
                      -4.04958                     -37.02175                     -33.64814
                      -4.41483                     -39.50876                     -35.94478
                      -4.78560                     -41.99603                     -38.24102
                      -4.97178                     -43.23971                     -39.38907
                       0.19584                      -1.03774                      -0.86730
        </DataArray>
        <DataArray type="Float32" Name="RotationalVelocity" NumberOfComponents="3" format="ascii">
                       0.91370                       0.00964                      -0.11484
                       0.91479                       0.00919                      -0.11531
                       0.91626                       0.00855                      -0.11599
                       0.91797                       0.00778                      -0.11680
                       0.91981                       0.00694                      -0.11768
                       0.92169                       0.00600                      -0.11865
                       0.92352                       0.00493                      -0.11974
                       0.92524                       0.00367                      -0.12099
                       0.92682                       0.00217                      -0.12244
                       0.92823                       0.00041                      -0.12412
                       0.92948                      -0.00162                      -0.12604
                       0.93056                      -0.00390                      -0.12816
                       0.93149                      -0.00632                      -0.13041
                       0.93225                      -0.00875                      -0.13264
                       0.93284                      -0.01093                      -0.13465
                       0.93322                      -0.01256                      -0.13615
                       0.93335                      -0.01321                      -0.13674
                       0.93334                      -0.01323                      -0.13675
                       0.91326                       0.00979                      -0.11467
        </DataArray>
        <DataArray type="Float32" Name="TranslationalAcceleration" NumberOfComponents="3" format="ascii">
                      -0.99807                       1.60380                      -2.49225
                      -1.49201                       3.44012                      -4.93466
                      -1.95967                       5.35237                      -7.32266
                      -2.39527                       7.35947                      -9.64237
                      -2.79719                       9.47282                     -11.88510
                      -3.16733                      11.69810                     -14.04606
                      -3.50902                      14.03652                     -16.12353
                      -3.82638                      16.48606                     -18.11796
                      -4.12429                      19.04235                     -20.03141
                      -4.40799                      21.69936                     -21.86710
                      -4.68265                      24.44972                     -23.62926
                      -4.95312                      27.28492                     -25.32301
                      -5.22354                      30.19533                     -26.95459
                      -5.49698                      33.16996                     -28.53157
                      -5.77522                      36.19626                     -30.06338
                      -6.05844                      39.25955                     -31.56210
                      -6.34477                      42.34239                     -33.04324
                      -6.48832                      43.88632                     -33.78160
                      -0.74550                       0.70172                      -1.25955
        </DataArray>
        <DataArray type="Float32" Name="RotationalAcceleration" NumberOfComponents="3" format="ascii">
                       0.09004                      -0.05044                      -0.02664
                       0.06916                      -0.04642                      -0.02163
                       0.04078                      -0.04103                      -0.01488
                       0.00763                      -0.03499                      -0.00723
                      -0.02828                      -0.02918                       0.00041
                      -0.06532                      -0.02403                       0.00751
                      -0.10223                      -0.01965                       0.01393
                      -0.13815                      -0.01619                       0.01944
                      -0.17249                      -0.01378                       0.02390
                      -0.20483                      -0.01241                       0.02729
                      -0.23485                      -0.01203                       0.02963
                      -0.26223                      -0.01254                       0.03101
                      -0.28658                      -0.01371                       0.03157
                      -0.30736                      -0.01529                       0.03153
                      -0.32374                      -0.01695                       0.03113
                      -0.33459                      -0.01827                       0.03066
                      -0.33833                      -0.01872                       0.03051
                      -0.33819                      -0.01864                       0.03057
                       0.09822                      -0.05203                      -0.02862
        </DataArray>
        <DataArray type="Float32" Name="OrientationX" NumberOfComponents="3" format="ascii">
                       0.94930                      -0.19896                      -0.24341
                       0.94920                      -0.19776                      -0.24474
                       0.94906                      -0.19588                      -0.24682
                       0.95291                      -0.18394                      -0.24112
                       0.96142                      -0.15874                      -0.22466
                       0.96569                      -0.14251                      -0.21711
                       0.96961                      -0.12543                      -0.21006
                       0.97332                      -0.10678                      -0.20310
                       0.97656                      -0.08703                      -0.19685
                       0.97910                      -0.06691                      -0.19204
                       0.98103                      -0.04610                      -0.18827
                       0.98227                      -0.02530                      -0.18578
                       0.98257                      -0.00662                      -0.18577
                       0.98240                       0.01064                      -0.18646
                       0.98220                       0.02681                      -0.18592
                       0.98226                       0.04070                      -0.18308
                       0.98265                       0.04793                      -0.17918
                       0.98296                       0.04933                      -0.17709
                       0.94933                      -0.19936                      -0.24297
        </DataArray>
        <DataArray type="Float32" Name="OrientationY" NumberOfComponents="3" format="ascii">
                       0.31038                       0.71628                       0.62498
                       0.31040                       0.71599                       0.62531
                       0.31044                       0.71559                       0.62575
                       0.29782                       0.71765                       0.62951
                       0.26820                       0.72247                       0.63727
                       0.25121                       0.72462                       0.64173
                       0.23395                       0.72651                       0.64611
                       0.21564                       0.72821                       0.65055
                       0.19702                       0.72960                       0.65488
                       0.17917                       0.73058                       0.65891
                       0.16155                       0.73119                       0.66277
                       0.14487                       0.73144                       0.66634
                       0.13146                       0.73133                       0.66923
                       0.11959                       0.73103                       0.67178
                       0.10769                       0.73059                       0.67428
                       0.09587                       0.73003                       0.67666
                       0.08806                       0.72962                       0.67816
                       0.08565                       0.72950                       0.67860
                       0.31037                       0.71640                       0.62485
        </DataArray>
        <DataArray type="Float32" Name="OrientationZ" NumberOfComponents="3" format="ascii">
                       0.05000                      -0.66884                       0.74172
                       0.05157                      -0.66951                       0.74101
                       0.05405                      -0.67049                       0.73994
                       0.05725                      -0.67167                       0.73864
                       0.06115                      -0.67294                       0.73717
                       0.06587                      -0.67426                       0.73555
                       0.07157                      -0.67562                       0.73377
                       0.07843                      -0.67698                       0.73181
                       0.08663                      -0.67831                       0.72965
                       0.09621                      -0.67955                       0.72730
                       0.10711                      -0.68061                       0.72477
                       0.11903                      -0.68144                       0.72213
                       0.13143                      -0.68199                       0.71946
                       0.14346                      -0.68226                       0.71690
                       0.15391                      -0.68229                       0.71469
                       0.16119                      -0.68220                       0.71317
                       0.16324                      -0.68217                       0.71274
                       0.16266                      -0.68220                       0.71284
                       0.04949                      -0.66860                       0.74197
        </DataArray>
      </PointData>
      <Lines>
        <DataArray type="Int32" Name="connectivity" format="ascii">
      0      1
      1      2
      2      3
      3      4
      4      5
      5      6
      6      7
      7      8
      8      9
      9     10
     10     11
     11     12
     12     13
     13     14
     14     15
     15     16
     16     17
     18      0
        </DataArray>
        <DataArray type="Int32" Name="offsets" format="ascii">
      2
      4
      6
      8
     10
     12
     14
     16
     18
     20
     22
     24
     26
     28
     30
     32
     34
     36
        </DataArray>
      </Lines>
    </Piece>
  </PolyData>
</VTKFile>
