<?xml version="1.0"?>
<VTKFile type="PolyData" version="0.1" byte_order="LittleEndian">
  <PolyData>
    <Piece NumberOfPoints="     19" NumberOfVerts="  0" NumberOfLines="     18"
           NumberOfStrips="  0" NumberOfPolys="      0">
      <Points>
        <DataArray type="Float32" NumberOfComponents="3" format="ascii">
                       3.10462                       1.45080                      90.44041
                       3.07909                       2.78882                      90.71779
                       3.01852                       5.44527                      91.36705
                       2.95684                       8.09276                      92.06060
                       2.88483                      11.39723                      92.95349
                       2.84760                      15.39337                      93.87814
                       2.83773                      19.41648                      94.67144
                       2.84926                      23.44049                      95.46008
                       2.89043                      27.46566                      96.24174
                       2.96831                      31.49130                      97.01789
                       3.08555                      35.51631                      97.79195
                       3.25577                      39.54035                      98.56094
                       3.48626                      43.56256                      99.32356
                       3.78102                      47.58196                     100.07863
                       4.14063                      51.59761                     100.82539
                       4.48219                      54.94111                     101.44186
                       4.77544                      57.61576                     101.92420
                       5.06720                      60.30094                     102.35218
                       5.21781                      61.63519                     102.60674
        </DataArray>
      </Points>
      <PointData>
        <DataArray type="Float32" Name="Force" NumberOfComponents="3" format="ascii">
                      -0.03192                       0.05134                      -0.25379
                      62.58893                       5.67645                     -21.99573
                      72.87684                      11.91686                     -52.04078
                      61.70298                      14.97425                     -68.54595
                     676.49543                     -26.24899                     171.43900
                     951.55774                     -39.68671                     235.20356
                    1076.19386                     -34.46905                     187.47606
                    1356.12881                     -37.79476                     165.56649
                    1448.82589                     -38.03290                     107.75993
                    1661.95815                     -48.70952                      66.48810
                    2053.43684                     -72.29922                      15.82560
                    2367.57611                    -105.66811                     -41.21809
                    2812.81263                    -163.51807                     -83.33103
                    3131.16367                    -224.72311                    -136.73517
                    3477.53828                    -294.71366                    -191.29533
                    3746.03819                    -348.67052                    -235.30089
                    3817.54254                    -369.16559                    -260.81097
                    2957.10363                    -291.70794                    -200.32320
                    1343.65581                    -109.56861                    -211.10942
        </DataArray>
        <DataArray type="Float32" Name="Moment" NumberOfComponents="3" format="ascii">
                       0.00000                       0.00000                       0.00000
                       0.00000                       0.00000                       0.00000
                       0.00000                       0.00000                       0.00000
                       0.00000                       0.00000                       0.00000
                       2.33024                    -180.98708                     -36.90598
                       2.83773                    -331.43298                     -67.40437
                       1.62077                    -493.56723                    -100.05040
                      -2.31754                    -719.45200                    -145.25063
                     -11.43034                   -1010.60383                    -203.00335
                     -24.82525                   -1164.26015                    -232.40278
                     -43.14322                   -1280.88085                    -253.69091
                     -66.74799                   -1389.19394                    -272.63356
                     -78.15533                   -1223.31060                    -237.64143
                     -99.49095                   -1241.09796                    -238.55649
                    -116.28620                   -1221.27416                    -232.43398
                    -123.16574                   -1173.51119                    -221.90654
                    -114.88875                   -1048.43153                    -197.64440
                     -58.87732                    -528.51440                     -99.51158
                     -49.22388                    -442.92744                     -83.41176
        </DataArray>
        <DataArray type="Float32" Name="TranslationalVelocity" NumberOfComponents="3" format="ascii">
                       0.47740                      -0.28368                       1.39283
                       0.63286                      -0.53419                       2.61553
                       0.94185                      -1.12154                       5.04641
                       1.24791                      -1.75275                       7.47967
                       1.62564                      -2.57280                      10.53540
                       2.07335                      -3.43566                      14.26092
                       2.51371                      -4.18726                      18.04950
                       2.94461                      -4.94429                      21.87830
                       3.36489                      -5.70485                      25.74706
                       3.77279                      -6.47035                      29.65361
                       4.16768                      -7.24292                      33.59135
                       4.54575                      -8.02081                      37.56132
                       4.90467                      -8.80224                      41.56002
                       5.24289                      -9.58506                      45.58348
                       5.56056                     -10.36711                      49.62687
                       5.81186                     -11.01710                      53.00751
                       6.00610                     -11.52784                      55.71863
                       6.19873                     -11.98330                      58.44266
                       6.29447                     -12.25246                      59.79638
        </DataArray>
        <DataArray type="Float32" Name="RotationalVelocity" NumberOfComponents="3" format="ascii">
                       0.91217                       0.01046                      -0.11432
                       0.91362                       0.01043                      -0.11403
                       0.91718                       0.01034                      -0.11327
                       0.92154                       0.01023                      -0.11228
                       0.92816                       0.01004                      -0.11073
                       0.93718                       0.00978                      -0.10862
                       0.94676                       0.00951                      -0.10642
                       0.95641                       0.00921                      -0.10403
                       0.96583                       0.00884                      -0.10133
                       0.97481                       0.00837                      -0.09820
                       0.98317                       0.00777                      -0.09449
                       0.99090                       0.00705                      -0.09024
                       0.99792                       0.00623                      -0.08558
                       1.00408                       0.00536                      -0.08078
                       1.00912                       0.00455                      -0.07632
                       1.01213                       0.00401                      -0.07342
                       1.01354                       0.00375                      -0.07202
                       1.01414                       0.00364                      -0.07143
                       1.01411                       0.00365                      -0.07149
        </DataArray>
        <DataArray type="Float32" Name="TranslationalAcceleration" NumberOfComponents="3" format="ascii">
                      -0.47754                      -1.27598                      -0.38329
                      -0.47585                      -2.42933                      -0.52275
                      -0.49337                      -4.72717                      -0.89800
                      -0.53563                      -7.02434                      -1.36452
                      -0.62906                      -9.89813                      -2.06680
                      -0.78725                     -13.38592                      -2.94152
                      -1.02321                     -16.93212                      -3.89002
                      -1.36888                     -20.51788                      -5.02335
                      -1.81663                     -24.14391                      -6.33351
                      -2.34071                     -27.80809                      -7.81072
                      -2.89864                     -31.50388                      -9.42951
                      -3.44156                     -35.23294                     -11.19208
                      -3.90584                     -38.99516                     -13.08573
                      -4.22877                     -42.79277                     -15.09836
                      -4.36037                     -46.62902                     -17.21609
                      -4.31119                     -49.85585                     -19.04653
                      -4.16510                     -52.46036                     -20.53850
                      -3.93459                     -55.10630                     -21.99664
                      -3.81335                     -56.40736                     -22.76645
        </DataArray>
        <DataArray type="Float32" Name="OrientationX" NumberOfComponents="3" format="ascii">
                       0.99382                      -0.00360                       0.11091
                       0.99383                      -0.00402                       0.11082
                       0.99385                      -0.00521                       0.11058
                       0.99388                      -0.00684                       0.11025
                       0.99392                      -0.00956                       0.10969
                       0.99695                      -0.00728                       0.07774
                       0.99850                      -0.00773                       0.05423
                       0.99940                      -0.00998                       0.03330
                       0.99985                      -0.01358                       0.01092
                       0.99974                      -0.01895                      -0.01243
                       0.99902                      -0.02684                      -0.03507
                       0.99765                      -0.03672                      -0.05789
                       0.99569                      -0.04838                      -0.07907
                       0.99350                      -0.06132                      -0.09588
                       0.99100                      -0.07308                      -0.11219
                       0.98888                      -0.08014                      -0.12526
                       0.98745                      -0.08287                      -0.13448
                       0.98671                      -0.08370                      -0.13929
                       0.98674                      -0.08344                      -0.13924
        </DataArray>
        <DataArray type="Float32" Name="OrientationY" NumberOfComponents="3" format="ascii">
                       0.10936                       0.20137                      -0.97339
                       0.10936                       0.20124                      -0.97342
                       0.10937                       0.20091                      -0.97349
                       0.10937                       0.20051                      -0.97357
                       0.10938                       0.19990                      -0.97369
                       0.07763                       0.19933                      -0.97685
                       0.05468                       0.19863                      -0.97855
                       0.03461                       0.19792                      -0.97961
                       0.01339                       0.19731                      -0.98025
                      -0.00846                       0.19686                      -0.98040
                      -0.02912                       0.19657                      -0.98006
                      -0.04959                       0.19652                      -0.97924
                      -0.06811                       0.19671                      -0.97809
                      -0.08213                       0.19697                      -0.97696
                      -0.09589                       0.19750                      -0.97560
                      -0.10735                       0.19816                      -0.97427
                      -0.11585                       0.19877                      -0.97317
                      -0.12040                       0.19912                      -0.97255
                      -0.12040                       0.19912                      -0.97255
        </DataArray>
        <DataArray type="Float32" Name="OrientationZ" NumberOfComponents="3" format="ascii">
                      -0.01883                       0.97951                       0.20052
                      -0.01839                       0.97953                       0.20043
                      -0.01714                       0.97960                       0.20025
                      -0.01544                       0.97967                       0.20003
                      -0.01262                       0.97977                       0.19973
                      -0.00839                       0.97991                       0.19929
                      -0.00321                       0.98004                       0.19875
                       0.00319                       0.98017                       0.19815
                       0.01116                       0.98025                       0.19747
                       0.02102                       0.98025                       0.19665
                       0.03320                       0.98012                       0.19559
                       0.04733                       0.97981                       0.19424
                       0.06288                       0.97927                       0.19256
                       0.07879                       0.97849                       0.19065
                       0.09345                       0.97758                       0.18871
                       0.10290                       0.97689                       0.18735
                       0.10738                       0.97654                       0.18667
                       0.10914                       0.97639                       0.18640
                       0.10888                       0.97642                       0.18643
        </DataArray>
      </PointData>
      <Lines>
        <DataArray type="Int32" Name="connectivity" format="ascii">
      0      1
      1      2
      2      3
      3      4
      4      5
      5      6
      6      7
      7      8
      8      9
      9     10
     10     11
     11     12
     12     13
     13     14
     14     15
     15     16
     16     17
     17     18
        </DataArray>
        <DataArray type="Int32" Name="offsets" format="ascii">
      2
      4
      6
      8
     10
     12
     14
     16
     18
     20
     22
     24
     26
     28
     30
     32
     34
     36
        </DataArray>
      </Lines>
    </Piece>
  </PolyData>
</VTKFile>
