<?xml version="1.0"?>
<VTKFile type="PolyData" version="0.1" byte_order="LittleEndian">
  <PolyData>
    <Piece NumberOfPoints="     17" NumberOfVerts="  0" NumberOfLines="      0"
           NumberOfStrips="  0" NumberOfPolys="      0">
      <Points>
        <DataArray type="Float32" NumberOfComponents="3" format="ascii">
                       2.62645                      -0.33406                      86.90452
                       2.01871                      -0.67099                      83.35424
                       1.41867                      -1.00769                      79.80263
                       0.82923                      -1.34390                      76.24920
                       0.25283                      -1.67949                      72.69358
                      -0.30784                      -2.01437                      69.13538
                      -0.84928                      -2.34829                      65.57411
                      -1.36691                      -2.68086                      62.00919
                      -1.85512                      -3.01167                      58.43997
                      -2.30745                      -3.34043                      54.86586
                      -2.71717                      -3.66696                      51.28642
                      -3.07808                      -3.99132                      47.70155
                      -3.38554                      -4.31378                      44.11152
                      -3.63791                      -4.63470                      40.51704
                      -3.83812                      -4.95457                      36.91914
                      -3.99568                      -5.27389                      33.31898
                      -4.12880                      -5.59306                      29.71777
        </DataArray>
      </Points>
      <PointData>
        <DataArray type="Float32" Name="Force" NumberOfComponents="3" format="ascii">
                     131.66844                     -70.57291                     -15.92627
                     461.59669                    -240.03802                     -55.26984
                    1714.59808                     593.87185                    -341.06324
                    2974.39346                    1045.79202                    -583.67735
                    1882.85341                     583.99942                    -355.55123
                    4254.10418                    1164.12981                    -770.27850
                    5405.88625                    1286.49753                    -926.42157
                    6297.72354                    1305.36630                   -1009.67726
                    7095.73730                    1326.59912                   -1054.69423
                    9374.35108                    1606.88767                   -1271.01401
                   11289.23050                    1818.58038                   -1363.55675
                   13397.28908                    2100.95985                   -1406.33445
                    7909.10860                    1217.22589                    -731.97803
                   16245.80220                    2447.61923                   -1299.71518
                   16225.46192                    2380.93794                   -1073.21114
                   24032.85328                    3368.84637                   -1311.36044
                    9944.35263                    1203.95641                    -480.32473
        </DataArray>
        <DataArray type="Float32" Name="Moment" NumberOfComponents="3" format="ascii">
                     -18.33548                     -17.73465                       1.45407
                      93.08813                    -323.33690                     -36.79245
                     703.08550                   -1816.90228                    -244.02029
                     743.28057                   -2488.22661                    -314.15828
                      26.62785                    -238.03885                    -152.14680
                    -653.04610                    1934.62912                    -230.75532
                    -388.11752                    1366.54340                     187.09094
                      48.16670                      21.90754                     917.59716
                     219.40081                    -799.66354                     986.36495
                     349.92624                   -1873.40784                     752.28505
                     787.02711                   -4710.46508                     601.87757
                    1371.12107                   -8736.57824                     209.26641
                    -116.10505                     430.22803                    -463.86915
                   -1772.37640                   10571.64521                   -1820.56275
                   -1647.05303                   10131.75931                   -1891.31788
                    -334.61895                     941.20748                   -1573.72947
                    -191.51072                     -24.47518                    -245.91267
        </DataArray>
      </PointData>
    </Piece>
  </PolyData>
</VTKFile>
