<?xml version="1.0"?>
<VTKFile type="PolyData" version="0.1" byte_order="LittleEndian">
  <PolyData>
    <Piece NumberOfPoints="     19" NumberOfVerts="  0" NumberOfLines="     18"
           NumberOfStrips="  0" NumberOfPolys="      0">
      <Points>
        <DataArray type="Float32" NumberOfComponents="3" format="ascii">
                       2.80789                      -1.05693                      89.06790
                       2.63081                      -2.01330                      88.10776
                       2.24721                      -3.85736                      86.12435
                       1.85176                      -5.66743                      84.10938
                       1.35406                      -7.90751                      81.56929
                       0.83051                     -10.69390                      78.60657
                       0.35480                     -13.56773                      75.72236
                      -0.10704                     -16.43712                      72.83142
                      -0.54973                     -19.30345                      69.93434
                      -0.97160                     -22.16559                      67.02988
                      -1.37438                     -25.02180                      64.11678
                      -1.75303                     -27.87304                      61.19547
                      -2.10716                     -30.71988                      58.26668
                      -2.43803                     -33.56297                      55.33142
                      -2.74677                     -36.40299                      52.39066
                      -2.99149                     -38.76802                      49.93701
                      -3.18171                     -40.66503                      47.97827
                      -3.36937                     -42.60189                      46.05703
                      -3.46777                     -43.53998                      45.06814
        </DataArray>
      </Points>
      <PointData>
        <DataArray type="Float32" Name="Force" NumberOfComponents="3" format="ascii">
                       0.39711                      -3.33798                       3.27047
                      64.63584                     -24.65261                      12.81618
                      92.90959                     -54.45891                      37.58139
                      87.95744                     -67.42918                      51.60869
                     706.08134                     192.78818                    -318.67180
                     900.87298                     203.67043                    -360.19050
                    1034.19123                     190.38660                    -364.38468
                    1301.91513                     200.06317                    -410.76887
                    1349.35892                     166.43688                    -375.01464
                    1457.03472                     148.29317                    -361.72006
                    1663.62418                     130.76692                    -359.75471
                    1685.97678                      98.65304                    -315.15351
                    1758.10374                      79.02897                    -288.57094
                    1618.73350                      42.76965                    -221.89266
                    1385.08778                       9.01053                    -152.60597
                    1625.41008                       8.06948                    -170.31682
                    1822.18350                       7.22538                    -187.04965
                    1438.12464                       5.06916                    -147.71304
                    1427.89775                       2.01320                    -144.97006
        </DataArray>
        <DataArray type="Float32" Name="Moment" NumberOfComponents="3" format="ascii">
                       0.00000                       0.00000                       0.00000
                       0.00000                       0.00000                       0.00000
                       0.00000                       0.00000                       0.00000
                       0.00000                       0.00000                       0.00000
                      27.29880                     153.48860                     153.34259
                      55.13717                     317.66466                     317.52776
                      68.40855                     406.42347                     406.50749
                      91.16815                     562.26442                     562.80215
                     118.01296                     760.98286                     762.36344
                     123.63449                     840.08428                     842.41529
                     122.73860                     886.37639                     889.77185
                     120.10726                     928.64576                     933.23335
                      88.76745                     738.62276                     743.09280
                      79.62580                     713.31272                     718.37025
                      70.88796                     678.03999                     683.43031
                      69.79811                     693.12027                     698.95425
                      63.29649                     635.73456                     641.17329
                      32.70315                     326.83552                     329.61194
                      34.07464                     337.47870                     340.30831
        </DataArray>
        <DataArray type="Float32" Name="TranslationalVelocity" NumberOfComponents="3" format="ascii">
                       0.01082                       0.96042                      -0.96009
                      -0.09799                       1.87124                      -1.84727
                      -0.30490                       3.75635                      -3.55977
                      -0.49691                       5.67745                      -5.24735
                      -0.71100                       8.10933                      -7.34871
                      -0.93707                      10.95661                      -9.98383
                      -1.11438                      13.74478                     -12.72949
                      -1.21763                      16.55837                     -15.50252
                      -1.22813                      19.39731                     -18.30685
                      -1.12277                      22.26330                     -21.14372
                      -0.89167                      25.15571                     -24.00928
                      -0.49649                      28.07593                     -26.90875
                       0.08504                      31.02246                     -29.84162
                       0.86533                      33.99287                     -32.80558
                       1.83923                      36.98406                     -35.79579
                       2.77445                      39.48855                     -38.30282
                       3.58354                      41.49167                     -40.32136
                       4.40402                      43.45706                     -42.38296
                       4.81784                      44.46842                     -43.38364
        </DataArray>
        <DataArray type="Float32" Name="RotationalVelocity" NumberOfComponents="3" format="ascii">
                       0.92695                       0.00276                      -0.11274
                       0.92798                       0.00180                      -0.11196
                       0.93067                      -0.00095                      -0.10970
                       0.93416                      -0.00473                      -0.10656
                       0.93968                      -0.01107                      -0.10123
                       0.94745                      -0.02074                      -0.09297
                       0.95594                      -0.03275                      -0.08251
                       0.96505                      -0.04756                      -0.06935
                       0.97471                      -0.06581                      -0.05285
                       0.98482                      -0.08809                      -0.03239
                       0.99518                      -0.11515                      -0.00719
                       1.00541                      -0.14616                       0.02199
                       1.01508                      -0.17993                       0.05403
                       1.02374                      -0.21420                       0.08677
                       1.03080                      -0.24548                       0.11680
                       1.03488                      -0.26533                       0.13593
                       1.03667                      -0.27437                       0.14466
                       1.03729                      -0.27741                       0.14758
                       1.03716                      -0.27641                       0.14661
        </DataArray>
        <DataArray type="Float32" Name="TranslationalAcceleration" NumberOfComponents="3" format="ascii">
                       0.79008                       0.77138                       0.69046
                       0.89868                       1.71302                       1.42860
                       1.11317                       3.52598                       2.99103
                       1.29671                       5.25639                       4.65579
                       1.45337                       7.29842                       6.88649
                       1.48068                       9.67100                       9.70276
                       1.29206                      11.94362                      12.73735
                       0.89603                      14.03902                      16.07295
                       0.37044                      15.97696                      19.68675
                      -0.12377                      17.78633                      23.53814
                      -0.39595                      19.50863                      27.56215
                      -0.15261                      21.17125                      31.72934
                       0.91667                      22.81360                      35.99628
                       3.09511                      24.47153                      40.33116
                       6.57083                      26.17305                      44.71202
                      10.44739                      27.63157                      48.38224
                      14.14985                      28.83148                      51.31616
                      18.23572                      30.09900                      54.20666
                      20.31173                      30.68638                      55.66106
        </DataArray>
        <DataArray type="Float32" Name="OrientationX" NumberOfComponents="3" format="ascii">
                       0.94200                       0.13399                      -0.30772
                       0.94204                       0.13424                      -0.30746
                       0.94217                       0.13494                      -0.30677
                       0.94234                       0.13589                      -0.30582
                       0.94263                       0.13746                      -0.30424
                       0.95244                       0.11738                      -0.28122
                       0.95909                       0.10392                      -0.26333
                       0.96460                       0.09288                      -0.24681
                       0.97001                       0.08138                      -0.22903
                       0.97513                       0.06975                      -0.21036
                       0.97960                       0.05928                      -0.19204
                       0.98360                       0.04907                      -0.17357
                       0.98688                       0.04019                      -0.15635
                       0.98921                       0.03422                      -0.14245
                       0.99120                       0.02766                      -0.12945
                       0.99259                       0.02114                      -0.11962
                       0.99345                       0.01544                      -0.11318
                       0.99383                       0.01185                      -0.11029
                       0.99378                       0.01140                      -0.11075
        </DataArray>
        <DataArray type="Float32" Name="OrientationY" NumberOfComponents="3" format="ascii">
                       0.30983                      -0.69967                       0.64379
                       0.30980                      -0.69983                       0.64363
                       0.30973                      -0.70022                       0.64325
                       0.30964                      -0.70069                       0.64278
                       0.30951                      -0.70140                       0.64206
                       0.27911                      -0.70643                       0.65043
                       0.25695                      -0.71000                       0.65565
                       0.23746                      -0.71300                       0.65973
                       0.21678                      -0.71584                       0.66376
                       0.19541                      -0.71843                       0.66759
                       0.17512                      -0.72062                       0.67085
                       0.15494                      -0.72251                       0.67377
                       0.13660                      -0.72404                       0.67610
                       0.12266                      -0.72516                       0.67756
                       0.10893                      -0.72607                       0.67893
                       0.09743                      -0.72664                       0.68007
                       0.08888                      -0.72694                       0.68093
                       0.08429                      -0.72706                       0.68138
                       0.08428                      -0.72706                       0.68139
        </DataArray>
        <DataArray type="Float32" Name="OrientationZ" NumberOfComponents="3" format="ascii">
                      -0.12904                      -0.70178                      -0.70060
                      -0.12877                      -0.70158                      -0.70086
                      -0.12800                      -0.70106                      -0.70152
                      -0.12694                      -0.70041                      -0.70236
                      -0.12514                      -0.69939                      -0.70370
                      -0.12232                      -0.69798                      -0.70559
                      -0.11883                      -0.69650                      -0.70765
                      -0.11470                      -0.69499                      -0.70981
                      -0.10993                      -0.69351                      -0.71201
                      -0.10456                      -0.69209                      -0.71420
                      -0.09862                      -0.69079                      -0.71630
                      -0.09234                      -0.68961                      -0.71826
                      -0.08603                      -0.68859                      -0.72003
                      -0.08012                      -0.68773                      -0.72154
                      -0.07521                      -0.68706                      -0.72270
                      -0.07255                      -0.68669                      -0.72332
                      -0.07176                      -0.68653                      -0.72355
                      -0.07212                      -0.68647                      -0.72357
                      -0.07276                      -0.68648                      -0.72350
        </DataArray>
      </PointData>
      <Lines>
        <DataArray type="Int32" Name="connectivity" format="ascii">
      0      1
      1      2
      2      3
      3      4
      4      5
      5      6
      6      7
      7      8
      8      9
      9     10
     10     11
     11     12
     12     13
     13     14
     14     15
     15     16
     16     17
     17     18
        </DataArray>
        <DataArray type="Int32" Name="offsets" format="ascii">
      2
      4
      6
      8
     10
     12
     14
     16
     18
     20
     22
     24
     26
     28
     30
     32
     34
     36
        </DataArray>
      </Lines>
    </Piece>
  </PolyData>
</VTKFile>
