<?xml version="1.0"?>
<VTKFile type="PolyData" version="0.1" byte_order="LittleEndian">
  <PolyData>
    <Piece NumberOfPoints="     19" NumberOfVerts="  0" NumberOfLines="     18"
           NumberOfStrips="  0" NumberOfPolys="      0">
      <Points>
        <DataArray type="Float32" NumberOfComponents="3" format="ascii">
                       3.29667                      -2.11555                      92.69048
                       3.49245                      -4.41041                      95.48023
                       3.69574                      -6.70810                      98.26710
                       3.90953                      -9.00950                     101.05011
                       4.13644                     -11.31512                     103.82859
                       4.37924                     -13.62522                     106.60199
                       4.64121                     -15.93996                     109.36977
                       4.92627                     -18.25944                     112.13128
                       5.23901                     -20.58365                     114.88580
                       5.58442                     -22.91236                     117.63259
                       5.96752                     -25.24513                     120.37091
                       6.39267                     -27.58125                     123.10015
                       6.86274                     -29.91982                     125.81991
                       7.37804                     -32.25985                     128.53023
                       7.93511                     -34.60041                     131.23186
                       8.52525                     -36.94085                     133.92664
                       9.13283                     -39.28105                     136.61779
                       9.43855                     -40.45112                     137.96296
                       3.20024                      -0.96870                      91.29504
        </DataArray>
      </Points>
      <PointData>
        <DataArray type="Float32" Name="TranslationalVelocity" NumberOfComponents="3" format="ascii">
                       0.11350                      -2.35946                      -1.85350
                      -0.11559                      -4.92774                      -3.95010
                      -0.34865                      -7.50020                      -6.05401
                      -0.58677                     -10.07773                      -8.16719
                      -0.83059                     -12.66088                     -10.29082
                      -1.08046                     -15.24993                     -12.42548
                      -1.33677                     -17.84482                     -14.57137
                      -1.60007                     -20.44520                     -16.72833
                      -1.87104                     -23.05060                     -18.89593
                      -2.15052                     -25.66048                     -21.07341
                      -2.43936                     -28.27429                     -23.25967
                      -2.73834                     -30.89150                     -25.45331
                      -3.04796                     -33.51165                     -27.65269
                      -3.36823                     -36.13423                     -29.85606
                      -3.69837                     -38.75875                     -32.06175
                      -4.03652                     -41.38473                     -34.26845
                      -4.37935                     -44.01158                     -36.47542
                      -4.55142                     -45.32514                     -37.57893
                       0.22722                      -1.07623                      -0.80672
        </DataArray>
        <DataArray type="Float32" Name="RotationalVelocity" NumberOfComponents="3" format="ascii">
                       0.91172                       0.01204                      -0.11381
                       0.91349                       0.01146                      -0.11441
                       0.91588                       0.01063                      -0.11525
                       0.91866                       0.00966                      -0.11623
                       0.92167                       0.00862                      -0.11729
                       0.92475                       0.00752                      -0.11841
                       0.92778                       0.00632                      -0.11960
                       0.93068                       0.00499                      -0.12089
                       0.93340                       0.00349                      -0.12231
                       0.93589                       0.00178                      -0.12388
                       0.93816                      -0.00013                      -0.12561
                       0.94018                      -0.00222                      -0.12747
                       0.94195                      -0.00442                      -0.12939
                       0.94344                      -0.00658                      -0.13127
                       0.94460                      -0.00852                      -0.13294
                       0.94537                      -0.00995                      -0.13417
                       0.94563                      -0.01050                      -0.13464
                       0.94562                      -0.01051                      -0.13464
                       0.91102                       0.01225                      -0.11359
        </DataArray>
        <DataArray type="Float32" Name="TranslationalAcceleration" NumberOfComponents="3" format="ascii">
                      -0.69355                       1.82397                      -2.24436
                      -1.13419                       3.82394                      -4.52715
                      -1.57943                       5.85079                      -6.80594
                      -2.03174                       7.91152                      -9.07923
                      -2.49382                      10.01030                     -11.34595
                      -2.96887                      12.14915                     -13.60529
                      -3.46044                      14.32852                     -15.85633
                      -3.97245                      16.54771                     -18.09798
                      -4.50920                      18.80497                     -20.32908
                      -5.07511                      21.09768                     -22.54846
                      -5.67435                      23.42238                     -24.75502
                      -6.31033                      25.77484                     -26.94792
                      -6.98496                      28.15022                     -29.12677
                      -7.69779                      30.54335                     -31.29182
                      -8.44509                      32.94906                     -33.44440
                      -9.21870                      35.36259                     -35.58747
                     -10.00468                      37.77998                     -37.72590
                     -10.39860                      38.98921                     -38.79469
                      -0.47406                       0.82964                      -1.10219
        </DataArray>
        <DataArray type="Float32" Name="RotationalAcceleration" NumberOfComponents="3" format="ascii">
                      -0.02009                      -0.03482                      -0.01064
                      -0.02470                      -0.03546                      -0.01085
                      -0.03109                      -0.03663                      -0.01137
                      -0.03863                      -0.03831                      -0.01224
                      -0.04683                      -0.04062                      -0.01358
                      -0.05534                      -0.04368                      -0.01550
                      -0.06393                      -0.04754                      -0.01809
                      -0.07242                      -0.05231                      -0.02143
                      -0.08068                      -0.05807                      -0.02559
                      -0.08857                      -0.06480                      -0.03058
                      -0.09600                      -0.07241                      -0.03632
                      -0.10283                      -0.08065                      -0.04262
                      -0.10894                      -0.08913                      -0.04917
                      -0.11414                      -0.09722                      -0.05546
                      -0.11821                      -0.10410                      -0.06083
                      -0.12084                      -0.10866                      -0.06439
                      -0.12165                      -0.10948                      -0.06501
                      -0.12155                      -0.10875                      -0.06442
                      -0.01831                      -0.03465                      -0.01062
        </DataArray>
        <DataArray type="Float32" Name="OrientationX" NumberOfComponents="3" format="ascii">
                       0.95058                      -0.20442                      -0.23370
                       0.95048                      -0.20327                      -0.23509
                       0.95032                      -0.20148                      -0.23727
                       0.95410                      -0.18925                      -0.23213
                       0.96245                      -0.16324                      -0.21687
                       0.96662                      -0.14664                      -0.21011
                       0.97043                      -0.12919                      -0.20389
                       0.97402                      -0.11018                      -0.19785
                       0.97714                      -0.09008                      -0.19258
                       0.97954                      -0.06969                      -0.18879
                       0.98133                      -0.04863                      -0.18609
                       0.98241                      -0.02764                      -0.18467
                       0.98258                      -0.00888                      -0.18564
                       0.98228                       0.00842                      -0.18724
                       0.98194                       0.02469                      -0.18756
                       0.98189                       0.03876                      -0.18544
                       0.98223                       0.04620                      -0.18191
                       0.98253                       0.04769                      -0.17989
                       0.95061                      -0.20480                      -0.23323
        </DataArray>
        <DataArray type="Float32" Name="OrientationY" NumberOfComponents="3" format="ascii">
                       0.30587                       0.74580                       0.59180
                       0.30589                       0.74557                       0.59207
                       0.30592                       0.74527                       0.59245
                       0.29328                       0.74751                       0.59600
                       0.26362                       0.75259                       0.60342
                       0.24661                       0.75494                       0.60766
                       0.22933                       0.75702                       0.61183
                       0.21099                       0.75890                       0.61608
                       0.19235                       0.76046                       0.62024
                       0.17447                       0.76159                       0.62413
                       0.15684                       0.76235                       0.62787
                       0.14014                       0.76272                       0.63136
                       0.12671                       0.76273                       0.63419
                       0.11483                       0.76252                       0.63669
                       0.10292                       0.76215                       0.63917
                       0.09110                       0.76165                       0.64155
                       0.08329                       0.76127                       0.64307
                       0.08087                       0.76115                       0.64351
                       0.30587                       0.74589                       0.59169
        </DataArray>
        <DataArray type="Float32" Name="OrientationZ" NumberOfComponents="3" format="ascii">
                       0.05331                      -0.63403                       0.77147
                       0.05492                      -0.63467                       0.77083
                       0.05746                      -0.63560                       0.76988
                       0.06073                      -0.63672                       0.76870
                       0.06471                      -0.63793                       0.76737
                       0.06952                      -0.63919                       0.76590
                       0.07530                      -0.64050                       0.76426
                       0.08227                      -0.64181                       0.76243
                       0.09058                      -0.64310                       0.76041
                       0.10029                      -0.64430                       0.75817
                       0.11133                      -0.64533                       0.75575
                       0.12340                      -0.64613                       0.75318
                       0.13596                      -0.64666                       0.75056
                       0.14814                      -0.64691                       0.74804
                       0.15872                      -0.64693                       0.74585
                       0.16610                      -0.64683                       0.74433
                       0.16819                      -0.64679                       0.74389
                       0.16761                      -0.64682                       0.74400
                       0.05278                      -0.63381                       0.77169
        </DataArray>
      </PointData>
      <Lines>
        <DataArray type="Int32" Name="connectivity" format="ascii">
      0      1
      1      2
      2      3
      3      4
      4      5
      5      6
      6      7
      7      8
      8      9
      9     10
     10     11
     11     12
     12     13
     13     14
     14     15
     15     16
     16     17
     18      0
        </DataArray>
        <DataArray type="Int32" Name="offsets" format="ascii">
      2
      4
      6
      8
     10
     12
     14
     16
     18
     20
     22
     24
     26
     28
     30
     32
     34
     36
        </DataArray>
      </Lines>
    </Piece>
  </PolyData>
</VTKFile>
