<?xml version="1.0"?>
<VTKFile type="PolyData" version="0.1" byte_order="LittleEndian">
  <PolyData>
    <Piece NumberOfPoints="     17" NumberOfVerts="  0" NumberOfLines="      0"
           NumberOfStrips="  0" NumberOfPolys="      0">
      <Points>
        <DataArray type="Float32" NumberOfComponents="3" format="ascii">
                       2.79498                      -3.32693                      90.09212
                       2.63436                      -6.94050                      90.03162
                       2.48191                     -10.55432                      89.96558
                       2.34092                     -14.16847                      89.89220
                       2.21434                     -17.78296                      89.81034
                       2.10532                     -21.39780                      89.71919
                       2.01758                     -25.01295                      89.61805
                       1.95557                     -28.62830                      89.50619
                       1.92449                     -32.24367                      89.38295
                       1.93002                     -35.85873                      89.24779
                       1.97787                     -39.47299                      89.10041
                       2.07301                     -43.08579                      88.94085
                       2.21875                     -46.69638                      88.76958
                       2.41553                     -50.30405                      88.58757
                       2.65947                     -53.90842                      88.39646
                       2.94074                     -57.50979                      88.19865
                       3.24164                     -61.10943                      87.99748
        </DataArray>
      </Points>
      <PointData>
        <DataArray type="Float32" Name="Force" NumberOfComponents="3" format="ascii">
                     220.41998                     -11.30167                      86.83752
                     701.16478                     -33.42250                     239.86165
                    2233.45808                     -68.36382                   -1104.63857
                    3671.14699                     -98.30961                   -1843.11742
                    2229.13023                     -52.29928                   -1017.75134
                    4838.34747                     -92.77842                   -2009.90879
                    5873.24890                     -74.70404                   -2198.74105
                    6546.81498                     -29.42476                   -2207.04508
                    7057.77167                      37.53929                   -2184.33323
                    8952.79331                     149.62930                   -2557.91342
                   10331.16709                     310.98082                   -2751.14888
                   11840.12236                     531.49796                   -3007.04016
                    6800.82643                     382.75092                   -1665.45539
                   13560.98727                     916.17431                   -3187.98598
                   13059.98383                    1041.30130                   -2917.05356
                   18473.61047                    1644.14614                   -3852.69276
                    7573.08142                     695.38923                   -1422.45254
        </DataArray>
        <DataArray type="Float32" Name="Moment" NumberOfComponents="3" format="ascii">
                     -17.72969                      -4.78745                      26.87111
                     206.94730                     -86.24976                     386.33671
                    1262.44548                    -449.36127                    2239.14252
                    1336.60777                    -629.02459                    2877.35002
                      75.59764                    -205.13531                     228.58882
                   -1067.80655                     -56.25772                   -2321.53274
                    -706.12735                     407.98113                   -1588.07094
                    -154.03643                    1153.97067                    -115.20472
                     102.70888                    1257.73611                     689.34830
                     331.16949                    1152.78170                    1602.80044
                     979.69354                     938.48478                    4079.33704
                    1834.95744                     175.77885                    7447.42453
                    -140.98228                     118.60327                    -489.36517
                   -2264.93718                     502.95664                   -9204.79261
                   -2001.34777                     431.30053                   -8530.53122
                    -469.03791                     204.75592                   -1410.33974
                     -96.26635                     195.22100                     186.27217
        </DataArray>
      </PointData>
    </Piece>
  </PolyData>
</VTKFile>
