<?xml version="1.0"?>
<VTKFile type="PolyData" version="0.1" byte_order="LittleEndian">
  <PolyData>
    <Piece NumberOfPoints="     17" NumberOfVerts="  0" NumberOfLines="      0"
           NumberOfStrips="  0" NumberOfPolys="      0">
      <Points>
        <DataArray type="Float32" NumberOfComponents="3" format="ascii">
                       2.63231                      -3.27540                      89.59337
                       2.40723                      -6.83612                      88.99507
                       2.19006                     -10.39648                      88.39173
                       1.98398                     -13.95636                      87.78172
                       1.79180                     -17.51568                      87.16398
                       1.61660                     -21.07439                      86.53777
                       1.46211                     -24.63243                      85.90238
                       1.33288                     -28.18967                      85.25704
                       1.23432                     -31.74594                      84.60105
                       1.17246                     -35.30093                      83.93383
                       1.15336                     -38.85420                      83.25504
                       1.18248                     -42.40517                      82.56470
                       1.26355                     -45.95318                      81.86330
                       1.39739                     -49.49761                      81.15183
                       1.58035                     -53.03818                      80.43188
                       1.80261                     -56.57533                      79.70576
                       2.04609                     -60.11049                      78.97650
        </DataArray>
      </Points>
      <PointData>
        <DataArray type="Float32" Name="Force" NumberOfComponents="3" format="ascii">
                     218.11160                     -27.78539                      82.97308
                     701.48897                     -80.93019                     227.94963
                    2270.60668                      58.21387                   -1127.07448
                    3731.10908                     113.74505                   -1879.54538
                    2267.11596                      61.07635                   -1040.47488
                    4929.21206                     122.76592                   -2059.44240
                    6001.35934                     150.16967                   -2259.33695
                    6721.65313                     185.33274                   -2278.98778
                    7272.87467                     241.33847                   -2260.05467
                    9248.10297                     380.10980                   -2647.66417
                   10709.05796                     554.25606                   -2846.12458
                   12283.36188                     796.92628                   -3088.98531
                    7073.60710                     531.60089                   -1704.09124
                   14169.81393                    1208.26290                   -3255.13375
                   13735.21082                    1319.72373                   -2973.12480
                   19581.11331                    2027.77941                   -3923.48430
                    8002.29707                     827.83399                   -1428.22888
        </DataArray>
        <DataArray type="Float32" Name="Moment" NumberOfComponents="3" format="ascii">
                     -17.87794                      -8.35274                      25.66583
                     208.34049                    -149.39401                     380.25932
                    1273.34641                    -822.42534                    2181.66578
                    1348.10550                   -1142.90041                    2786.06336
                      72.17424                    -284.38397                     193.27749
                   -1093.68390                     211.82319                   -2356.00028
                    -714.48220                     512.57885                   -1551.49691
                    -133.76008                     967.64566                      42.48444
                     135.02937                     928.23261                     868.66384
                     377.72139                     604.93901                    1778.08611
                    1061.01214                     -33.90817                    4280.85915
                    1948.13637                   -1248.91652                    7625.33005
                    -139.78877                      83.66319                    -493.97446
                   -2379.99560                    1753.45382                   -9412.87300
                   -2118.47535                    1605.12943                   -8780.61281
                    -470.46401                     204.95764                   -1401.65487
                    -111.87784                     126.08836                     153.72440
        </DataArray>
      </PointData>
    </Piece>
  </PolyData>
</VTKFile>
