<?xml version="1.0"?>
<VTKFile type="PolyData" version="0.1" byte_order="LittleEndian">
  <PolyData>
    <Piece NumberOfPoints="     19" NumberOfVerts="  0" NumberOfLines="     18"
           NumberOfStrips="  0" NumberOfPolys="      0">
      <Points>
        <DataArray type="Float32" NumberOfComponents="3" format="ascii">
                       3.03311                       0.68486                      91.46417
                       3.12016                       1.32533                      92.66837
                       3.27865                       2.52217                      95.12283
                       3.43362                       3.67890                      97.59907
                       3.63181                       5.10020                     100.70740
                       3.93038                       6.93125                     104.36550
                       4.26775                       8.87532                     107.95987
                       4.63002                      10.81926                     111.55188
                       5.02583                      12.76426                     115.13978
                       5.46221                      14.70815                     118.72355
                       5.94109                      16.64767                     122.30420
                       6.47629                      18.58353                     125.87884
                       7.07460                      20.51563                     129.44548
                       7.73928                      22.44407                     133.00232
                       8.47002                      24.36902                     136.54812
                       9.12106                      25.97106                     139.49518
                       9.66211                      27.25870                     141.84501
                      10.20453                      28.59490                     144.16856
                      10.47755                      29.22607                     145.34960
        </DataArray>
      </Points>
      <PointData>
        <DataArray type="Float32" Name="Force" NumberOfComponents="3" format="ascii">
                      -0.04513                       0.69541                      -0.36890
                      81.92198                      19.78370                     -16.56086
                      97.47986                      49.89428                     -33.97355
                      83.66598                      66.05230                     -41.78764
                     851.37873                    -276.94770                      79.92302
                    1152.98094                    -376.21281                     102.62044
                    1311.53720                    -351.08721                      66.80957
                    1651.19128                    -376.73767                      35.63519
                    1792.63299                    -350.43993                     -10.72900
                    2040.55403                    -351.91506                     -62.45558
                    2466.43619                    -377.48260                    -138.03056
                    2780.25586                    -387.24428                    -223.92781
                    3187.44996                    -428.38584                    -324.95587
                    3425.34902                    -436.89134                    -427.53913
                    3605.16784                    -434.98122                    -526.88966
                    3663.41774                    -410.86661                    -593.51127
                    3490.52898                    -356.61367                    -602.56303
                    2507.35401                    -237.53766                    -447.50052
                    1310.26504                     -42.50408                    -277.68940
        </DataArray>
        <DataArray type="Float32" Name="Moment" NumberOfComponents="3" format="ascii">
                       0.00000                       0.00000                       0.00000
                       0.00000                       0.00000                       0.00000
                       0.00000                       0.00000                       0.00000
                       0.00000                       0.00000                       0.00000
                     -20.35699                    -135.66382                    -253.24713
                     -31.83910                    -198.67152                    -370.61719
                     -47.93096                    -277.47141                    -517.19288
                     -72.69712                    -386.73928                    -720.14208
                    -105.74042                    -511.76282                    -951.77941
                    -133.71634                    -583.15272                   -1082.93284
                    -158.57285                    -617.52992                   -1144.69589
                    -190.32053                    -660.21181                   -1221.27094
                    -193.02104                    -598.41056                   -1104.44012
                    -212.98377                    -595.96142                   -1097.38115
                    -223.88892                    -575.25668                   -1057.01694
                    -222.55094                    -543.54731                    -997.40583
                    -200.38151                    -478.53333                    -877.56121
                    -100.94031                    -239.21555                    -438.59255
                     -88.58054                    -210.38719                    -385.76073
        </DataArray>
        <DataArray type="Float32" Name="TranslationalVelocity" NumberOfComponents="3" format="ascii">
                      -0.57887                      -1.19389                       0.62122
                      -0.52382                      -2.31768                       1.21493
                      -0.42396                      -4.60776                       2.32503
                      -0.32903                      -6.92310                       3.40015
                      -0.21313                      -9.83982                       4.72502
                      -0.05833                     -13.29558                       6.43935
                       0.11209                     -16.71477                       8.26942
                       0.28749                     -20.15384                      10.10978
                       0.47332                     -23.61237                      11.96125
                       0.67707                     -27.09107                      13.82072
                       0.90450                     -30.58894                      15.68272
                       1.16827                     -34.10638                      17.54619
                       1.47863                     -37.64158                      19.40765
                       1.84339                     -41.19216                      21.26337
                       2.26539                     -44.75519                      23.10998
                       2.65657                     -47.73128                      24.64118
                       2.99219                     -50.11152                      25.86830
                       3.34371                     -52.46762                      27.14137
                       3.51590                     -53.66487                      27.74157
        </DataArray>
        <DataArray type="Float32" Name="RotationalVelocity" NumberOfComponents="3" format="ascii">
                       0.92430                      -0.01426                      -0.11286
                       0.92506                      -0.01432                      -0.11288
                       0.92695                      -0.01440                      -0.11297
                       0.92927                      -0.01445                      -0.11311
                       0.93281                      -0.01446                      -0.11336
                       0.93764                      -0.01436                      -0.11377
                       0.94277                      -0.01383                      -0.11442
                       0.94800                      -0.01246                      -0.11553
                       0.95317                      -0.00979                      -0.11733
                       0.95814                      -0.00535                      -0.12007
                       0.96275                       0.00144                      -0.12404
                       0.96689                       0.01044                      -0.12915
                       0.97042                       0.02134                      -0.13524
                       0.97325                       0.03340                      -0.14190
                       0.97531                       0.04536                      -0.14845
                       0.97637                       0.05377                      -0.15303
                       0.97679                       0.05836                      -0.15552
                       0.97692                       0.06098                      -0.15693
                       0.97688                       0.06144                      -0.15717
        </DataArray>
        <DataArray type="Float32" Name="TranslationalAcceleration" NumberOfComponents="3" format="ascii">
                      -0.24329                      -0.73788                      -1.15933
                      -0.38941                      -1.23758                      -2.22697
                      -0.68950                      -2.15979                      -4.40056
                      -1.01021                      -3.03930                      -6.60427
                      -1.45161                      -4.10296                      -9.39379
                      -2.05268                      -5.47140                     -12.73047
                      -2.75171                      -6.92077                     -16.06892
                      -3.55845                      -8.34908                     -19.45441
                      -4.46414                      -9.76049                     -22.88424
                      -5.44314                     -11.15758                     -26.35679
                      -6.45494                     -12.54267                     -29.86797
                      -7.45409                     -13.91920                     -33.42259
                      -8.38195                     -15.29012                     -37.02503
                      -9.18134                     -16.65758                     -40.68278
                      -9.80708                     -18.02322                     -44.40355
                     -10.18436                     -19.16111                     -47.55332
                     -10.38948                     -20.07992                     -50.10123
                     -10.51930                     -21.05182                     -52.65019
                     -10.57756                     -21.49941                     -53.94082
        </DataArray>
        <DataArray type="Float32" Name="OrientationX" NumberOfComponents="3" format="ascii">
                       0.98275                      -0.18298                       0.02684
                       0.98272                      -0.18322                       0.02640
                       0.98263                      -0.18388                       0.02515
                       0.98250                      -0.18480                       0.02345
                       0.98227                      -0.18631                       0.02061
                       0.98696                      -0.16099                       0.00116
                       0.98950                      -0.14378                      -0.01502
                       0.99108                      -0.12965                      -0.03096
                       0.99213                      -0.11524                      -0.04886
                       0.99250                      -0.10114                      -0.06872
                       0.99195                      -0.08910                      -0.08997
                       0.99056                      -0.07805                      -0.11273
                       0.98833                      -0.06926                      -0.13567
                       0.98555                      -0.06452                      -0.15661
                       0.98258                      -0.05929                      -0.17611
                       0.98038                      -0.05349                      -0.18974
                       0.97913                      -0.04792                      -0.19751
                       0.97859                      -0.04454                      -0.20094
                       0.97868                      -0.04434                      -0.20057
        </DataArray>
        <DataArray type="Float32" Name="OrientationY" NumberOfComponents="3" format="ascii">
                       0.17364                       0.86300                      -0.47442
                       0.17364                       0.86297                      -0.47448
                       0.17363                       0.86290                      -0.47462
                       0.17361                       0.86280                      -0.47479
                       0.17359                       0.86266                      -0.47506
                       0.14215                       0.86800                      -0.47578
                       0.11938                       0.87131                      -0.47600
                       0.09945                       0.87384                      -0.47593
                       0.07837                       0.87624                      -0.47546
                       0.05666                       0.87842                      -0.47453
                       0.03614                       0.88020                      -0.47323
                       0.01582                       0.88174                      -0.47147
                      -0.00256                       0.88296                      -0.46943
                      -0.01644                       0.88379                      -0.46760
                      -0.03006                       0.88455                      -0.46547
                      -0.04140                       0.88515                      -0.46345
                      -0.04982                       0.88558                      -0.46182
                      -0.05432                       0.88578                      -0.46091
                      -0.05433                       0.88578                      -0.46091
        </DataArray>
        <DataArray type="Float32" Name="OrientationZ" NumberOfComponents="3" format="ascii">
                       0.06364                       0.47090                       0.87989
                       0.06415                       0.47086                       0.87987
                       0.06557                       0.47074                       0.87983
                       0.06751                       0.47055                       0.87979
                       0.07073                       0.47022                       0.87971
                       0.07559                       0.46974                       0.87956
                       0.08152                       0.46921                       0.87932
                       0.08876                       0.46860                       0.87894
                       0.09761                       0.46789                       0.87838
                       0.10836                       0.46707                       0.87756
                       0.12135                       0.46617                       0.87633
                       0.13620                       0.46523                       0.87465
                       0.15230                       0.46430                       0.87248
                       0.16858                       0.46342                       0.86996
                       0.18338                       0.46266                       0.86736
                       0.19275                       0.46221                       0.86557
                       0.19704                       0.46202                       0.86471
                       0.19852                       0.46196                       0.86440
                       0.19809                       0.46198                       0.86449
        </DataArray>
      </PointData>
      <Lines>
        <DataArray type="Int32" Name="connectivity" format="ascii">
      0      1
      1      2
      2      3
      3      4
      4      5
      5      6
      6      7
      7      8
      8      9
      9     10
     10     11
     11     12
     12     13
     13     14
     14     15
     15     16
     16     17
     17     18
        </DataArray>
        <DataArray type="Int32" Name="offsets" format="ascii">
      2
      4
      6
      8
     10
     12
     14
     16
     18
     20
     22
     24
     26
     28
     30
     32
     34
     36
        </DataArray>
      </Lines>
    </Piece>
  </PolyData>
</VTKFile>
