<?xml version="1.0"?>
<VTKFile type="PolyData" version="0.1" byte_order="LittleEndian">
  <PolyData>
    <Piece NumberOfPoints="     17" NumberOfVerts="  0" NumberOfLines="      0"
           NumberOfStrips="  0" NumberOfPolys="      0">
      <Points>
        <DataArray type="Float32" NumberOfComponents="3" format="ascii">
                       2.51005                       1.34493                      87.18336
                       1.95243                       2.84607                      83.93944
                       1.40265                       4.34753                      80.69434
                       0.86368                       5.84959                      77.44770
                       0.33801                       7.35238                      74.19922
                      -0.17177                       8.85598                      70.94859
                      -0.66254                      10.36056                      67.69549
                      -1.13044                      11.86636                      64.43959
                      -1.57090                      13.37358                      61.18054
                      -1.97885                      14.88230                      57.91797
                      -2.34911                      16.39243                      54.65156
                      -2.67711                      17.90362                      51.38113
                      -2.95969                      19.41534                      48.10672
                      -3.19625                      20.92700                      44.82861
                      -3.38998                      22.43806                      41.54738
                      -3.54947                      23.94824                      38.26384
                      -3.69039                      25.45776                      34.97911
        </DataArray>
      </Points>
      <PointData>
        <DataArray type="Float32" Name="Force" NumberOfComponents="3" format="ascii">
                     147.90898                     -44.43069                     -46.09484
                     514.41476                    -153.29203                    -158.14505
                    1976.41395                     673.48618                     -17.12862
                    3257.67506                    1097.25128                     -23.04582
                    1995.20704                     597.08351                     -41.20290
                    4390.57864                    1167.16735                    -138.40710
                    5385.05838                    1244.29240                    -220.68684
                    6042.48821                    1198.37923                    -289.21410
                    6507.20146                    1120.79687                    -327.16791
                    8211.30671                    1219.16873                    -411.21060
                    9431.57852                    1199.48070                    -441.62910
                   10744.10152                    1188.27441                    -430.99936
                    6159.45470                     604.35568                    -213.83750
                   12291.65682                    1046.49060                    -363.48660
                   11878.22132                     833.71247                    -288.87567
                   16925.81493                     912.30823                    -376.00045
                    6930.32074                     238.31609                    -190.59925
        </DataArray>
        <DataArray type="Float32" Name="Moment" NumberOfComponents="3" format="ascii">
                     -17.65427                     -16.78441                      -9.20257
                      92.58508                    -308.82236                    -206.48326
                     695.14390                   -1751.18646                   -1069.67023
                     652.93660                   -2187.57823                   -1445.48750
                      20.72862                    -145.28937                    -221.36254
                    -561.59967                    1908.66537                     832.00823
                    -332.00986                    1179.91413                     847.25682
                      -5.61570                    -276.80940                     813.36903
                     107.78237                    -966.02847                     578.62280
                     161.45512                   -1672.64750                     102.11959
                     350.93347                   -3676.40313                    -981.60496
                     534.92405                   -6255.23716                   -2697.97308
                     -42.56730                     362.01667                     189.65865
                    -595.68983                    7487.20859                    3518.49431
                    -464.59728                    6951.74559                    3233.13437
                    -178.81733                    1018.61503                     500.16227
                     -94.85533                    -192.93778                      74.25318
        </DataArray>
      </PointData>
    </Piece>
  </PolyData>
</VTKFile>
