<?xml version="1.0"?>
<VTKFile type="PolyData" version="0.1" byte_order="LittleEndian">
  <PolyData>
    <Piece NumberOfPoints="     17" NumberOfVerts="  0" NumberOfLines="      0"
           NumberOfStrips="  0" NumberOfPolys="      0">
      <Points>
        <DataArray type="Float32" NumberOfComponents="3" format="ascii">
                       2.57873                      -2.37929                      87.85397
                       2.12219                      -4.97535                      85.37618
                       1.67009                      -7.56863                      82.89468
                       1.22433                     -10.15838                      80.40834
                       0.78666                     -12.74412                      77.91641
                       0.35876                     -15.32566                      75.41843
                      -0.05780                     -17.90295                      72.91417
                      -0.46151                     -20.47607                      70.40352
                      -0.85096                     -23.04517                      67.88650
                      -1.22492                     -25.61049                      65.36329
                      -1.58245                     -28.17232                      62.83416
                      -1.92310                     -30.73102                      60.29954
                      -2.24712                     -33.28697                      57.75996
                      -2.55574                     -35.84060                      55.21614
                      -2.85151                     -38.39239                      52.66893
                      -3.13860                     -40.94289                      50.11945
                      -3.42331                     -43.49276                      47.56905
        </DataArray>
      </Points>
      <PointData>
        <DataArray type="Float32" Name="Force" NumberOfComponents="3" format="ascii">
                     164.19860                     -73.19074                      46.46318
                     588.77899                    -228.38821                     132.23408
                    2008.82489                     447.11389                    -829.96691
                    3291.21868                     750.13177                   -1368.29082
                    1982.26107                     391.61639                    -754.41857
                    4250.19300                     724.52647                   -1480.05974
                    5027.62240                     719.13259                   -1579.12576
                    5341.31849                     626.44412                   -1500.45258
                    5430.85818                     527.30475                   -1374.87821
                    6429.96108                     499.08697                   -1452.38353
                    6734.67649                     402.10032                   -1345.53888
                    6999.91018                     320.86104                   -1245.13654
                    3659.45655                     126.38853                    -588.68113
                    6434.33354                     134.77339                    -912.78174
                    5476.18957                      26.80759                    -657.58772
                    8640.51101                      -7.94144                    -959.62973
                    4503.43953                     -14.33321                    -490.16709
        </DataArray>
        <DataArray type="Float32" Name="Moment" NumberOfComponents="3" format="ascii">
                     -19.67225                     -18.13710                      16.94381
                     160.75905                    -318.16389                     213.54525
                    1016.59580                   -1758.44846                    1143.08157
                    1028.38034                   -2237.47996                    1452.41253
                      41.64436                    -266.13302                      27.90214
                    -860.23103                    1475.50059                   -1476.55809
                    -524.21956                    1419.60554                    -676.47345
                     -44.32156                    1200.06169                     756.31807
                     142.55526                     973.52074                    1363.40676
                     251.46733                     771.86627                    1905.57244
                     523.83506                    -133.96981                    3075.37106
                     714.92855                   -1789.08805                    3967.53132
                      -1.29694                     819.17230                     290.12798
                    -502.30948                    4692.93136                   -2257.30412
                    -218.22671                    3789.30555                   -1329.19202
                     161.13343                    1522.26483                    1657.92767
                     121.22089                     -82.79592                    1152.97542
        </DataArray>
      </PointData>
    </Piece>
  </PolyData>
</VTKFile>
