<?xml version="1.0"?>
<VTKFile type="PolyData" version="0.1" byte_order="LittleEndian">
  <PolyData>
    <Piece NumberOfPoints="     19" NumberOfVerts="  0" NumberOfLines="     18"
           NumberOfStrips="  0" NumberOfPolys="      0">
      <Points>
        <DataArray type="Float32" NumberOfComponents="3" format="ascii">
                       2.58516                      -2.45703                      87.93667
                       2.13950                      -5.13942                      85.55055
                       1.69731                      -7.81966                      83.16138
                       1.26009                     -10.49715                      80.76821
                       0.82921                     -13.17152                      78.37042
                       0.40599                     -15.84264                      75.96764
                      -0.00837                     -18.51049                      73.55969
                      -0.41274                     -21.17513                      71.14649
                      -0.80611                     -23.83669                      68.72809
                      -1.18763                     -26.49539                      66.30464
                      -1.55671                     -29.15147                      63.87640
                      -1.91314                     -31.80520                      61.44371
                      -2.25726                     -34.45690                      59.00703
                      -2.59010                     -37.10690                      56.56693
                      -2.91370                     -39.75555                      54.12413
                      -3.23126                     -42.40327                      51.67952
                      -3.54748                     -45.05051                      49.23422
                      -3.70595                     -46.37406                      48.01154
                       2.80865                      -1.11539                      89.12910
        </DataArray>
      </Points>
      <PointData>
        <DataArray type="Float32" Name="TranslationalVelocity" NumberOfComponents="3" format="ascii">
                      -0.18654                       2.03300                      -2.23421
                      -0.48152                       4.28871                      -4.71490
                      -0.75032                       6.56158                      -7.21489
                      -0.98173                       8.85654                      -9.74017
                      -1.16560                      11.17655                     -12.29470
                      -1.29215                      13.52296                     -14.88078
                      -1.35201                      15.89619                     -17.49977
                      -1.33614                      18.29607                     -20.15224
                      -1.23589                      20.72183                     -22.83808
                      -1.04349                      23.17220                     -25.55647
                      -0.75286                      25.64555                     -28.30592
                      -0.36067                      28.13988                     -31.08422
                       0.13223                      30.65284                     -33.88843
                       0.71906                      33.18174                     -36.71485
                       1.38516                      35.72338                     -39.55890
                       2.10561                      38.27383                     -42.41488
                       2.84261                      40.82841                     -45.27577
                       3.20962                      42.10609                     -46.70647
                      -0.03400                       0.90869                      -0.99781
        </DataArray>
        <DataArray type="Float32" Name="RotationalVelocity" NumberOfComponents="3" format="ascii">
                       0.92211                       0.00328                      -0.11078
                       0.92789                      -0.00096                      -0.10710
                       0.93619                      -0.00764                      -0.10114
                       0.94621                      -0.01638                      -0.09318
                       0.95718                      -0.02703                      -0.08325
                       0.96863                      -0.03950                      -0.07137
                       0.98029                      -0.05366                      -0.05761
                       0.99191                      -0.06946                      -0.04201
                       1.00325                      -0.08676                      -0.02466
                       1.01409                      -0.10532                      -0.00580
                       1.02422                      -0.12473                       0.01415
                       1.03345                      -0.14435                       0.03451
                       1.04155                      -0.16324                       0.05426
                       1.04830                      -0.18013                       0.07201
                       1.05338                      -0.19336                       0.08594
                       1.05639                      -0.20077                       0.09372
                       1.05689                      -0.19973                       0.09246
                       1.05646                      -0.19673                       0.08916
                       0.91994                       0.00472                      -0.11200
        </DataArray>
        <DataArray type="Float32" Name="TranslationalAcceleration" NumberOfComponents="3" format="ascii">
                       0.76802                       2.15447                       1.60550
                       1.00416                       4.62361                       3.53366
                       1.24015                       7.06660                       5.55792
                       1.46936                       9.47827                       7.70596
                       1.68288                      11.85625                       9.99603
                       1.88433                      14.20196                      12.43476
                       2.10176                      16.52101                      15.01766
                       2.39378                      18.82256                      17.73048
                       2.85023                      21.11785                      20.55143
                       3.58860                      23.41879                      23.45439
                       4.74547                      25.73647                      26.41224
                       6.46287                      28.07968                      29.39988
                       8.86955                      30.45407                      32.39600
                      12.05719                      32.86149                      35.38351
                      16.05154                      35.29837                      38.34939
                      20.77888                      37.75420                      41.28415
                      26.02762                      40.21213                      44.18075
                      28.74600                      41.43920                      45.61876
                       0.65010                       0.91416                       0.66153
        </DataArray>
        <DataArray type="Float32" Name="RotationalAcceleration" NumberOfComponents="3" format="ascii">
                       0.06602                      -0.02053                      -0.02004
                       0.04556                      -0.01819                      -0.01882
                       0.01758                      -0.01462                      -0.01759
                      -0.01597                      -0.00820                      -0.01851
                      -0.05217                      -0.00026                      -0.02066
                      -0.08781                       0.00525                      -0.02016
                      -0.11996                       0.00264                      -0.01118
                      -0.14620                      -0.01417                       0.01267
                      -0.16501                      -0.05096                       0.05763
                      -0.17584                      -0.11231                       0.12873
                      -0.17906                      -0.20064                       0.22879
                      -0.17593                      -0.31536                       0.35736
                      -0.16798                      -0.45196                       0.50966
                      -0.15701                      -0.60113                       0.67554
                      -0.14525                      -0.74787                       0.83854
                      -0.13504                      -0.87066                       0.97486
                      -0.12805                      -0.94061                       1.05230
                      -0.12551                      -0.95827                       1.07171
                       0.07421                      -0.02179                      -0.02016
        </DataArray>
        <DataArray type="Float32" Name="OrientationX" NumberOfComponents="3" format="ascii">
                       0.94121                       0.12289                      -0.31468
                       0.94133                       0.12361                      -0.31404
                       0.94151                       0.12473                      -0.31304
                       0.94585                       0.11737                      -0.30265
                       0.95501                       0.09850                      -0.27973
                       0.95998                       0.08866                      -0.26565
                       0.96473                       0.07885                      -0.25115
                       0.96941                       0.06851                      -0.23568
                       0.97381                       0.05813                      -0.21980
                       0.97771                       0.04840                      -0.20433
                       0.98122                       0.03888                      -0.18893
                       0.98426                       0.02996                      -0.17419
                       0.98653                       0.02313                      -0.16196
                       0.98837                       0.01704                      -0.15113
                       0.98999                       0.01038                      -0.14076
                       0.99135                       0.00298                      -0.13119
                       0.99207                      -0.00274                      -0.12566
                       0.99223                      -0.00489                      -0.12431
                       0.94117                       0.12264                      -0.31490
        </DataArray>
        <DataArray type="Float32" Name="OrientationY" NumberOfComponents="3" format="ascii">
                       0.31442                      -0.65935                       0.68293
                       0.31435                      -0.65977                       0.68256
                       0.31426                      -0.66034                       0.68205
                       0.30159                      -0.66262                       0.68555
                       0.27202                      -0.66667                       0.69394
                       0.25498                      -0.66906                       0.69811
                       0.23764                      -0.67127                       0.70208
                       0.21924                      -0.67336                       0.70606
                       0.20053                      -0.67524                       0.70982
                       0.18254                      -0.67683                       0.71315
                       0.16477                      -0.67819                       0.71618
                       0.14789                      -0.67929                       0.71881
                       0.13427                      -0.68012                       0.72070
                       0.12218                      -0.68075                       0.72225
                       0.11005                      -0.68123                       0.72375
                       0.09802                      -0.68151                       0.72521
                       0.09009                      -0.68159                       0.72617
                       0.08765                      -0.68158                       0.72648
                       0.31445                      -0.65919                       0.68308
        </DataArray>
        <DataArray type="Float32" Name="OrientationZ" NumberOfComponents="3" format="ascii">
                      -0.12356                      -0.74172                      -0.65923
                      -0.12282                      -0.74123                      -0.65992
                      -0.12164                      -0.74053                      -0.66092
                      -0.12007                      -0.73970                      -0.66213
                      -0.11813                      -0.73881                      -0.66348
                      -0.11584                      -0.73791                      -0.66489
                      -0.11323                      -0.73700                      -0.66634
                      -0.11032                      -0.73613                      -0.66779
                      -0.10715                      -0.73531                      -0.66921
                      -0.10378                      -0.73455                      -0.67058
                      -0.10028                      -0.73386                      -0.67186
                      -0.09679                      -0.73325                      -0.67303
                      -0.09348                      -0.73274                      -0.67406
                      -0.09058                      -0.73231                      -0.67492
                      -0.08837                      -0.73200                      -0.67555
                      -0.08724                      -0.73180                      -0.67591
                      -0.08764                      -0.73173                      -0.67594
                      -0.08828                      -0.73173                      -0.67585
                      -0.12381                      -0.74191                      -0.65897
        </DataArray>
      </PointData>
      <Lines>
        <DataArray type="Int32" Name="connectivity" format="ascii">
      0      1
      1      2
      2      3
      3      4
      4      5
      5      6
      6      7
      7      8
      8      9
      9     10
     10     11
     11     12
     12     13
     13     14
     14     15
     15     16
     16     17
     18      0
        </DataArray>
        <DataArray type="Int32" Name="offsets" format="ascii">
      2
      4
      6
      8
     10
     12
     14
     16
     18
     20
     22
     24
     26
     28
     30
     32
     34
     36
        </DataArray>
      </Lines>
    </Piece>
  </PolyData>
</VTKFile>
