<?xml version="1.0"?>
<VTKFile type="PolyData" version="0.1" byte_order="LittleEndian">
  <PolyData>
    <Piece NumberOfPoints="     19" NumberOfVerts="  0" NumberOfLines="     18"
           NumberOfStrips="  0" NumberOfPolys="      0">
      <Points>
        <DataArray type="Float32" NumberOfComponents="3" format="ascii">
                       3.06883                      -3.24112                      90.97036
                       3.02779                      -6.74727                      91.86063
                       2.99445                     -10.25481                      92.74572
                       2.97195                     -13.76416                      93.62394
                       2.96306                     -17.27555                      94.49421
                       2.97077                     -20.78908                      95.35577
                       2.99859                     -24.30480                      96.20794
                       3.05071                     -27.82266                      97.05001
                       3.13200                     -31.34252                      97.88130
                       3.24779                     -34.86407                      98.70124
                       3.40339                     -38.38680                      99.50940
                       3.60343                     -41.90998                     100.30567
                       3.85098                     -45.43277                     101.09028
                       4.14637                     -48.95431                     101.86400
                       4.48592                     -52.47398                     102.62824
                       4.86037                     -55.99171                     103.38540
                       5.25311                     -59.50826                     104.13893
                       5.45145                     -61.26641                     104.51530
                       3.09084                      -1.48832                      90.52418
        </DataArray>
      </Points>
      <PointData>
        <DataArray type="Float32" Name="TranslationalVelocity" NumberOfComponents="3" format="ascii">
                      -0.82978                      -0.72015                      -2.96569
                      -1.24506                      -1.53598                      -6.19782
                      -1.65891                      -2.34953                      -9.43750
                      -2.07045                      -3.16003                     -12.68681
                      -2.47868                      -3.96701                     -15.94705
                      -2.88242                      -4.77019                     -19.21892
                      -3.28027                      -5.56929                     -22.50277
                      -3.67068                      -6.36398                     -25.79866
                      -4.05190                      -7.15395                     -29.10638
                      -4.42209                      -7.93888                     -32.42545
                      -4.77949                      -8.71849                     -35.75506
                      -5.12261                      -9.49258                     -39.09411
                      -5.45050                     -10.26108                     -42.44117
                      -5.76319                     -11.02411                     -45.79460
                      -6.06202                     -11.78216                     -49.15262
                      -6.35020                     -12.53636                     -52.51349
                      -6.63336                     -13.28860                     -55.87563
                      -6.77457                     -13.66452                     -57.55684
                      -0.62189                      -0.31178                      -1.35119
        </DataArray>
        <DataArray type="Float32" Name="RotationalVelocity" NumberOfComponents="3" format="ascii">
                       0.92098                      -0.00932                      -0.11623
                       0.92249                      -0.00926                      -0.11594
                       0.92460                      -0.00915                      -0.11539
                       0.92709                      -0.00898                      -0.11461
                       0.92981                      -0.00874                      -0.11352
                       0.93266                      -0.00841                      -0.11209
                       0.93556                      -0.00799                      -0.11027
                       0.93845                      -0.00745                      -0.10800
                       0.94130                      -0.00678                      -0.10526
                       0.94406                      -0.00600                      -0.10204
                       0.94669                      -0.00510                      -0.09839
                       0.94915                      -0.00412                      -0.09442
                       0.95136                      -0.00311                      -0.09032
                       0.95327                      -0.00213                      -0.08641
                       0.95478                      -0.00130                      -0.08307
                       0.95574                      -0.00075                      -0.08087
                       0.95602                      -0.00066                      -0.08049
                       0.95597                      -0.00075                      -0.08085
                       0.92041                      -0.00933                      -0.11631
        </DataArray>
        <DataArray type="Float32" Name="TranslationalAcceleration" NumberOfComponents="3" format="ascii">
                      -1.13999                       2.97593                      -0.80291
                      -1.18316                       5.96299                      -1.71656
                      -1.21189                       8.97384                      -2.58529
                      -1.22286                      12.01457                      -3.39774
                      -1.21505                      15.08884                      -4.14688
                      -1.19163                      18.19861                      -4.82829
                      -1.16030                      21.34473                      -5.43898
                      -1.13383                      24.52712                      -5.97668
                      -1.13007                      27.74474                      -6.43944
                      -1.17106                      30.99539                      -6.82557
                      -1.28139                      34.27540                      -7.13391
                      -1.48578                      37.57944                      -7.36423
                      -1.80590                      40.90064                      -7.51792
                      -2.25634                      44.23128                      -7.59885
                      -2.83999                      47.56398                      -7.61486
                      -3.54254                      50.89354                      -7.57970
                      -4.32615                      54.21896                      -7.51485
                      -4.73180                      55.88084                      -7.47821
                      -1.11527                       1.48740                      -0.33662
        </DataArray>
        <DataArray type="Float32" Name="RotationalAcceleration" NumberOfComponents="3" format="ascii">
                       0.05040                       0.00420                       0.00335
                       0.03971                       0.00518                       0.00663
                       0.02512                       0.00646                       0.01090
                       0.00815                       0.00796                       0.01591
                      -0.01029                       0.00942                       0.02067
                      -0.02966                       0.01051                       0.02398
                      -0.04960                       0.01093                       0.02458
                      -0.06995                       0.01029                       0.02102
                      -0.09057                       0.00826                       0.01202
                      -0.11128                       0.00461                      -0.00337
                      -0.13180                      -0.00078                      -0.02556
                      -0.15170                      -0.00783                      -0.05422
                      -0.17044                      -0.01620                      -0.08801
                      -0.18727                      -0.02528                      -0.12447
                      -0.20118                      -0.03409                      -0.15976
                      -0.21087                      -0.04128                      -0.18845
                      -0.21479                      -0.04502                      -0.20331
                      -0.21510                      -0.04577                      -0.20625
                       0.05454                       0.00378                       0.00192
        </DataArray>
        <DataArray type="Float32" Name="OrientationX" NumberOfComponents="3" format="ascii">
                       0.93785                      -0.09663                      -0.33332
                       0.93787                      -0.09473                      -0.33381
                       0.93790                      -0.09175                      -0.33456
                       0.94246                      -0.08495                      -0.32336
                       0.95237                      -0.07336                      -0.29598
                       0.95760                      -0.06393                      -0.28092
                       0.96255                      -0.05342                      -0.26579
                       0.96739                      -0.04147                      -0.24989
                       0.97184                      -0.02809                      -0.23397
                       0.97562                      -0.01349                      -0.21905
                       0.97884                       0.00238                      -0.20461
                       0.98136                       0.01905                      -0.19122
                       0.98284                       0.03539                      -0.18105
                       0.98374                       0.05093                      -0.17222
                       0.98451                       0.06474                      -0.16294
                       0.98537                       0.07512                      -0.15296
                       0.98617                       0.07900                      -0.14573
                       0.98654                       0.07891                      -0.14321
                       0.93784                      -0.09726                      -0.33316
        </DataArray>
        <DataArray type="Float32" Name="OrientationY" NumberOfComponents="3" format="ascii">
                       0.34683                       0.22728                       0.90997
                       0.34683                       0.22675                       0.91011
                       0.34682                       0.22602                       0.91029
                       0.33430                       0.22634                       0.91488
                       0.30494                       0.22789                       0.92471
                       0.28806                       0.22817                       0.93003
                       0.27089                       0.22830                       0.93515
                       0.25266                       0.22830                       0.94024
                       0.23412                       0.22812                       0.94507
                       0.21631                       0.22771                       0.94940
                       0.19873                       0.22708                       0.95338
                       0.18206                       0.22624                       0.95691
                       0.16865                       0.22528                       0.95959
                       0.15678                       0.22427                       0.96183
                       0.14487                       0.22317                       0.96395
                       0.13302                       0.22206                       0.96592
                       0.12518                       0.22135                       0.96713
                       0.12275                       0.22116                       0.96748
                       0.34684                       0.22749                       0.90992
        </DataArray>
        <DataArray type="Float32" Name="OrientationZ" NumberOfComponents="3" format="ascii">
                      -0.01217                      -0.96902                       0.24667
                      -0.01052                      -0.96934                       0.24551
                      -0.00791                      -0.96979                       0.24380
                      -0.00453                      -0.97034                       0.24172
                      -0.00039                      -0.97092                       0.23941
                       0.00464                      -0.97152                       0.23691
                       0.01072                      -0.97213                       0.23422
                       0.01806                      -0.97271                       0.23133
                       0.02682                      -0.97323                       0.22827
                       0.03708                      -0.97364                       0.22508
                       0.04873                      -0.97387                       0.22180
                       0.06149                      -0.97389                       0.21856
                       0.07475                      -0.97365                       0.21545
                       0.08761                      -0.97320                       0.21264
                       0.09877                      -0.97263                       0.21034
                       0.10653                      -0.97213                       0.20882
                       0.10866                      -0.97199                       0.20840
                       0.10801                      -0.97204                       0.20850
                      -0.01271                      -0.96891                       0.24709
        </DataArray>
      </PointData>
      <Lines>
        <DataArray type="Int32" Name="connectivity" format="ascii">
      0      1
      1      2
      2      3
      3      4
      4      5
      5      6
      6      7
      7      8
      8      9
      9     10
     10     11
     11     12
     12     13
     13     14
     14     15
     15     16
     16     17
     18      0
        </DataArray>
        <DataArray type="Int32" Name="offsets" format="ascii">
      2
      4
      6
      8
     10
     12
     14
     16
     18
     20
     22
     24
     26
     28
     30
     32
     34
     36
        </DataArray>
      </Lines>
    </Piece>
  </PolyData>
</VTKFile>
