<?xml version="1.0"?>
<VTKFile type="PolyData" version="0.1" byte_order="LittleEndian">
  <PolyData>
    <Piece NumberOfPoints="     17" NumberOfVerts="  0" NumberOfLines="      0"
           NumberOfStrips="  0" NumberOfPolys="      0">
      <Points>
        <DataArray type="Float32" NumberOfComponents="3" format="ascii">
                       2.60175                       0.49726                      86.93715
                       1.99879                       1.08201                      83.41836
                       1.40336                       1.66980                      79.89880
                       0.81843                       2.26159                      76.37815
                       0.24656                       2.85794                      72.85613
                      -0.30957                       3.45912                      69.33241
                      -0.84691                       4.06532                      65.80664
                      -1.36184                       4.67670                      62.27843
                      -1.85017                       5.29327                      58.74735
                      -2.30737                       5.91493                      55.21300
                      -2.72896                       6.54136                      51.67508
                      -3.11105                       7.17204                      48.13344
                      -3.45115                       7.80628                      44.58814
                      -3.74914                       8.44327                      41.03954
                      -4.00840                       9.08216                      37.48821
                      -4.23722                       9.72213                      33.93494
                      -4.45025                      10.36254                      30.38074
        </DataArray>
      </Points>
      <PointData>
        <DataArray type="Float32" Name="Force" NumberOfComponents="3" format="ascii">
                     136.47462                     -57.09119                     -32.92597
                     456.63235                    -195.39996                    -109.67763
                    1643.14811                     575.44245                    -178.08833
                    2790.69352                     982.55922                    -292.81693
                    1743.96531                     542.25401                    -188.84163
                    3902.84351                    1070.86071                    -429.74533
                    4895.88010                    1161.40226                    -539.67409
                    5606.65255                    1137.55518                    -607.93367
                    6215.16670                    1100.79228                    -646.81940
                    8097.69815                    1251.81246                    -793.24572
                    9620.00093                    1313.74018                    -861.63983
                   11363.55974                    1428.00055                    -898.33927
                    6659.12485                     786.49549                    -471.93258
                   13511.90077                    1490.61542                    -848.83793
                   13236.91205                    1341.08586                    -718.16334
                   18990.48809                    1691.86160                    -921.22036
                    7825.10319                     510.98057                    -388.92030
        </DataArray>
        <DataArray type="Float32" Name="Moment" NumberOfComponents="3" format="ascii">
                     -16.99652                     -16.93329                      -3.56284
                      80.57283                    -285.28163                    -105.95008
                     620.77225                   -1632.13865                    -546.32523
                     626.64819                   -2177.20502                    -713.52572
                      28.62766                    -183.15841                    -108.13005
                    -513.94342                    1773.16465                     426.05148
                    -286.53344                    1168.33694                     719.61094
                      65.77301                    -170.12570                    1149.90003
                     191.18370                    -893.64262                    1114.87146
                     269.77339                   -1743.47826                     884.00783
                     520.46762                   -4060.03318                     280.33584
                     804.78320                   -7272.43234                    -980.63316
                     -49.92076                     423.48981                     134.42248
                    -917.70091                    8898.52957                    1691.61803
                    -814.92593                    8426.77984                    1488.45729
                    -252.60553                    1287.91550                      98.58648
                    -116.34199                    -203.59738                     115.31359
        </DataArray>
      </PointData>
    </Piece>
  </PolyData>
</VTKFile>
