<?xml version="1.0"?>
<VTKFile type="PolyData" version="0.1" byte_order="LittleEndian">
  <PolyData>
    <Piece NumberOfPoints="     17" NumberOfVerts="  0" NumberOfLines="      0"
           NumberOfStrips="  0" NumberOfPolys="      0">
      <Points>
        <DataArray type="Float32" NumberOfComponents="3" format="ascii">
                       3.28917                      -2.69948                      92.09653
                       3.40684                      -5.62432                      94.22229
                       3.53157                      -8.55119                      96.34483
                       3.66618                     -11.48076                      98.46306
                       3.81311                     -14.41337                     100.57622
                       3.97500                     -17.34923                     102.68379
                       4.15493                     -20.28845                     104.78518
                       4.35661                     -23.23112                     106.87977
                       4.58439                     -26.17718                     108.96687
                       4.84303                     -29.12644                     111.04582
                       5.13730                     -32.07850                     113.11603
                       5.47138                     -35.03274                     115.17706
                       5.84802                     -37.98834                     117.22877
                       6.26757                     -40.94447                     119.27142
                       6.72679                     -43.90036                     121.30591
                       7.21744                     -46.85559                     123.33410
                       7.72472                     -49.81030                     125.35899
        </DataArray>
      </Points>
      <PointData>
        <DataArray type="Float32" Name="Force" NumberOfComponents="3" format="ascii">
                     185.11852                      51.19676                      60.27812
                     595.87390                     156.00454                     179.56848
                    1905.32785                    -455.92515                    -748.01024
                    3149.64994                    -767.29723                   -1271.76017
                    1895.46978                    -403.85600                    -696.49188
                    4058.34065                    -743.04917                   -1352.45036
                    4869.33730                    -742.19231                   -1466.34073
                    5361.96485                    -662.01759                   -1468.35044
                    5759.07367                    -575.94743                   -1475.51573
                    7318.95187                    -569.68162                   -1775.01249
                    8469.40898                    -488.23849                   -1985.29393
                    9856.93734                    -414.63173                   -2312.36294
                    5729.13275                    -172.83249                   -1345.47021
                   11571.20804                    -205.28091                   -2711.76532
                   11358.20544                     -44.73512                   -2650.11480
                   16449.57952                     161.02897                   -3756.31447
                    6940.51492                     159.74578                   -1491.52897
        </DataArray>
        <DataArray type="Float32" Name="Moment" NumberOfComponents="3" format="ascii">
                     -17.01415                       9.66540                      21.59624
                     161.45990                     147.66616                     305.07711
                    1042.26845                     868.86945                    1741.93645
                    1107.08392                    1132.47180                    2247.37230
                      63.52103                      19.28518                     223.48255
                    -837.22627                   -1118.00825                   -1616.03678
                    -585.47431                    -290.66076                   -1453.52525
                    -228.26991                    1108.42579                    -957.04012
                     -51.68571                    1642.11665                    -498.77480
                      98.29197                    2132.20689                      91.48235
                     557.95181                    3279.41735                    1820.23620
                    1244.42225                    4404.61771                    4628.06389
                    -121.32382                      -7.40675                    -472.41188
                   -1656.59268                   -4209.83845                   -6555.56033
                   -1492.98761                   -4052.70073                   -6145.32978
                    -351.14728                    -288.65472                   -1019.77424
                     -85.39035                     368.20416                      93.52065
        </DataArray>
      </PointData>
    </Piece>
  </PolyData>
</VTKFile>
