<?xml version="1.0"?>
<VTKFile type="PolyData" version="0.1" byte_order="LittleEndian">
  <PolyData>
    <Piece NumberOfPoints="     19" NumberOfVerts="  0" NumberOfLines="     18"
           NumberOfStrips="  0" NumberOfPolys="      0">
      <Points>
        <DataArray type="Float32" NumberOfComponents="3" format="ascii">
                       2.72435                      -0.31195                      91.59563
                       2.81705                      -0.56671                      92.93518
                       2.97915                      -1.16918                      95.59838
                       3.13333                      -1.81602                      98.25386
                       3.32659                      -2.65177                     101.56827
                       3.62718                      -3.51604                     105.56655
                       3.97229                      -4.25465                     109.58502
                       4.33735                      -4.99293                     113.60178
                       4.73071                      -5.72958                     117.61617
                       5.15902                      -6.46693                     121.62683
                       5.62452                      -7.20848                     125.63253
                       6.14081                      -7.95305                     129.63141
                       6.71527                      -8.70017                     133.62185
                       7.35207                      -9.44907                     137.60248
                       8.05211                     -10.19891                     141.57230
                       8.67652                     -10.82387                     144.87303
                       9.19692                     -11.31588                     147.51109
                       9.72390                     -11.75378                     150.15852
                       9.98617                     -12.01364                     151.47434
        </DataArray>
      </Points>
      <PointData>
        <DataArray type="Float32" Name="Force" NumberOfComponents="3" format="ascii">
                       0.05726                       2.68949                       0.50041
                      74.89089                      25.49020                      -0.44950
                      93.33908                      60.32451                       4.68768
                      83.23248                      78.94069                       8.76700
                     775.42650                    -309.79824                    -116.48896
                    1127.17781                    -458.34134                    -175.36358
                    1300.13334                    -434.31119                    -190.99471
                    1661.33645                    -465.14116                    -237.43155
                    1812.80056                    -430.44469                    -258.66189
                    2097.37888                    -429.04968                    -306.69307
                    2580.41138                    -452.56259                    -394.48964
                    2977.49818                    -454.26689                    -484.82156
                    3462.72263                    -477.74188                    -609.17439
                    3814.44788                    -468.13442                    -722.67896
                    4195.14487                    -451.85471                    -847.07114
                    4419.26435                    -421.43815                    -926.09198
                    4364.15620                    -365.42473                    -925.85961
                    3174.13337                    -229.74498                    -672.77057
                    1390.00039                      39.00028                    -267.75308
        </DataArray>
        <DataArray type="Float32" Name="Moment" NumberOfComponents="3" format="ascii">
                       0.00000                       0.00000                       0.00000
                       0.00000                       0.00000                       0.00000
                       0.00000                       0.00000                       0.00000
                       0.00000                       0.00000                       0.00000
                     -14.71517                      36.69811                    -195.55107
                     -26.56188                      62.94058                    -335.23628
                     -42.97015                      95.92462                    -510.63224
                     -68.32665                     142.26678                    -756.79783
                     -97.93128                     187.99726                    -999.18976
                    -123.53252                     216.05363                   -1147.04988
                    -144.56711                     227.60935                   -1206.74933
                    -172.65180                     243.39700                   -1288.38666
                    -179.59579                     226.87623                   -1198.80068
                    -201.40245                     229.77533                   -1211.88654
                    -216.04764                     226.12763                   -1190.60601
                    -219.61968                     218.14324                   -1147.28487
                    -202.87456                     196.69116                   -1033.90632
                    -105.49504                     101.29036                    -532.31563
                     -90.32219                      86.81415                    -456.24912
        </DataArray>
        <DataArray type="Float32" Name="TranslationalVelocity" NumberOfComponents="3" format="ascii">
                      -0.09221                      -1.39671                      -0.25174
                      -0.12188                      -2.65097                      -0.48823
                      -0.19148                      -5.14486                      -1.04837
                      -0.26737                      -7.63912                      -1.65224
                      -0.36795                     -10.76726                      -2.43719
                      -0.47774                     -14.57256                      -3.25539
                      -0.57782                     -18.43213                      -3.96062
                      -0.68200                     -22.32350                      -4.67062
                      -0.79293                     -26.24600                      -5.38346
                      -0.91600                     -30.19706                      -6.10019
                      -1.05635                     -34.17077                      -6.82247
                      -1.22378                     -38.16706                      -7.54748
                      -1.42719                     -42.18267                      -8.27214
                      -1.67405                     -46.21431                      -8.99286
                      -1.96820                     -50.25846                      -9.70620
                      -2.24709                     -53.63551                     -10.29368
                      -2.48887                     -56.34179                     -10.75117
                      -2.73509                     -59.05984                     -11.15207
                      -2.86401                     -60.41094                     -11.39329
        </DataArray>
        <DataArray type="Float32" Name="RotationalVelocity" NumberOfComponents="3" format="ascii">
                       0.92788                      -0.00188                      -0.10559
                       0.92902                      -0.00204                      -0.10570
                       0.93182                      -0.00249                      -0.10598
                       0.93525                      -0.00304                      -0.10632
                       0.94047                      -0.00380                      -0.10683
                       0.94762                      -0.00463                      -0.10748
                       0.95518                      -0.00542                      -0.10816
                       0.96270                      -0.00657                      -0.10889
                       0.96985                      -0.00860                      -0.10977
                       0.97643                      -0.01201                      -0.11087
                       0.98226                      -0.01749                      -0.11230
                       0.98740                      -0.02504                      -0.11407
                       0.99186                      -0.03455                      -0.11616
                       0.99563                      -0.04543                      -0.11847
                       0.99862                      -0.05662                      -0.12077
                       1.00037                      -0.06485                      -0.12244
                       1.00118                      -0.06970                      -0.12340
                       1.00149                      -0.07289                      -0.12402
                       1.00145                      -0.07376                      -0.12418
        </DataArray>
        <DataArray type="Float32" Name="TranslationalAcceleration" NumberOfComponents="3" format="ascii">
                       1.10549                       0.20076                      -1.05398
                       1.04736                       0.39746                      -2.22936
                       0.93083                       0.86660                      -4.57170
                       0.81094                       1.35558                      -6.92992
                       0.65556                       1.95731                      -9.91610
                       0.45892                       2.49711                     -13.58769
                       0.25521                       2.84597                     -17.35168
                       0.05393                       3.11384                     -21.19417
                      -0.13329                       3.29897                     -25.11526
                      -0.29086                       3.40534                     -29.11301
                      -0.40672                       3.44683                     -33.17753
                      -0.45850                       3.41876                     -37.31541
                      -0.42893                       3.32593                     -41.52577
                      -0.30590                       3.17396                     -45.80756
                      -0.08684                       2.97016                     -50.15743
                       0.15989                       2.76848                     -53.82662
                       0.39052                       2.58341                     -56.78447
                       0.62961                       2.33483                     -59.74728
                       0.75284                       2.25347                     -61.23161
        </DataArray>
        <DataArray type="Float32" Name="OrientationX" NumberOfComponents="3" format="ascii">
                       0.96586                      -0.23411                      -0.11096
                       0.96583                      -0.23403                      -0.11135
                       0.96575                      -0.23382                      -0.11247
                       0.96564                      -0.23354                      -0.11399
                       0.96546                      -0.23306                      -0.11653
                       0.97264                      -0.20176                      -0.11516
                       0.97704                      -0.17870                      -0.11606
                       0.98027                      -0.15814                      -0.11856
                       0.98311                      -0.13611                      -0.12235
                       0.98533                      -0.11307                      -0.12783
                       0.98659                      -0.09070                      -0.13572
                       0.98701                      -0.06807                      -0.14551
                       0.98648                      -0.04702                      -0.15701
                       0.98503                      -0.03026                      -0.16970
                       0.98334                      -0.01394                      -0.18127
                       0.98212                      -0.00080                      -0.18826
                       0.98155                       0.00850                      -0.19103
                       0.98131                       0.01336                      -0.19195
                       0.98135                       0.01333                      -0.19175
        </DataArray>
        <DataArray type="Float32" Name="OrientationY" NumberOfComponents="3" format="ascii">
                       0.24997                       0.95466                       0.16168
                       0.24996                       0.95467                       0.16162
                       0.24995                       0.95470                       0.16146
                       0.24994                       0.95474                       0.16127
                       0.24992                       0.95479                       0.16097
                       0.21896                       0.96181                       0.16427
                       0.19651                       0.96626                       0.16651
                       0.17681                       0.96973                       0.16844
                       0.15593                       0.97293                       0.17058
                       0.13441                       0.97572                       0.17292
                       0.11401                       0.97790                       0.17527
                       0.09377                       0.97959                       0.17780
                       0.07544                       0.98071                       0.18031
                       0.06156                       0.98130                       0.18237
                       0.04794                       0.98164                       0.18460
                       0.03658                       0.98175                       0.18664
                       0.02814                       0.98172                       0.18824
                       0.02362                       0.98167                       0.18911
                       0.02362                       0.98167                       0.18911
        </DataArray>
        <DataArray type="Float32" Name="OrientationZ" NumberOfComponents="3" format="ascii">
                       0.06808                      -0.18390                       0.98058
                       0.06848                      -0.18393                       0.98055
                       0.06962                      -0.18404                       0.98045
                       0.07117                      -0.18422                       0.98030
                       0.07374                      -0.18454                       0.98006
                       0.07762                      -0.18499                       0.97967
                       0.08239                      -0.18549                       0.97919
                       0.08834                      -0.18608                       0.97856
                       0.09582                      -0.18678                       0.97772
                       0.10517                      -0.18757                       0.97660
                       0.11682                      -0.18839                       0.97512
                       0.13044                      -0.18914                       0.97325
                       0.14551                      -0.18972                       0.97100
                       0.16101                      -0.19008                       0.96847
                       0.17537                      -0.19022                       0.96595
                       0.18467                      -0.19019                       0.96422
                       0.18914                      -0.19014                       0.96337
                       0.19096                      -0.19011                       0.96301
                       0.19076                      -0.19012                       0.96305
        </DataArray>
      </PointData>
      <Lines>
        <DataArray type="Int32" Name="connectivity" format="ascii">
      0      1
      1      2
      2      3
      3      4
      4      5
      5      6
      6      7
      7      8
      8      9
      9     10
     10     11
     11     12
     12     13
     13     14
     14     15
     15     16
     16     17
     17     18
        </DataArray>
        <DataArray type="Int32" Name="offsets" format="ascii">
      2
      4
      6
      8
     10
     12
     14
     16
     18
     20
     22
     24
     26
     28
     30
     32
     34
     36
        </DataArray>
      </Lines>
    </Piece>
  </PolyData>
</VTKFile>
