<?xml version="1.0"?>
<VTKFile type="PolyData" version="0.1" byte_order="LittleEndian">
  <PolyData>
    <Piece NumberOfPoints="     19" NumberOfVerts="  0" NumberOfLines="     18"
           NumberOfStrips="  0" NumberOfPolys="      0">
      <Points>
        <DataArray type="Float32" NumberOfComponents="3" format="ascii">
                       2.89834                       3.29018                      90.03494
                       2.73215                       6.90252                      89.93116
                       2.57370                      10.51505                      89.82246
                       2.42584                      14.12785                      89.70769
                       2.29085                      17.74092                      89.58606
                       2.17119                      21.35427                      89.45704
                       2.07013                      24.96791                      89.32043
                       1.99205                      28.58181                      89.17619
                       1.94238                      32.19589                      89.02427
                       1.92735                      35.80993                      88.86454
                       1.95349                      39.42352                      88.69672
                       2.02680                      43.03605                      88.52043
                       2.15172                      46.64672                      88.33529
                       2.32983                      50.25471                      88.14125
                       2.55829                      53.85946                      87.93882
                       2.82797                      57.46103                      87.72944
                       3.12143                      61.06056                      87.51597
                       3.27133                      62.86004                      87.40869
                       2.98296                       1.48405                      90.08577
        </DataArray>
      </Points>
      <PointData>
        <DataArray type="Float32" Name="TranslationalVelocity" NumberOfComponents="3" format="ascii">
                       0.66441                       0.06806                       3.09208
                       1.07712                       0.18293                       6.42956
                       1.49663                       0.30186                       9.77072
                       1.92558                       0.42569                      13.11656
                       2.36627                       0.55496                      16.46752
                       2.82145                       0.68985                      19.82367
                       3.29476                       0.83013                      23.18489
                       3.79102                       0.97516                      26.55084
                       4.31623                       1.12397                      29.92085
                       4.87721                       1.27528                      33.29385
                       5.48110                       1.42750                      36.66835
                       6.13446                       1.57876                      40.04242
                       6.84220                       1.72703                      43.41395
                       7.60613                       1.87036                      46.78095
                       8.42338                       2.00743                      50.14211
                       9.28446                       2.13836                      53.49735
                      10.17107                       2.26534                      56.84870
                      10.61785                       2.32827                      58.52382
                       0.45936                       0.01151                       1.42411
        </DataArray>
        <DataArray type="Float32" Name="RotationalVelocity" NumberOfComponents="3" format="ascii">
                       0.92310                       0.00855                      -0.11377
                       0.92393                       0.00855                      -0.11523
                       0.92508                       0.00854                      -0.11754
                       0.92643                       0.00852                      -0.12047
                       0.92784                       0.00849                      -0.12405
                       0.92924                       0.00843                      -0.12849
                       0.93059                       0.00834                      -0.13409
                       0.93182                       0.00820                      -0.14119
                       0.93287                       0.00801                      -0.15009
                       0.93365                       0.00774                      -0.16096
                       0.93409                       0.00741                      -0.17379
                       0.93413                       0.00701                      -0.18829
                       0.93379                       0.00656                      -0.20382
                       0.93314                       0.00610                      -0.21933
                       0.93232                       0.00568                      -0.23328
                       0.93157                       0.00536                      -0.24355
                       0.93125                       0.00524                      -0.24739
                       0.93126                       0.00524                      -0.24731
                       0.92279                       0.00855                      -0.11330
        </DataArray>
        <DataArray type="Float32" Name="TranslationalAcceleration" NumberOfComponents="3" format="ascii">
                       0.36472                      -2.78586                      -0.03930
                       0.40602                      -5.91132                       0.20213
                       0.42257                      -9.04272                       0.55512
                       0.40906                     -12.18133                       1.04722
                       0.36374                     -15.32735                       1.69514
                       0.27059                     -18.48099                       2.50619
                       0.08559                     -21.64299                       3.48026
                      -0.26985                     -24.81402                       4.61291
                      -0.90888                     -27.99288                       5.89874
                      -1.97401                     -31.17409                       7.33408
                      -3.62613                     -34.34529                       8.91848
                      -6.02768                     -37.48533                      10.65482
                      -9.32018                     -40.56497                      12.54697
                     -13.59603                     -43.55157                      14.59536
                     -18.86427                     -46.41912                      16.79254
                     -25.01053                     -49.16350                      19.11758
                     -31.75185                     -51.82047                      21.52704
                     -35.22387                     -53.13462                      22.74569
                       0.33935                      -1.22435                      -0.13627
        </DataArray>
        <DataArray type="Float32" Name="RotationalAcceleration" NumberOfComponents="3" format="ascii">
                       0.02758                      -0.03917                      -0.00150
                       0.05277                      -0.03783                       0.00387
                       0.08683                      -0.03598                       0.01253
                       0.12671                      -0.03385                       0.02089
                       0.16969                      -0.03155                       0.03055
                       0.21349                      -0.02900                       0.04775
                       0.25653                      -0.02602                       0.08171
                       0.29823                      -0.02237                       0.14224
                       0.33894                      -0.01777                       0.23853
                       0.37964                      -0.01200                       0.37746
                       0.42159                      -0.00490                       0.56208
                       0.46586                       0.00351                       0.78995
                       0.51229                       0.01295                       1.05172
                       0.55918                       0.02286                       1.32956
                       0.60315                       0.03231                       1.59553
                       0.63838                       0.03992                       1.81020
                       0.65540                       0.04380                       1.92121
                       0.65793                       0.04453                       1.94340
                       0.01759                      -0.03967                      -0.00254
        </DataArray>
        <DataArray type="Float32" Name="OrientationX" NumberOfComponents="3" format="ascii">
                       0.99290                       0.04956                       0.10810
                       0.99297                       0.04802                       0.10814
                       0.99308                       0.04560                       0.10822
                       0.99458                       0.04219                       0.09508
                       0.99722                       0.03756                       0.06433
                       0.99837                       0.03248                       0.04685
                       0.99923                       0.02625                       0.02918
                       0.99977                       0.01853                       0.01054
                       0.99992                       0.00908                      -0.00828
                       0.99965                      -0.00221                      -0.02618
                       0.99893                      -0.01532                      -0.04370
                       0.99774                      -0.02993                      -0.06016
                       0.99629                      -0.04529                      -0.07321
                       0.99457                      -0.06049                      -0.08465
                       0.99260                      -0.07414                      -0.09614
                       0.99061                      -0.08426                      -0.10768
                       0.98940                      -0.08812                      -0.11540
                       0.98912                      -0.08810                      -0.11784
                       0.99288                       0.05006                       0.10809
        </DataArray>
        <DataArray type="Float32" Name="OrientationY" NumberOfComponents="3" format="ascii">
                       0.10933                      -0.02285                      -0.99374
                       0.10939                      -0.02419                      -0.99370
                       0.10947                      -0.02601                      -0.99365
                       0.09633                      -0.02872                      -0.99494
                       0.06555                      -0.03224                      -0.99733
                       0.04798                      -0.03520                      -0.99823
                       0.03016                      -0.03805                      -0.99882
                       0.01128                      -0.04072                      -0.99911
                      -0.00788                      -0.04312                      -0.99904
                      -0.02625                      -0.04518                      -0.99863
                      -0.04438                      -0.04686                      -0.99792
                      -0.06156                      -0.04814                      -0.99694
                      -0.07542                      -0.04908                      -0.99594
                      -0.08770                      -0.04967                      -0.99491
                      -0.09997                      -0.04980                      -0.99374
                      -0.11209                      -0.04946                      -0.99247
                      -0.12001                      -0.04898                      -0.99156
                      -0.12244                      -0.04875                      -0.99128
                       0.10931                      -0.02232                      -0.99376
        </DataArray>
        <DataArray type="Float32" Name="OrientationZ" NumberOfComponents="3" format="ascii">
                      -0.04678                       0.99851                      -0.02810
                      -0.04510                       0.99855                      -0.02927
                      -0.04250                       0.99862                      -0.03082
                      -0.03924                       0.99870                      -0.03263
                      -0.03539                       0.99877                      -0.03462
                      -0.03077                       0.99885                      -0.03671
                      -0.02511                       0.99893                      -0.03881
                      -0.01808                       0.99900                      -0.04092
                      -0.00943                       0.99903                      -0.04305
                       0.00102                       0.99898                      -0.04522
                       0.01324                       0.99878                      -0.04749
                       0.02694                       0.99839                      -0.04987
                       0.04152                       0.99777                      -0.05231
                       0.05598                       0.99693                      -0.05470
                       0.06889                       0.99600                      -0.05684
                       0.07830                       0.99522                      -0.05844
                       0.08172                       0.99491                      -0.05903
                       0.08158                       0.99492                      -0.05901
                      -0.04733                       0.99850                      -0.02763
        </DataArray>
      </PointData>
      <Lines>
        <DataArray type="Int32" Name="connectivity" format="ascii">
      0      1
      1      2
      2      3
      3      4
      4      5
      5      6
      6      7
      7      8
      8      9
      9     10
     10     11
     11     12
     12     13
     13     14
     14     15
     15     16
     16     17
     18      0
        </DataArray>
        <DataArray type="Int32" Name="offsets" format="ascii">
      2
      4
      6
      8
     10
     12
     14
     16
     18
     20
     22
     24
     26
     28
     30
     32
     34
     36
        </DataArray>
      </Lines>
    </Piece>
  </PolyData>
</VTKFile>
