<?xml version="1.0"?>
<VTKFile type="PolyData" version="0.1" byte_order="LittleEndian">
  <PolyData>
    <Piece NumberOfPoints="     17" NumberOfVerts="  0" NumberOfLines="      0"
           NumberOfStrips="  0" NumberOfPolys="      0">
      <Points>
        <DataArray type="Float32" NumberOfComponents="3" format="ascii">
                       3.26409                      -2.85277                      91.87641
                       3.35118                      -5.94051                      93.75940
                       3.44566                      -9.02991                      95.63930
                       3.55046                     -12.12152                      97.51502
                       3.66811                     -15.21564                      99.38582
                       3.80126                     -18.31242                     101.25116
                       3.95296                     -21.41196                     103.11049
                       4.12680                     -24.51429                     104.96319
                       4.32694                     -27.61938                     106.80860
                       4.55788                     -30.72700                     108.64611
                       4.82408                     -33.83678                     110.47517
                       5.12937                     -36.94811                     112.29545
                       5.47622                     -40.06026                     114.10686
                       5.86472                     -43.17247                     115.90974
                       6.29148                     -46.28408                     117.70504
                       6.74831                     -49.39481                     119.49454
                       7.22067                     -52.50495                     121.28109
        </DataArray>
      </Points>
      <PointData>
        <DataArray type="Float32" Name="Force" NumberOfComponents="3" format="ascii">
                     191.77066                      45.97843                      66.64753
                     614.84887                     138.79559                     196.69524
                    1942.10025                    -421.87359                    -800.03745
                    3203.76731                    -705.95056                   -1355.93961
                    1929.40823                    -371.90666                    -742.17233
                    4137.66444                    -686.39967                   -1443.17418
                    4969.81826                    -686.66792                   -1565.28639
                    5471.10079                    -611.05422                   -1563.95453
                    5866.29298                    -526.92184                   -1563.58611
                    7432.21922                    -511.71629                   -1865.28205
                    8575.22270                    -423.11222                   -2065.13981
                    9981.71896                    -336.18565                   -2385.68056
                    5794.45924                    -126.13631                   -1377.17306
                   11674.24449                    -109.60414                   -2748.98050
                   11430.61560                      49.87295                   -2656.35351
                   16474.12775                     291.94700                   -3712.31109
                    6910.76517                     206.93133                   -1452.07118
        </DataArray>
        <DataArray type="Float32" Name="Moment" NumberOfComponents="3" format="ascii">
                     -17.09910                       8.31637                      23.00392
                     167.46045                     123.78510                     321.44246
                    1072.01040                     743.92152                    1834.85340
                    1136.28584                     972.69386                    2364.25931
                      65.58869                       7.76041                     225.87881
                    -863.83477                    -993.20659                   -1734.13360
                    -599.90407                    -184.08247                   -1493.44274
                    -219.82096                    1179.58906                    -865.97626
                     -34.43422                    1674.04948                    -357.28079
                     123.02208                    2112.98080                     278.10706
                     603.45085                    3133.35265                    2116.85337
                    1312.29450                    4045.55905                    5047.15920
                    -122.52108                      22.39166                    -470.87513
                   -1717.14506                   -3710.06913                   -6930.69371
                   -1539.03985                   -3565.37446                   -6484.80499
                    -375.64023                    -238.83468                   -1115.68157
                     -80.61975                     380.04256                     129.81132
        </DataArray>
      </PointData>
    </Piece>
  </PolyData>
</VTKFile>
