<?xml version="1.0"?>
<VTKFile type="PolyData" version="0.1" byte_order="LittleEndian">
  <PolyData>
    <Piece NumberOfPoints="     17" NumberOfVerts="  0" NumberOfLines="      0"
           NumberOfStrips="  0" NumberOfPolys="      0">
      <Points>
        <DataArray type="Float32" NumberOfComponents="3" format="ascii">
                       2.23552                      -2.54540                      88.00291
                       1.81646                      -5.28771                      85.68095
                       1.40484                      -8.02781                      83.35506
                       1.00363                     -10.76503                      81.02397
                       0.61547                     -13.49896                      78.68683
                       0.24319                     -16.22941                      76.34304
                      -0.10981                     -18.95620                      73.99203
                      -0.43941                     -21.67918                      71.63323
                      -0.74078                     -24.39820                      69.26612
                      -1.00854                     -27.11314                      66.89032
                      -1.23730                     -29.82389                      64.50568
                      -1.42228                     -32.53038                      62.11244
                      -1.56022                     -35.23259                      59.71121
                      -1.65051                     -37.93063                      57.30299
                      -1.69658                     -40.62485                      54.88918
                      -1.70742                     -43.31605                      52.47152
                      -1.69942                     -46.00564                      50.05199
        </DataArray>
      </Points>
      <PointData>
        <DataArray type="Float32" Name="Force" NumberOfComponents="3" format="ascii">
                     173.25607                     -70.91770                      52.44191
                     616.34891                    -216.76864                     147.02553
                    2134.42745                     454.15554                    -905.18003
                    3584.92592                     800.35934                   -1546.45358
                    2191.41341                     433.18989                    -866.88572
                    4758.38062                     824.50223                   -1712.51043
                    5768.31372                     866.46352                   -1861.77844
                    6411.21158                     842.39543                   -1847.53711
                    6920.70877                     829.82534                   -1800.59112
                    8795.00717                     988.02579                   -2063.23293
                   10199.57546                    1114.32311                   -2157.08999
                   11808.55358                    1320.06066                   -2280.98134
                    6840.08090                     780.86888                   -1227.97914
                   13772.51087                    1600.09039                   -2279.95667
                   13456.78859                    1586.26354                   -2016.14346
                   19397.54428                    2246.78863                   -2591.96337
                    8034.78503                     840.97596                    -929.05529
        </DataArray>
        <DataArray type="Float32" Name="Moment" NumberOfComponents="3" format="ascii">
                     -19.97407                     -17.87309                      18.30311
                     176.24635                    -323.57118                     242.28524
                    1102.35492                   -1838.00609                    1299.44018
                    1185.79930                   -2496.99378                    1638.49392
                      42.00084                    -387.40759                     -25.51992
                   -1013.81458                    1316.65051                   -1885.70697
                    -639.73918                    1200.07079                   -1054.45891
                     -80.47889                     819.82824                     522.96542
                     162.12664                     412.83044                    1222.20459
                     353.50588                    -258.83863                    1845.41919
                     905.32106                   -2008.70739                    3615.53221
                    1599.90720                   -4763.44192                    5780.19236
                    -112.33604                     356.01586                    -319.96063
                   -1921.10503                    6248.83387                   -6828.71752
                   -1709.74196                    5829.59536                   -6434.81852
                    -380.15507                     883.12089                    -915.47987
                     -92.97189                      12.58909                     269.21250
        </DataArray>
      </PointData>
    </Piece>
  </PolyData>
</VTKFile>
