<?xml version="1.0"?>
<VTKFile type="PolyData" version="0.1" byte_order="LittleEndian">
  <PolyData>
    <Piece NumberOfPoints="     19" NumberOfVerts="  0" NumberOfLines="     18"
           NumberOfStrips="  0" NumberOfPolys="      0">
      <Points>
        <DataArray type="Float32" NumberOfComponents="3" format="ascii">
                       2.51877                       1.22181                      89.31374
                       2.37318                       2.36261                      88.57533
                       2.07007                       4.69566                      87.18001
                       1.76480                       7.05349                      85.82309
                       1.38782                      10.01634                      84.14963
                       0.98872                      13.49610                      82.01523
                       0.62106                      16.90672                      79.76907
                       0.27555                      20.31774                      77.51999
                      -0.03980                      23.72837                      75.26592
                      -0.31851                      27.13971                      73.00812
                      -0.55871                      30.55340                      70.74951
                      -0.74768                      33.96830                      68.48793
                      -0.87913                      37.38351                      66.22277
                      -0.94993                      40.79788                      63.95366
                      -0.96002                      44.21030                      61.68053
                      -0.92964                      47.05214                      59.78360
                      -0.88700                      49.32006                      58.25816
                      -0.84559                      51.55767                      56.68663
                      -0.82141                      52.69921                      55.93562
        </DataArray>
      </Points>
      <PointData>
        <DataArray type="Float32" Name="Force" NumberOfComponents="3" format="ascii">
                      -0.03073                      -0.17668                      -0.26539
                      67.35271                      -5.39834                     -21.47538
                      83.36683                     -21.23622                     -48.72891
                      72.97774                     -33.00971                     -64.54311
                     825.52853                     219.33516                     184.06658
                    1076.09276                     252.52132                     197.13119
                    1239.34928                     243.35850                     166.18812
                    1565.61075                     258.29171                     153.15477
                    1685.15830                     227.89544                     112.59930
                    1911.25654                     208.64007                      85.35250
                    2316.56147                     192.56298                      61.16321
                    2622.64510                     154.42734                      36.97099
                    3044.94485                     119.11996                      32.97242
                    3322.16393                      60.75049                      21.29704
                    3573.54963                      -1.58181                      10.32258
                    3722.49668                     -52.04806                      -6.52360
                    3651.08175                     -83.82564                     -29.16102
                    2677.10693                     -75.42224                     -35.50670
                    1273.11610                     -94.13692                    -105.00530
        </DataArray>
        <DataArray type="Float32" Name="Moment" NumberOfComponents="3" format="ascii">
                       0.00000                       0.00000                       0.00000
                       0.00000                       0.00000                       0.00000
                       0.00000                       0.00000                       0.00000
                       0.00000                       0.00000                       0.00000
                      28.32820                    -235.37361                     153.42258
                      37.97603                    -329.80908                     215.17698
                      48.65588                    -447.30841                     292.16694
                      63.46886                    -628.43853                     411.04129
                      76.34156                    -834.70441                     546.87479
                      76.46162                    -957.62282                     628.69540
                      66.89271                   -1017.41607                     669.61161
                      54.11679                   -1091.54685                     720.44459
                      31.70201                    -992.19584                     656.89603
                      13.95436                    -994.68669                     660.60954
                      -2.29034                    -967.79292                     644.58581
                     -11.80816                    -921.59875                     614.93362
                     -14.42607                    -818.48148                     546.58513
                      -7.96565                    -412.44366                     275.51211
                      -6.71564                    -356.25506                     237.95907
        </DataArray>
        <DataArray type="Float32" Name="TranslationalVelocity" NumberOfComponents="3" format="ascii">
                      -0.22995                       0.73317                       1.14150
                      -0.09964                       1.43691                       2.20303
                       0.16597                       2.76995                       4.37431
                       0.43458                       4.06820                       6.56998
                       0.77325                       5.67067                       9.33149
                       1.17520                       7.70796                      12.57894
                       1.57437                       9.84939                      15.76644
                       1.97833                      11.99445                      18.95885
                       2.38821                      14.14421                      22.15542
                       2.80551                      16.29658                      25.35696
                       3.23091                      18.44805                      28.56436
                       3.66657                      20.59913                      31.77673
                       4.11360                      22.74909                      34.99289
                       4.57249                      24.89728                      38.21143
                       5.04265                      27.04309                      41.43090
                       5.44149                      28.82954                      44.11371
                       5.76353                      30.26407                      46.25548
                       6.08344                      31.74240                      48.36874
                       6.24557                      32.44832                      49.44692
        </DataArray>
        <DataArray type="Float32" Name="RotationalVelocity" NumberOfComponents="3" format="ascii">
                       0.93151                      -0.00927                      -0.10814
                       0.93170                      -0.00929                      -0.10821
                       0.93218                      -0.00936                      -0.10841
                       0.93278                      -0.00947                      -0.10869
                       0.93368                      -0.00966                      -0.10916
                       0.93492                      -0.00998                      -0.10989
                       0.93622                      -0.01041                      -0.11081
                       0.93751                      -0.01099                      -0.11195
                       0.93876                      -0.01173                      -0.11334
                       0.93993                      -0.01266                      -0.11500
                       0.94096                      -0.01381                      -0.11697
                       0.94186                      -0.01515                      -0.11920
                       0.94260                      -0.01660                      -0.12158
                       0.94318                      -0.01808                      -0.12396
                       0.94360                      -0.01942                      -0.12610
                       0.94382                      -0.02026                      -0.12743
                       0.94392                      -0.02062                      -0.12802
                       0.94397                      -0.02073                      -0.12818
                       0.94398                      -0.02067                      -0.12809
        </DataArray>
        <DataArray type="Float32" Name="TranslationalAcceleration" NumberOfComponents="3" format="ascii">
                       1.25085                      -1.00966                       1.04949
                       1.26240                      -1.98484                       1.76035
                       1.27703                      -3.99308                       3.09960
                       1.27546                      -6.05520                       4.35587
                       1.24197                      -8.70069                       5.81372
                       1.14846                     -11.90534                       7.52048
                       0.97674                     -15.18324                       9.15617
                       0.71521                     -18.59486                      10.62303
                       0.38470                     -22.13454                      11.92622
                       0.03257                     -25.79260                      13.07136
                      -0.28059                     -29.54824                      14.07850
                      -0.46783                     -33.40114                      14.94029
                      -0.43287                     -37.34380                      15.66529
                      -0.08627                     -41.37287                      16.26455
                       0.63432                     -45.48641                      16.75430
                       1.52243                     -48.97299                      17.09679
                       2.41249                     -51.79446                      17.34613
                       3.42167                     -54.62487                      17.63667
                       3.93706                     -56.04608                      17.73851
        </DataArray>
        <DataArray type="Float32" Name="OrientationX" NumberOfComponents="3" format="ascii">
                       0.98517                       0.16231                       0.05567
                       0.98522                       0.16193                       0.05592
                       0.98535                       0.16087                       0.05661
                       0.98553                       0.15941                       0.05756
                       0.98583                       0.15699                       0.05914
                       0.99005                       0.13637                       0.03476
                       0.99266                       0.11958                       0.01836
                       0.99464                       0.10329                       0.00505
                       0.99634                       0.08510                      -0.00840
                       0.99765                       0.06506                      -0.02139
                       0.99852                       0.04388                      -0.03224
                       0.99889                       0.02133                      -0.04196
                       0.99878                      -0.00119                      -0.04938
                       0.99837                      -0.02145                      -0.05289
                       0.99756                      -0.04048                      -0.05689
                       0.99663                      -0.05409                      -0.06173
                       0.99584                      -0.06214                      -0.06668
                       0.99539                      -0.06583                      -0.06974
                       0.99540                      -0.06550                      -0.06995
        </DataArray>
        <DataArray type="Float32" Name="OrientationY" NumberOfComponents="3" format="ascii">
                       0.13443                      -0.52845                      -0.83825
                       0.13444                      -0.52851                      -0.83822
                       0.13446                      -0.52864                      -0.83813
                       0.13448                      -0.52881                      -0.83802
                       0.13451                      -0.52907                      -0.83785
                       0.10303                      -0.53410                      -0.83912
                       0.08027                      -0.53741                      -0.83949
                       0.06034                      -0.54002                      -0.83948
                       0.03925                      -0.54238                      -0.83921
                       0.01751                      -0.54436                      -0.83867
                      -0.00306                      -0.54581                      -0.83790
                      -0.02348                      -0.54678                      -0.83695
                      -0.04198                      -0.54722                      -0.83594
                      -0.05599                      -0.54727                      -0.83508
                      -0.06977                      -0.54701                      -0.83421
                      -0.08129                      -0.54656                      -0.83347
                      -0.08984                      -0.54609                      -0.83290
                      -0.09443                      -0.54580                      -0.83258
                      -0.09443                      -0.54580                      -0.83258
        </DataArray>
        <DataArray type="Float32" Name="OrientationZ" NumberOfComponents="3" format="ascii">
                      -0.10663                       0.83330                      -0.54243
                      -0.10618                       0.83334                      -0.54246
                      -0.10490                       0.83346                      -0.54253
                      -0.10315                       0.83364                      -0.54260
                      -0.10025                       0.83393                      -0.54269
                      -0.09587                       0.83435                      -0.54284
                      -0.09052                       0.83480                      -0.54306
                      -0.08398                       0.83529                      -0.54336
                      -0.07597                       0.83581                      -0.54374
                      -0.06621                       0.83632                      -0.54422
                      -0.05437                       0.83676                      -0.54487
                      -0.04080                       0.83701                      -0.54567
                      -0.02602                       0.83699                      -0.54660
                      -0.01103                       0.83668                      -0.54758
                       0.00265                       0.83615                      -0.54850
                       0.01134                       0.83567                      -0.54911
                       0.01534                       0.83542                      -0.54940
                       0.01674                       0.83532                      -0.54950
                       0.01636                       0.83535                      -0.54947
        </DataArray>
      </PointData>
      <Lines>
        <DataArray type="Int32" Name="connectivity" format="ascii">
      0      1
      1      2
      2      3
      3      4
      4      5
      5      6
      6      7
      7      8
      8      9
      9     10
     10     11
     11     12
     12     13
     13     14
     14     15
     15     16
     16     17
     17     18
        </DataArray>
        <DataArray type="Int32" Name="offsets" format="ascii">
      2
      4
      6
      8
     10
     12
     14
     16
     18
     20
     22
     24
     26
     28
     30
     32
     34
     36
        </DataArray>
      </Lines>
    </Piece>
  </PolyData>
</VTKFile>
