<?xml version="1.0"?>
<VTKFile type="PolyData" version="0.1" byte_order="LittleEndian">
  <PolyData>
    <Piece NumberOfPoints="     19" NumberOfVerts="  0" NumberOfLines="     18"
           NumberOfStrips="  0" NumberOfPolys="      0">
      <Points>
        <DataArray type="Float32" NumberOfComponents="3" format="ascii">
                       2.65896                       0.90104                      88.97311
                       2.47077                       1.74149                      87.91192
                       2.08028                       3.49616                      85.85018
                       1.68633                       5.28498                      83.81559
                       1.19721                       7.54056                      81.28633
                       0.66534                      10.13280                      78.15138
                       0.16584                      12.61917                      74.92818
                      -0.31393                      15.09983                      71.69763
                      -0.76605                      17.57378                      68.45806
                      -1.18396                      20.04304                      65.21046
                      -1.56525                      22.51109                      61.95764
                      -1.89673                      24.97662                      58.69761
                      -2.17116                      27.43933                      55.43031
                      -2.38437                      29.89870                      52.15605
                      -2.53527                      32.35423                      48.87557
                      -2.62048                      34.39759                      46.13811
                      -2.66874                      36.02426                      43.94170
                      -2.71563                      37.60656                      41.71176
                      -2.73636                      38.43085                      40.62190
        </DataArray>
      </Points>
      <PointData>
        <DataArray type="Float32" Name="Force" NumberOfComponents="3" format="ascii">
                      -0.03412                      -0.36693                      -0.28317
                      63.84858                      -8.78034                     -18.18689
                      83.08993                     -31.63459                     -39.45496
                      74.45219                     -47.98589                     -50.65657
                     809.36000                     280.65320                      84.18448
                     999.40655                     302.15504                      74.15692
                    1183.17690                     303.33366                      52.41290
                    1532.32577                     337.62192                      36.23284
                    1697.43456                     314.87698                       9.90743
                    1971.97069                     310.32188                      -8.67134
                    2428.92166                     315.78590                     -27.13255
                    2792.13047                     295.26099                     -36.49538
                    3229.69236                     281.03961                     -28.53932
                    3521.94387                     233.78987                     -19.41259
                    3755.49357                     175.13078                     -10.82134
                    3862.22611                     117.68926                     -14.41200
                    3731.95247                      65.56697                     -30.23244
                    2685.77087                      20.31123                     -36.33108
                    1279.84983                     -77.39101                     -84.96390
        </DataArray>
        <DataArray type="Float32" Name="Moment" NumberOfComponents="3" format="ascii">
                       0.00000                       0.00000                       0.00000
                       0.00000                       0.00000                       0.00000
                       0.00000                       0.00000                       0.00000
                       0.00000                       0.00000                       0.00000
                      46.06885                    -214.60062                     272.52138
                      57.20858                    -274.97858                     349.41487
                      70.46216                    -352.24126                     447.93232
                      91.44360                    -480.68567                     611.83821
                     113.14418                    -635.41331                     809.71436
                     116.81486                    -716.75278                     914.66905
                     108.45102                    -751.61302                     960.84756
                      97.48111                    -795.82030                    1019.45167
                      71.97591                    -731.73894                     939.49036
                      53.59353                    -729.41914                     938.69937
                      35.54692                    -706.00403                     910.53333
                      23.72263                    -672.19683                     868.15182
                      16.71532                    -596.15225                     770.46013
                       7.52725                    -300.49064                     388.45877
                       6.58749                    -259.87224                     335.94003
        </DataArray>
        <DataArray type="Float32" Name="TranslationalVelocity" NumberOfComponents="3" format="ascii">
                      -0.51612                       1.10514                       0.79374
                      -0.40558                       2.10065                       1.56257
                      -0.17792                       4.03801                       3.16834
                       0.05128                       5.95235                       4.80734
                       0.33631                       8.33471                       6.87760
                       0.66085                      11.28386                       9.26265
                       0.96683                      14.31680                      11.55649
                       1.26504                      17.36097                      13.85134
                       1.55916                      20.41767                      16.14605
                       1.85616                      23.48579                      18.44193
                       2.16372                      26.56195                      20.74103
                       2.49315                      29.64718                      23.04184
                       2.85588                      32.73990                      25.34329
                       3.26193                      35.83774                      27.64432
                       3.71740                      38.93773                      29.94420
                       4.13348                      41.52094                      31.85960
                       4.48745                      43.59123                      33.38505
                       4.84924                      45.69267                      34.86848
                       5.03517                      46.71939                      35.64139
        </DataArray>
        <DataArray type="Float32" Name="RotationalVelocity" NumberOfComponents="3" format="ascii">
                       0.91819                      -0.01683                      -0.11068
                       0.91850                      -0.01661                      -0.11056
                       0.91927                      -0.01607                      -0.11027
                       0.92020                      -0.01539                      -0.10990
                       0.92160                      -0.01427                      -0.10927
                       0.92350                      -0.01262                      -0.10830
                       0.92556                      -0.01093                      -0.10733
                       0.92772                      -0.00965                      -0.10670
                       0.92991                      -0.00929                      -0.10681
                       0.93209                      -0.01038                      -0.10805
                       0.93413                      -0.01354                      -0.11091
                       0.93594                      -0.01880                      -0.11538
                       0.93740                      -0.02606                      -0.12136
                       0.93845                      -0.03483                      -0.12846
                       0.93905                      -0.04418                      -0.13593
                       0.93922                      -0.05129                      -0.14156
                       0.93918                      -0.05563                      -0.14497
                       0.93905                      -0.05864                      -0.14733
                       0.93896                      -0.05956                      -0.14803
        </DataArray>
        <DataArray type="Float32" Name="TranslationalAcceleration" NumberOfComponents="3" format="ascii">
                       0.29641                      -1.11622                       0.90072
                       0.39128                      -1.85295                       1.80284
                       0.57337                      -3.37332                       3.57287
                       0.75653                      -4.87290                       5.37391
                       0.99637                      -6.67660                       7.71130
                       1.32474                      -8.58659                      10.73938
                       1.70668                     -10.19890                      13.99666
                       2.14070                     -11.59949                      17.42591
                       2.62229                     -12.79155                      21.02414
                       3.13321                     -13.78910                      24.78382
                       3.64470                     -14.62828                      28.68029
                       4.11961                     -15.30721                      32.72094
                       4.51176                     -15.84399                      36.89342
                       4.77584                     -16.25657                      41.18165
                       4.87685                     -16.56443                      45.56438
                       4.83024                     -16.75883                      49.26905
                       4.70893                     -16.87511                      52.25698
                       4.53285                     -16.92030                      55.25630
                       4.43357                     -16.98752                      56.75470
        </DataArray>
        <DataArray type="Float32" Name="OrientationX" NumberOfComponents="3" format="ascii">
                       0.97812                       0.20782                      -0.00936
                       0.97817                       0.20759                      -0.00906
                       0.97832                       0.20691                      -0.00821
                       0.97853                       0.20600                      -0.00704
                       0.97886                       0.20447                      -0.00511
                       0.98384                       0.17768                      -0.02211
                       0.98705                       0.15704                      -0.03280
                       0.98961                       0.13786                      -0.04073
                       0.99199                       0.11679                      -0.04812
                       0.99408                       0.09403                      -0.05436
                       0.99581                       0.07076                      -0.05801
                       0.99712                       0.04638                      -0.05994
                       0.99797                       0.02260                      -0.05948
                       0.99844                       0.00209                      -0.05587
                       0.99844                      -0.01757                      -0.05294
                       0.99809                      -0.03240                      -0.05256
                       0.99765                      -0.04195                      -0.05419
                       0.99736                      -0.04673                      -0.05550
                       0.99736                      -0.04662                      -0.05565
        </DataArray>
        <DataArray type="Float32" Name="OrientationY" NumberOfComponents="3" format="ascii">
                       0.15592                      -0.76215                      -0.62834
                       0.15596                      -0.76235                      -0.62809
                       0.15607                      -0.76283                      -0.62748
                       0.15620                      -0.76342                      -0.62672
                       0.15640                      -0.76433                      -0.62558
                       0.12534                      -0.77165                      -0.62358
                       0.10294                      -0.77678                      -0.62130
                       0.08333                      -0.78104                      -0.61889
                       0.06253                      -0.78500                      -0.61633
                       0.04103                      -0.78850                      -0.61367
                       0.02063                      -0.79130                      -0.61108
                       0.00032                      -0.79350                      -0.60857
                      -0.01813                      -0.79503                      -0.60630
                      -0.03216                      -0.79595                      -0.60451
                      -0.04599                      -0.79644                      -0.60297
                      -0.05755                      -0.79649                      -0.60191
                      -0.06614                      -0.79631                      -0.60126
                      -0.07074                      -0.79617                      -0.60092
                      -0.07074                      -0.79617                      -0.60093
        </DataArray>
        <DataArray type="Float32" Name="OrientationZ" NumberOfComponents="3" format="ascii">
                      -0.13771                       0.61313                      -0.77788
                      -0.13729                       0.61297                      -0.77809
                      -0.13610                       0.61259                      -0.77859
                      -0.13448                       0.61217                      -0.77921
                      -0.13182                       0.61155                      -0.78015
                      -0.12786                       0.61073                      -0.78145
                      -0.12305                       0.60987                      -0.78289
                      -0.11714                       0.60907                      -0.78442
                      -0.10975                       0.60838                      -0.78602
                      -0.10056                       0.60781                      -0.78769
                      -0.08914                       0.60732                      -0.78944
                      -0.07579                       0.60680                      -0.79124
                      -0.06099                       0.60615                      -0.79301
                      -0.04573                       0.60536                      -0.79464
                      -0.03157                       0.60447                      -0.79600
                      -0.02236                       0.60379                      -0.79683
                      -0.01793                       0.60343                      -0.79722
                      -0.01611                       0.60327                      -0.79738
                      -0.01629                       0.60328                      -0.79736
        </DataArray>
      </PointData>
      <Lines>
        <DataArray type="Int32" Name="connectivity" format="ascii">
      0      1
      1      2
      2      3
      3      4
      4      5
      5      6
      6      7
      7      8
      8      9
      9     10
     10     11
     11     12
     12     13
     13     14
     14     15
     15     16
     16     17
     17     18
        </DataArray>
        <DataArray type="Int32" Name="offsets" format="ascii">
      2
      4
      6
      8
     10
     12
     14
     16
     18
     20
     22
     24
     26
     28
     30
     32
     34
     36
        </DataArray>
      </Lines>
    </Piece>
  </PolyData>
</VTKFile>
