<?xml version="1.0"?>
<VTKFile type="PolyData" version="0.1" byte_order="LittleEndian">
  <PolyData>
    <Piece NumberOfPoints="     19" NumberOfVerts="  0" NumberOfLines="     18"
           NumberOfStrips="  0" NumberOfPolys="      0">
      <Points>
        <DataArray type="Float32" NumberOfComponents="3" format="ascii">
                       3.29520                      -2.08592                      92.71348
                       3.49381                      -4.34851                      95.52925
                       3.69998                      -6.61388                      98.34225
                       3.91671                      -8.88290                     101.15150
                       4.14663                     -11.15608                     103.95634
                       4.39251                     -13.43364                     106.75625
                       4.65765                     -15.71578                     109.55068
                       4.94596                     -18.00259                     112.33897
                       5.26204                     -20.29405                     115.12041
                       5.61090                     -22.58996                     117.89425
                       5.99756                     -24.88988                     120.65972
                       6.42639                     -27.19311                     123.41620
                       6.90027                     -29.49874                     126.16327
                       7.41952                     -31.80581                     128.90097
                       7.98066                     -34.11337                     131.63000
                       8.57495                     -36.42081                     134.35219
                       9.18676                     -38.72799                     137.07076
                       9.49460                     -39.88155                     138.42964
                       3.19736                      -0.95518                      91.30504
        </DataArray>
      </Points>
      <PointData>
        <DataArray type="Float32" Name="TranslationalVelocity" NumberOfComponents="3" format="ascii">
                       0.12144                      -2.38261                      -1.82608
                      -0.10238                      -4.97624                      -3.89439
                      -0.33003                      -7.57429                      -5.96998
                      -0.56255                     -10.17771                      -8.05482
                      -0.80052                     -12.78710                     -10.15007
                      -1.04424                     -15.40274                     -12.25634
                      -1.29406                     -18.02458                     -14.37382
                      -1.55049                     -20.65227                     -16.50239
                      -1.81418                     -23.28531                     -18.64162
                      -2.08590                     -25.92313                     -20.79076
                      -2.36651                     -28.56514                     -22.94874
                      -2.65675                     -31.21079                     -25.11419
                      -2.95714                     -33.85954                     -27.28546
                      -3.26772                     -36.51085                     -29.46080
                      -3.58779                     -39.16418                     -31.63856
                      -3.91560                     -41.81900                     -33.81738
                      -4.24800                     -44.47471                     -35.99649
                      -4.41486                     -45.80271                     -37.08608
                       0.23256                      -1.08675                      -0.79345
        </DataArray>
        <DataArray type="Float32" Name="RotationalVelocity" NumberOfComponents="3" format="ascii">
                       0.91217                       0.01239                      -0.11371
                       0.91397                       0.01183                      -0.11429
                       0.91640                       0.01104                      -0.11509
                       0.91923                       0.01010                      -0.11604
                       0.92229                       0.00911                      -0.11704
                       0.92543                       0.00807                      -0.11809
                       0.92852                       0.00694                      -0.11921
                       0.93148                       0.00568                      -0.12043
                       0.93425                       0.00426                      -0.12176
                       0.93681                       0.00264                      -0.12323
                       0.93912                       0.00082                      -0.12486
                       0.94119                      -0.00119                      -0.12660
                       0.94300                      -0.00329                      -0.12842
                       0.94452                      -0.00539                      -0.13020
                       0.94571                      -0.00727                      -0.13179
                       0.94650                      -0.00867                      -0.13297
                       0.94677                      -0.00923                      -0.13344
                       0.94675                      -0.00925                      -0.13346
                       0.91146                       0.01260                      -0.11350
        </DataArray>
        <DataArray type="Float32" Name="TranslationalAcceleration" NumberOfComponents="3" format="ascii">
                      -0.57468                       1.88189                      -2.13695
                      -0.97463                       3.93892                      -4.38190
                      -1.39281                       6.00705                      -6.63518
                      -1.83597                       8.08951                      -8.89811
                      -2.30967                      10.18818                     -11.17132
                      -2.81841                      12.30377                     -13.45488
                      -3.36583                      14.43625                     -15.74812
                      -3.95475                      16.58498                     -18.04972
                      -4.58713                      18.74868                     -20.35806
                      -5.26405                      20.92542                     -22.67134
                      -5.98544                      23.11272                     -24.98776
                      -6.74986                      25.30767                     -27.30569
                      -7.55415                      27.50713                     -29.62384
                      -8.39299                      29.70821                     -31.94135
                      -9.25838                      31.90866                     -34.25811
                     -10.13913                      34.10747                     -36.57491
                     -11.02010                      36.30541                     -38.89340
                     -11.45848                      37.40439                     -40.05333
                      -0.37832                       0.85565                      -1.01634
        </DataArray>
        <DataArray type="Float32" Name="RotationalAcceleration" NumberOfComponents="3" format="ascii">
                      -0.05121                      -0.02175                      -0.00488
                      -0.05116                      -0.02463                      -0.00719
                      -0.05131                      -0.02906                      -0.01073
                      -0.05165                      -0.03475                      -0.01528
                      -0.05206                      -0.04150                      -0.02067
                      -0.05251                      -0.04913                      -0.02675
                      -0.05303                      -0.05746                      -0.03340
                      -0.05358                      -0.06635                      -0.04050
                      -0.05410                      -0.07561                      -0.04789
                      -0.05457                      -0.08504                      -0.05543
                      -0.05493                      -0.09437                      -0.06289
                      -0.05515                      -0.10327                      -0.07001
                      -0.05522                      -0.11131                      -0.07646
                      -0.05514                      -0.11798                      -0.08182
                      -0.05492                      -0.12264                      -0.08557
                      -0.05458                      -0.12450                      -0.08708
                      -0.05420                      -0.12263                      -0.08561
                      -0.05400                      -0.12064                      -0.08403
                      -0.05127                      -0.02073                      -0.00405
        </DataArray>
        <DataArray type="Float32" Name="OrientationX" NumberOfComponents="3" format="ascii">
                       0.95091                      -0.20572                      -0.23121
                       0.95081                      -0.20459                      -0.23262
                       0.95064                      -0.20281                      -0.23483
                       0.95440                      -0.19052                      -0.22983
                       0.96272                      -0.16432                      -0.21488
                       0.96686                      -0.14763                      -0.20832
                       0.97064                      -0.13010                      -0.20230
                       0.97420                      -0.11100                      -0.19649
                       0.97729                      -0.09083                      -0.19147
                       0.97966                      -0.07037                      -0.18794
                       0.98141                      -0.04926                      -0.18550
                       0.98245                      -0.02823                      -0.18435
                       0.98259                      -0.00947                      -0.18557
                       0.98225                       0.00783                      -0.18740
                       0.98189                       0.02411                      -0.18792
                       0.98181                       0.03822                      -0.18598
                       0.98213                       0.04571                      -0.18255
                       0.98243                       0.04723                      -0.18055
                       0.95094                      -0.20610                      -0.23074
        </DataArray>
        <DataArray type="Float32" Name="OrientationY" NumberOfComponents="3" format="ascii">
                       0.30472                       0.75293                       0.58330
                       0.30474                       0.75272                       0.58356
                       0.30476                       0.75244                       0.58391
                       0.29211                       0.75473                       0.58741
                       0.26244                       0.75988                       0.59473
                       0.24543                       0.76228                       0.59891
                       0.22814                       0.76441                       0.60302
                       0.20979                       0.76634                       0.60722
                       0.19115                       0.76795                       0.61133
                       0.17326                       0.76912                       0.61517
                       0.15563                       0.76991                       0.61888
                       0.13892                       0.77032                       0.62234
                       0.12549                       0.77035                       0.62515
                       0.11360                       0.77017                       0.62765
                       0.10169                       0.76982                       0.63011
                       0.08986                       0.76933                       0.63250
                       0.08206                       0.76896                       0.63401
                       0.07964                       0.76884                       0.63446
                       0.30471                       0.75301                       0.58320
        </DataArray>
        <DataArray type="Float32" Name="OrientationZ" NumberOfComponents="3" format="ascii">
                       0.05409                      -0.62512                       0.77865
                       0.05571                      -0.62574                       0.77804
                       0.05827                      -0.62666                       0.77711
                       0.06155                      -0.62776                       0.77597
                       0.06555                      -0.62895                       0.77468
                       0.07038                      -0.63019                       0.77324
                       0.07619                      -0.63147                       0.77164
                       0.08318                      -0.63277                       0.76986
                       0.09151                      -0.63404                       0.76786
                       0.10126                      -0.63522                       0.76566
                       0.11233                      -0.63624                       0.76327
                       0.12444                      -0.63703                       0.76072
                       0.13703                      -0.63755                       0.75812
                       0.14924                      -0.63780                       0.75561
                       0.15986                      -0.63781                       0.75342
                       0.16726                      -0.63770                       0.75190
                       0.16935                      -0.63766                       0.75147
                       0.16878                      -0.63769                       0.75158
                       0.05356                      -0.62490                       0.77887
        </DataArray>
      </PointData>
      <Lines>
        <DataArray type="Int32" Name="connectivity" format="ascii">
      0      1
      1      2
      2      3
      3      4
      4      5
      5      6
      6      7
      7      8
      8      9
      9     10
     10     11
     11     12
     12     13
     13     14
     14     15
     15     16
     16     17
     18      0
        </DataArray>
        <DataArray type="Int32" Name="offsets" format="ascii">
      2
      4
      6
      8
     10
     12
     14
     16
     18
     20
     22
     24
     26
     28
     30
     32
     34
     36
        </DataArray>
      </Lines>
    </Piece>
  </PolyData>
</VTKFile>
