<?xml version="1.0"?>
<VTKFile type="PolyData" version="0.1" byte_order="LittleEndian">
  <PolyData>
    <Piece NumberOfPoints="     19" NumberOfVerts="  0" NumberOfLines="     18"
           NumberOfStrips="  0" NumberOfPolys="      0">
      <Points>
        <DataArray type="Float32" NumberOfComponents="3" format="ascii">
                       2.47999                       1.55505                      87.28176
                       1.94026                       3.28094                      84.14849
                       1.40851                       5.00585                      81.01332
                       0.88774                       6.72970                      77.87573
                       0.38041                       8.45243                      74.73533
                      -0.11096                      10.17402                      71.59177
                      -0.58333                      11.89460                      68.44475
                      -1.03295                      13.61443                      65.29400
                      -1.45536                      15.33377                      62.13923
                      -1.84559                      17.05279                      58.98015
                      -2.19860                      18.77148                      55.81653
                      -2.50991                      20.48962                      52.64824
                      -2.77644                      22.20682                      49.47536
                      -2.99761                      23.92264                      46.29824
                      -3.17660                      25.63677                      43.11750
                      -3.32187                      27.34918                      39.93408
                      -3.44885                      29.06049                      36.74923
                      -3.51019                      29.91599                      35.15664
                       2.75142                       0.69187                      88.84799
        </DataArray>
      </Points>
      <PointData>
        <DataArray type="Float32" Name="TranslationalVelocity" NumberOfComponents="3" format="ascii">
                      -0.40557                       2.75199                       1.41193
                      -0.15864                       5.69955                       2.99300
                       0.08949                       8.63127                       4.56389
                       0.33876                      11.54308                       6.12233
                       0.58859                      14.43249                       7.66702
                       0.83804                      17.29826                       9.19749
                       1.08628                      20.14005                      10.71393
                       1.33268                      22.95816                      12.21703
                       1.57677                      25.75335                      13.70772
                       1.81831                      28.52667                      15.18698
                       2.05728                      31.27936                      16.65576
                       2.29391                      34.01281                      18.11483
                       2.52862                      36.72857                      19.56490
                       2.76209                      39.42846                      21.00674
                       2.99515                      42.11486                      22.44134
                       3.22879                      44.79108                      23.87025
                       3.46412                      47.46175                      25.29588
                       3.58237                      48.79637                      26.00824
                      -0.52875                       1.27487                       0.61921
        </DataArray>
        <DataArray type="Float32" Name="RotationalVelocity" NumberOfComponents="3" format="ascii">
                       0.92338                      -0.01592                      -0.11382
                       0.91895                      -0.01654                      -0.11339
                       0.91291                      -0.01732                      -0.11277
                       0.90587                      -0.01810                      -0.11197
                       0.89827                      -0.01870                      -0.11099
                       0.89048                      -0.01907                      -0.10984
                       0.88277                      -0.01926                      -0.10860
                       0.87531                      -0.01929                      -0.10731
                       0.86823                      -0.01919                      -0.10603
                       0.86162                      -0.01902                      -0.10478
                       0.85554                      -0.01884                      -0.10363
                       0.85002                      -0.01871                      -0.10260
                       0.84515                      -0.01868                      -0.10173
                       0.84100                      -0.01879                      -0.10107
                       0.83773                      -0.01908                      -0.10066
                       0.83555                      -0.01953                      -0.10053
                       0.83477                      -0.02015                      -0.10074
                       0.83477                      -0.02050                      -0.10093
                       0.92511                      -0.01566                      -0.11398
        </DataArray>
        <DataArray type="Float32" Name="TranslationalAcceleration" NumberOfComponents="3" format="ascii">
                      -0.06145                      -1.47224                       2.69799
                       0.10978                      -2.87500                       5.48597
                       0.25980                      -4.20911                       8.27475
                       0.38189                      -5.45813                      11.06441
                       0.47224                      -6.61218                      13.85491
                       0.53388                      -7.66556                      16.64585
                       0.57838                      -8.61560                      19.43626
                       0.62712                      -9.46175                      22.22444
                       0.71146                     -10.20513                      25.00804
                       0.87130                     -10.84861                      27.78426
                       1.15217                     -11.39721                      30.55044
                       1.60089                     -11.85863                      33.30463
                       2.25969                     -12.24345                      36.04624
                       3.15878                     -12.56493                      38.77635
                       4.30743                     -12.83859                      41.49731
                       5.68339                     -13.08136                      44.21163
                       7.22072                     -13.31028                      46.92106
                       8.01836                     -13.42336                      48.27471
                      -0.15153                      -0.75627                       1.30420
        </DataArray>
        <DataArray type="Float32" Name="RotationalAcceleration" NumberOfComponents="3" format="ascii">
                       0.02218                       0.03227                       0.01743
                       0.03596                       0.03694                       0.01761
                       0.05464                       0.04337                       0.01790
                       0.07630                       0.05148                       0.01860
                       0.09975                       0.05986                       0.01914
                       0.12411                       0.06656                       0.01860
                       0.14874                       0.06933                       0.01584
                       0.17313                       0.06565                       0.00957
                       0.19681                       0.05316                      -0.00144
                       0.21926                       0.03009                      -0.01807
                       0.23991                      -0.00447                      -0.04072
                       0.25817                      -0.05019                      -0.06910
                       0.27355                      -0.10510                      -0.10205
                       0.28568                      -0.16528                      -0.13735
                       0.29419                      -0.22455                      -0.17151
                       0.29882                      -0.27405                      -0.19961
                       0.29963                      -0.30189                      -0.21510
                       0.29911                      -0.30870                      -0.21876
                       0.01682                       0.03028                       0.01726
        </DataArray>
        <DataArray type="Float32" Name="OrientationX" NumberOfComponents="3" format="ascii">
                       0.97389                       0.22225                      -0.04629
                       0.97414                       0.22146                      -0.04486
                       0.97451                       0.22024                      -0.04263
                       0.97717                       0.20732                      -0.04639
                       0.98215                       0.17886                      -0.05827
                       0.98489                       0.16137                      -0.06286
                       0.98745                       0.14317                      -0.06669
                       0.98988                       0.12346                      -0.06995
                       0.99208                       0.10285                      -0.07212
                       0.99397                       0.08223                      -0.07259
                       0.99555                       0.06116                      -0.07169
                       0.99678                       0.04039                      -0.06932
                       0.99765                       0.02228                      -0.06484
                       0.99819                       0.00569                      -0.05983
                       0.99837                      -0.01019                      -0.05615
                       0.99818                      -0.02448                      -0.05517
                       0.99785                      -0.03261                      -0.05686
                       0.99769                      -0.03455                      -0.05841
                       0.97381                       0.22251                      -0.04676
        </DataArray>
        <DataArray type="Float32" Name="OrientationY" NumberOfComponents="3" format="ascii">
                       0.17035                      -0.85022                      -0.49810
                       0.17046                      -0.85057                      -0.49746
                       0.17061                      -0.85105                      -0.49659
                       0.15779                      -0.85446                      -0.49498
                       0.12760                      -0.86104                      -0.49227
                       0.11039                      -0.86466                      -0.49007
                       0.09290                      -0.86800                      -0.48780
                       0.07434                      -0.87111                      -0.48543
                       0.05548                      -0.87384                      -0.48304
                       0.03736                      -0.87606                      -0.48075
                       0.01947                      -0.87784                      -0.47856
                       0.00248                      -0.87914                      -0.47655
                      -0.01121                      -0.87996                      -0.47491
                      -0.02336                      -0.88046                      -0.47355
                      -0.03555                      -0.88068                      -0.47238
                      -0.04765                      -0.88063                      -0.47140
                      -0.05560                      -0.88046                      -0.47085
                      -0.05805                      -0.88037                      -0.47072
                       0.17031                      -0.85008                      -0.49835
        </DataArray>
        <DataArray type="Float32" Name="OrientationZ" NumberOfComponents="3" format="ascii">
                      -0.15006                       0.47721                      -0.86588
                      -0.14833                       0.47694                      -0.86633
                      -0.14565                       0.47666                      -0.86694
                      -0.14226                       0.47636                      -0.86766
                      -0.13822                       0.47604                      -0.86849
                      -0.13343                       0.47573                      -0.86941
                      -0.12772                       0.47548                      -0.87040
                      -0.12087                       0.47532                      -0.87147
                      -0.11270                       0.47522                      -0.87262
                      -0.10312                       0.47514                      -0.87385
                      -0.09220                       0.47504                      -0.87512
                      -0.08019                       0.47484                      -0.87641
                      -0.06763                       0.47452                      -0.87764
                      -0.05538                       0.47409                      -0.87873
                      -0.04463                       0.47360                      -0.87961
                      -0.03704                       0.47317                      -0.88019
                      -0.03471                       0.47300                      -0.88038
                      -0.03516                       0.47302                      -0.88035
                      -0.15064                       0.47733                      -0.86571
        </DataArray>
      </PointData>
      <Lines>
        <DataArray type="Int32" Name="connectivity" format="ascii">
      0      1
      1      2
      2      3
      3      4
      4      5
      5      6
      6      7
      7      8
      8      9
      9     10
     10     11
     11     12
     12     13
     13     14
     14     15
     15     16
     16     17
     18      0
        </DataArray>
        <DataArray type="Int32" Name="offsets" format="ascii">
      2
      4
      6
      8
     10
     12
     14
     16
     18
     20
     22
     24
     26
     28
     30
     32
     34
     36
        </DataArray>
      </Lines>
    </Piece>
  </PolyData>
</VTKFile>
