<?xml version="1.0"?>
<VTKFile type="PolyData" version="0.1" byte_order="LittleEndian">
  <PolyData>
    <Piece NumberOfPoints="     19" NumberOfVerts="  0" NumberOfLines="     18"
           NumberOfStrips="  0" NumberOfPolys="      0">
      <Points>
        <DataArray type="Float32" NumberOfComponents="3" format="ascii">
                       2.60728                      -2.64983                      88.16993
                       2.19205                      -5.54595                      86.04216
                       1.77796                      -8.44149                      83.91336
                       1.36550                     -11.33626                      81.78322
                       0.95513                     -14.23019                      79.65152
                       0.54726                     -17.12323                      77.51814
                       0.14234                     -20.01539                      75.38300
                      -0.25923                     -22.90669                      73.24606
                      -0.65705                     -25.79718                      71.10732
                      -1.05074                     -28.68691                      68.96681
                      -1.44002                     -31.57597                      66.82458
                      -1.82470                     -34.46444                      64.68072
                      -2.20481                     -37.35242                      62.53539
                      -2.58063                     -40.24000                      60.38876
                      -2.95280                     -43.12728                      58.24108
                      -3.32243                     -46.01434                      56.09269
                      -3.69124                     -48.90129                      53.94399
                      -3.87570                     -50.34474                      52.86963
                       2.81512                      -1.20164                      89.23361
        </DataArray>
      </Points>
      <PointData>
        <DataArray type="Float32" Name="TranslationalVelocity" NumberOfComponents="3" format="ascii">
                      -0.25433                       1.82905                      -2.44875
                      -0.56728                       3.85236                      -5.14162
                      -0.86230                       5.88711                      -7.85183
                      -1.13157                       7.93649                     -10.58470
                      -1.36788                      10.00233                     -13.34372
                      -1.56434                      12.08536                     -16.13090
                      -1.71462                      14.18565                     -18.94732
                      -1.81294                      16.30278                     -21.79333
                      -1.85414                      18.43597                     -24.66861
                      -1.83398                      20.58408                     -27.57227
                      -1.74965                      22.74577                     -30.50285
                      -1.60031                      24.91951                     -33.45835
                      -1.38795                      27.10369                     -36.43621
                      -1.11831                      29.29659                     -39.43321
                      -0.80197                      31.49639                     -42.44536
                      -0.45563                      33.70106                     -45.46763
                      -0.10349                      35.90835                     -48.49376
                       0.07047                      37.01236                     -50.00692
                      -0.09443                       0.81977                      -1.10588
        </DataArray>
        <DataArray type="Float32" Name="RotationalVelocity" NumberOfComponents="3" format="ascii">
                       0.92726                      -0.00011                      -0.11050
                       0.93195                      -0.00280                      -0.10775
                       0.93864                      -0.00705                      -0.10327
                       0.94670                      -0.01263                      -0.09725
                       0.95552                      -0.01944                      -0.08969
                       0.96470                      -0.02739                      -0.08067
                       0.97401                      -0.03634                      -0.07030
                       0.98321                      -0.04618                      -0.05870
                       0.99211                      -0.05678                      -0.04600
                       1.00054                      -0.06794                      -0.03245
                       1.00836                      -0.07937                      -0.01841
                       1.01541                      -0.09067                      -0.00441
                       1.02156                      -0.10129                       0.00885
                       1.02665                      -0.11052                       0.02042
                       1.03045                      -0.11744                       0.02910
                       1.03268                      -0.12092                       0.03341
                       1.03300                      -0.11957                       0.03150
                       1.03264                      -0.11749                       0.02875
                       0.92550                       0.00081                      -0.11141
        </DataArray>
        <DataArray type="Float32" Name="TranslationalAcceleration" NumberOfComponents="3" format="ascii">
                       0.65182                       1.84357                       2.54604
                       0.86134                       4.08933                       4.82655
                       1.20869                       6.45555                       6.97688
                       1.75557                       8.97629                       8.95757
                       2.55924                      11.67207                      10.74271
                       3.66943                      14.55190                      12.31900
                       5.12304                      17.61762                      13.68292
                       6.94177                      20.86610                      14.83903
                       9.13158                      24.28998                      15.79906
                      11.68169                      27.87907                      16.58027
                      14.56421                      31.62140                      17.20394
                      17.73442                      35.50363                      17.69407
                      21.13150                      39.51113                      18.07619
                      24.67988                      43.62740                      18.37656
                      28.29124                      47.83264                      18.62184
                      31.86700                      52.10200                      18.83916
                      35.30109                      56.40388                      19.05678
                      36.96909                      58.55852                      19.16931
                       0.57353                       0.74573                       1.37900
        </DataArray>
        <DataArray type="Float32" Name="RotationalAcceleration" NumberOfComponents="3" format="ascii">
                      -0.14946                       0.07129                       0.02940
                      -0.10958                       0.05045                       0.04998
                      -0.05300                       0.01769                       0.08353
                       0.01523                      -0.02586                       0.12949
                       0.08978                      -0.07897                       0.18723
                       0.16664                      -0.13956                       0.25471
                       0.24319                      -0.20489                       0.32870
                       0.31689                      -0.27222                       0.40599
                       0.38577                      -0.33870                       0.48305
                       0.44847                      -0.40139                       0.55615
                       0.50406                      -0.45738                       0.62153
                       0.55189                      -0.50393                       0.67557
                       0.59157                      -0.53847                       0.71484
                       0.62262                      -0.55871                       0.73632
                       0.64432                      -0.56275                       0.73759
                       0.65560                      -0.54913                       0.71683
                       0.65487                      -0.51680                       0.67296
                       0.65125                      -0.49587                       0.64516
                      -0.16461                       0.07857                       0.02244
        </DataArray>
        <DataArray type="Float32" Name="OrientationX" NumberOfComponents="3" format="ascii">
                       0.94004                       0.10374                      -0.32491
                       0.94007                       0.10399                      -0.32473
                       0.94013                       0.10439                      -0.32444
                       0.94439                       0.09703                      -0.31418
                       0.95359                       0.07924                      -0.29051
                       0.95847                       0.06941                      -0.27663
                       0.96311                       0.05951                      -0.26243
                       0.96770                       0.04905                      -0.24730
                       0.97199                       0.03851                      -0.23184
                       0.97578                       0.02850                      -0.21688
                       0.97920                       0.01870                      -0.20203
                       0.98215                       0.00947                      -0.18786
                       0.98434                       0.00221                      -0.17629
                       0.98612                      -0.00421                      -0.16599
                       0.98773                      -0.01085                      -0.15581
                       0.98914                      -0.01773                      -0.14591
                       0.98995                      -0.02258                      -0.13963
                       0.99016                      -0.02421                      -0.13780
                       0.94002                       0.10365                      -0.32498
        </DataArray>
        <DataArray type="Float32" Name="OrientationY" NumberOfComponents="3" format="ascii">
                       0.32114                      -0.59012                       0.74070
                       0.32112                      -0.59026                       0.74059
                       0.32109                      -0.59045                       0.74045
                       0.30851                      -0.59201                       0.74454
                       0.27907                      -0.59498                       0.75374
                       0.26214                      -0.59653                       0.75857
                       0.24491                      -0.59793                       0.76322
                       0.22661                      -0.59919                       0.76787
                       0.20799                      -0.60025                       0.77230
                       0.19009                      -0.60107                       0.77626
                       0.17240                      -0.60169                       0.77991
                       0.15560                      -0.60210                       0.78311
                       0.14203                      -0.60233                       0.78551
                       0.12999                      -0.60245                       0.78750
                       0.11790                      -0.60246                       0.78939
                       0.10591                      -0.60236                       0.79117
                       0.09802                      -0.60222                       0.79229
                       0.09558                      -0.60216                       0.79263
                       0.32114                      -0.59007                       0.74074
        </DataArray>
        <DataArray type="Float32" Name="OrientationZ" NumberOfComponents="3" format="ascii">
                      -0.11490                      -0.80062                      -0.58805
                      -0.11466                      -0.80049                      -0.58828
                      -0.11427                      -0.80030                      -0.58862
                      -0.11376                      -0.80007                      -0.58902
                      -0.11312                      -0.79983                      -0.58948
                      -0.11236                      -0.79958                      -0.58995
                      -0.11150                      -0.79934                      -0.59045
                      -0.11051                      -0.79910                      -0.59095
                      -0.10942                      -0.79889                      -0.59144
                      -0.10823                      -0.79869                      -0.59193
                      -0.10698                      -0.79851                      -0.59239
                      -0.10570                      -0.79836                      -0.59283
                      -0.10445                      -0.79824                      -0.59321
                      -0.10332                      -0.79814                      -0.59354
                      -0.10243                      -0.79807                      -0.59379
                      -0.10192                      -0.79803                      -0.59394
                      -0.10198                      -0.79801                      -0.59396
                      -0.10217                      -0.79800                      -0.59393
                      -0.11498                      -0.80067                      -0.58796
        </DataArray>
      </PointData>
      <Lines>
        <DataArray type="Int32" Name="connectivity" format="ascii">
      0      1
      1      2
      2      3
      3      4
      4      5
      5      6
      6      7
      7      8
      8      9
      9     10
     10     11
     11     12
     12     13
     13     14
     14     15
     15     16
     16     17
     18      0
        </DataArray>
        <DataArray type="Int32" Name="offsets" format="ascii">
      2
      4
      6
      8
     10
     12
     14
     16
     18
     20
     22
     24
     26
     28
     30
     32
     34
     36
        </DataArray>
      </Lines>
    </Piece>
  </PolyData>
</VTKFile>
