<?xml version="1.0"?>
<VTKFile type="PolyData" version="0.1" byte_order="LittleEndian">
  <PolyData>
    <Piece NumberOfPoints="     19" NumberOfVerts="  0" NumberOfLines="     18"
           NumberOfStrips="  0" NumberOfPolys="      0">
      <Points>
        <DataArray type="Float32" NumberOfComponents="3" format="ascii">
                       3.27730                       2.61755                      92.12958
                       3.39879                       5.51903                      94.28691
                       3.52756                       8.42214                      96.44160
                       3.66632                      11.32720                      98.59305
                       3.81725                      14.23440                     100.74078
                       3.98262                      17.14382                     102.88441
                       4.16518                      20.05541                     105.02372
                       4.36842                      22.96892                     107.15852
                       4.59650                      25.88407                     109.28855
                       4.85410                      28.80051                     111.41344
                       5.14595                      31.71785                     113.53265
                       5.47630                      34.63568                     115.64549
                       5.84804                      37.55361                     117.75131
                       6.26180                      40.47125                     119.84972
                       6.71469                      43.38831                     121.94088
                       7.19897                      46.30475                     124.02593
                       7.70051                      49.22082                     126.10745
                       7.95337                      50.67882                     127.14777
                       3.21798                       1.16718                      91.05035
        </DataArray>
      </Points>
      <PointData>
        <DataArray type="Float32" Name="TranslationalVelocity" NumberOfComponents="3" format="ascii">
                       0.08445                      -1.84216                       2.44032
                       0.41925                      -3.82875                       5.09330
                       0.75387                      -5.80914                       7.74157
                       1.08794                      -7.78192                      10.38383
                       1.42093                      -9.74623                      13.01934
                       1.75280                     -11.70172                      15.64780
                       2.08456                     -13.64857                      18.26913
                       2.41851                     -15.58735                      20.88332
                       2.75824                     -17.51887                      23.49038
                       3.10850                     -19.44403                      26.09016
                       3.47480                     -21.36370                      28.68230
                       3.86284                     -23.27872                      31.26617
                       4.27782                     -25.18990                      33.84100
                       4.72344                     -27.09805                      36.40614
                       5.20081                     -29.00402                      38.96146
                       5.70714                     -30.90865                      41.50804
                       6.23427                     -32.81279                      44.04882
                       6.50164                     -33.76485                      45.31827
                      -0.08298                      -0.84753                       1.11284
        </DataArray>
        <DataArray type="Float32" Name="RotationalVelocity" NumberOfComponents="3" format="ascii">
                       0.91516                      -0.00262                      -0.11739
                       0.91334                      -0.00262                      -0.11729
                       0.91086                      -0.00263                      -0.11714
                       0.90796                      -0.00274                      -0.11684
                       0.90484                      -0.00292                      -0.11643
                       0.90168                      -0.00304                      -0.11610
                       0.89858                      -0.00288                      -0.11614
                       0.89561                      -0.00224                      -0.11685
                       0.89280                      -0.00089                      -0.11851
                       0.89014                       0.00134                      -0.12135
                       0.88759                       0.00452                      -0.12549
                       0.88513                       0.00865                      -0.13090
                       0.88275                       0.01356                      -0.13737
                       0.88051                       0.01893                      -0.14446
                       0.87854                       0.02422                      -0.15146
                       0.87704                       0.02866                      -0.15733
                       0.87634                       0.03120                      -0.16071
                       0.87624                       0.03185                      -0.16158
                       0.91588                      -0.00261                      -0.11744
        </DataArray>
        <DataArray type="Float32" Name="TranslationalAcceleration" NumberOfComponents="3" format="ascii">
                      -1.80300                      -1.83692                      -2.14003
                      -2.22602                      -4.15959                      -4.13618
                      -2.63370                      -6.54459                      -6.02541
                      -3.01774                      -9.00736                      -7.78105
                      -3.36824                     -11.55696                      -9.38749
                      -3.67136                     -14.19796                     -10.83781
                      -3.90951                     -16.93199                     -12.13167
                      -4.06103                     -19.75872                     -13.27383
                      -4.09987                     -22.67663                     -14.27318
                      -3.99702                     -25.68341                     -15.14206
                      -3.72288                     -28.77622                     -15.89575
                      -3.25065                     -31.95165                     -16.55210
                      -2.56076                     -35.20541                     -17.13082
                      -1.64634                     -38.53158                     -17.65245
                      -0.51955                     -41.92109                     -18.13689
                       0.78100                     -45.35951                     -18.60149
                       2.18166                     -48.82498                     -19.05891
                       2.89532                     -50.56122                     -19.28707
                      -1.58875                      -0.68878                      -1.11931
        </DataArray>
        <DataArray type="Float32" Name="RotationalAcceleration" NumberOfComponents="3" format="ascii">
                      -0.07907                      -0.06377                       0.01740
                      -0.05085                      -0.06290                       0.01470
                      -0.01235                      -0.06091                       0.00995
                       0.03256                      -0.05784                       0.00340
                       0.08083                      -0.05291                      -0.00582
                       0.13023                      -0.04541                      -0.01858
                       0.17916                      -0.03469                      -0.03562
                       0.22638                      -0.01992                      -0.05800
                       0.27093                      -0.00043                      -0.08660
                       0.31205                       0.02417                      -0.12185
                       0.34913                       0.05373                      -0.16356
                       0.38161                       0.08752                      -0.21069
                       0.40912                       0.12393                      -0.26108
                       0.43131                       0.16038                      -0.31123
                       0.44773                       0.19317                      -0.35616
                       0.45785                       0.21724                      -0.38904
                       0.46117                       0.22601                      -0.40100
                       0.46107                       0.22564                      -0.40050
                      -0.09007                      -0.06386                       0.01812
        </DataArray>
        <DataArray type="Float32" Name="OrientationX" NumberOfComponents="3" format="ascii">
                       0.99099                      -0.10366                       0.08484
                       0.99094                      -0.10483                       0.08396
                       0.99086                      -0.10668                       0.08259
                       0.99238                      -0.10121                       0.07020
                       0.99537                      -0.08582                       0.04324
                       0.99654                      -0.07881                       0.02652
                       0.99734                      -0.07237                       0.00907
                       0.99776                      -0.06621                      -0.00987
                       0.99770                      -0.06093                      -0.02976
                       0.99712                      -0.05723                      -0.04979
                       0.99602                      -0.05475                      -0.07035
                       0.99443                      -0.05369                      -0.09073
                       0.99255                      -0.05505                      -0.10872
                       0.99047                      -0.05715                      -0.12528
                       0.98830                      -0.05812                      -0.14101
                       0.98629                      -0.05681                      -0.15494
                       0.98520                      -0.05398                      -0.16268
                       0.98500                      -0.05225                      -0.16444
                       0.99100                      -0.10327                       0.08512
        </DataArray>
        <DataArray type="Float32" Name="OrientationY" NumberOfComponents="3" format="ascii">
                       0.12987                       0.58849                      -0.79801
                       0.12984                       0.58773                      -0.79857
                       0.12979                       0.58671                      -0.79933
                       0.11654                       0.58690                      -0.80123
                       0.08567                       0.58851                      -0.80394
                       0.06798                       0.58865                      -0.80553
                       0.05005                       0.58869                      -0.80681
                       0.03108                       0.58874                      -0.80773
                       0.01185                       0.58875                      -0.80823
                      -0.00657                       0.58871                      -0.80832
                      -0.02471                       0.58868                      -0.80799
                      -0.04188                       0.58867                      -0.80729
                      -0.05570                       0.58859                      -0.80651
                      -0.06793                       0.58857                      -0.80558
                      -0.08014                       0.58873                      -0.80435
                      -0.09219                       0.58907                      -0.80280
                      -0.10007                       0.58940                      -0.80162
                      -0.10249                       0.58953                      -0.80122
                       0.12988                       0.58878                      -0.79779
        </DataArray>
        <DataArray type="Float32" Name="OrientationZ" NumberOfComponents="3" format="ascii">
                       0.03280                       0.80183                       0.59665
                       0.03437                       0.80223                       0.59602
                       0.03682                       0.80274                       0.59519
                       0.03989                       0.80331                       0.59422
                       0.04355                       0.80392                       0.59314
                       0.04787                       0.80454                       0.59196
                       0.05305                       0.80511                       0.59074
                       0.05929                       0.80561                       0.58947
                       0.06677                       0.80602                       0.58812
                       0.07557                       0.80632                       0.58664
                       0.08565                       0.80651                       0.58498
                       0.09676                       0.80659                       0.58314
                       0.10839                       0.80656                       0.58114
                       0.11977                       0.80642                       0.57909
                       0.12977                       0.80624                       0.57719
                       0.13688                       0.80608                       0.57576
                       0.13915                       0.80604                       0.57528
                       0.13881                       0.80605                       0.57534
                       0.03227                       0.80167                       0.59690
        </DataArray>
      </PointData>
      <Lines>
        <DataArray type="Int32" Name="connectivity" format="ascii">
      0      1
      1      2
      2      3
      3      4
      4      5
      5      6
      6      7
      7      8
      8      9
      9     10
     10     11
     11     12
     12     13
     13     14
     14     15
     15     16
     16     17
     18      0
        </DataArray>
        <DataArray type="Int32" Name="offsets" format="ascii">
      2
      4
      6
      8
     10
     12
     14
     16
     18
     20
     22
     24
     26
     28
     30
     32
     34
     36
        </DataArray>
      </Lines>
    </Piece>
  </PolyData>
</VTKFile>
