<?xml version="1.0"?>
<VTKFile type="PolyData" version="0.1" byte_order="LittleEndian">
  <PolyData>
    <Piece NumberOfPoints="     19" NumberOfVerts="  0" NumberOfLines="     18"
           NumberOfStrips="  0" NumberOfPolys="      0">
      <Points>
        <DataArray type="Float32" NumberOfComponents="3" format="ascii">
                       3.17562                       0.99590                      91.24104
                       3.24074                       1.93249                      92.23424
                       3.35795                       3.73660                      94.28693
                       3.47225                       5.50904                      96.37016
                       3.61889                       7.70707                      98.99138
                       3.84860                      10.45278                     102.03073
                       4.10924                      13.29650                     104.97430
                       4.38972                      16.14513                     107.91125
                       4.69785                      18.99956                     110.83971
                       5.04007                      21.85778                     113.76053
                       5.41863                      24.71637                     116.67632
                       5.84635                      27.57591                     119.58422
                       6.33003                      30.43575                     122.48290
                       6.87345                      33.29525                     125.37117
                       7.47734                      36.15377                     128.24829
                       8.01971                      38.53501                     130.63818
                       8.47256                      40.44515                     132.54049
                       8.92557                      42.39484                     134.40381
                       9.15535                      43.33964                     135.36415
        </DataArray>
      </Points>
      <PointData>
        <DataArray type="Float32" Name="Force" NumberOfComponents="3" format="ascii">
                      -0.03718                       0.31322                      -0.29432
                      77.25965                      15.28490                     -19.60251
                      90.60729                      39.04539                     -43.16367
                      76.88290                      51.95708                     -54.65969
                     777.41474                    -195.58702                     127.90366
                    1059.30414                    -263.10448                     165.23636
                    1207.49101                    -243.78951                     126.99718
                    1532.05750                    -263.93153                     105.39628
                    1673.25408                    -247.68774                      59.37363
                    1921.27886                    -256.51038                      17.16802
                    2342.66203                    -287.14083                     -40.47474
                    2653.76289                    -309.47017                    -109.89542
                    3050.32060                    -358.58829                    -185.96249
                    3281.11535                    -381.90435                    -273.12747
                    3451.18607                    -393.92909                    -362.80561
                    3500.51927                    -381.14239                    -430.75442
                    3344.39773                    -338.29574                    -457.15072
                    2386.15711                    -224.72220                    -348.20079
                    1275.62844                     -55.53912                    -248.26647
        </DataArray>
        <DataArray type="Float32" Name="Moment" NumberOfComponents="3" format="ascii">
                       0.00000                       0.00000                       0.00000
                       0.00000                       0.00000                       0.00000
                       0.00000                       0.00000                       0.00000
                       0.00000                       0.00000                       0.00000
                     -13.23474                    -169.41348                    -178.62038
                     -23.71067                    -282.17480                    -297.29919
                     -35.61268                    -390.57174                    -411.15322
                     -53.99128                    -540.29347                    -568.16747
                     -79.75205                    -720.03357                    -756.19509
                    -100.46808                    -809.30719                    -848.58423
                    -118.63713                    -843.49176                    -882.66855
                    -142.24243                    -889.85107                    -929.02260
                    -145.69424                    -804.74968                    -838.02030
                    -162.91769                    -803.14729                    -834.13904
                    -174.01773                    -780.15202                    -808.26478
                    -175.31700                    -742.34476                    -767.86557
                    -159.61547                    -658.38332                    -680.49620
                     -81.26510                    -331.75192                    -342.78865
                     -72.18964                    -295.08046                    -304.90889
        </DataArray>
        <DataArray type="Float32" Name="TranslationalVelocity" NumberOfComponents="3" format="ascii">
                      -0.35324                      -0.97982                       0.93697
                      -0.25329                      -1.90253                       1.80054
                      -0.06149                      -3.80831                       3.46449
                       0.12834                      -5.74441                       5.10105
                       0.36762                      -8.18548                       7.13384
                       0.67594                     -11.03042                       9.67899
                       1.00746                     -13.79882                      12.32224
                       1.35324                     -16.57218                      14.97735
                       1.71651                     -19.34974                      17.64477
                       2.10055                     -22.13298                      20.32183
                       2.50600                     -24.92360                      23.00372
                       2.93865                     -27.72124                      25.69007
                       3.40124                     -30.52531                      28.37847
                       3.89481                     -33.33486                      31.06649
                       4.41767                     -36.14871                      33.75200
                       4.87154                     -38.49573                      35.98743
                       5.24401                     -40.36883                      37.77962
                       5.62319                     -42.20545                      39.60932
                       5.80890                     -43.15143                      40.49567
        </DataArray>
        <DataArray type="Float32" Name="RotationalVelocity" NumberOfComponents="3" format="ascii">
                       0.92101                      -0.00931                      -0.11627
                       0.92140                      -0.00917                      -0.11644
                       0.92239                      -0.00874                      -0.11691
                       0.92363                      -0.00814                      -0.11756
                       0.92551                      -0.00711                      -0.11865
                       0.92808                      -0.00550                      -0.12034
                       0.93078                      -0.00346                      -0.12246
                       0.93346                      -0.00092                      -0.12504
                       0.93605                       0.00218                      -0.12815
                       0.93846                       0.00591                      -0.13184
                       0.94059                       0.01034                      -0.13618
                       0.94241                       0.01533                      -0.14103
                       0.94390                       0.02066                      -0.14618
                       0.94503                       0.02598                      -0.15129
                       0.94583                       0.03073                      -0.15584
                       0.94624                       0.03366                      -0.15864
                       0.94642                       0.03490                      -0.15983
                       0.94653                       0.03519                      -0.16011
                       0.94655                       0.03493                      -0.15987
        </DataArray>
        <DataArray type="Float32" Name="TranslationalAcceleration" NumberOfComponents="3" format="ascii">
                      -1.20596                      -0.69345                      -0.86110
                      -1.32577                      -1.54554                      -1.66788
                      -1.56935                      -3.20223                      -3.33496
                      -1.80852                      -4.86281                      -5.01445
                      -2.09371                      -6.97884                      -7.10454
                      -2.39318                      -9.69132                      -9.47487
                      -2.63426                     -12.58218                     -11.69626
                      -2.82361                     -15.57947                     -13.85112
                      -2.97433                     -18.68032                     -15.94065
                      -3.11612                     -21.87586                     -17.96997
                      -3.28652                     -25.14583                     -19.95027
                      -3.53865                     -28.48843                     -21.87596
                      -3.93059                     -31.88966                     -23.74476
                      -4.51545                     -35.33390                     -25.55190
                      -5.32922                     -38.80421                     -27.29299
                      -6.18175                     -41.70484                     -28.69513
                      -6.97008                     -44.02989                     -29.78044
                      -7.81752                     -46.37769                     -30.80281
                      -8.25663                     -47.53267                     -31.34756
        </DataArray>
        <DataArray type="Float32" Name="OrientationX" NumberOfComponents="3" format="ascii">
                       0.98826                      -0.13791                       0.06578
                       0.98824                      -0.13818                       0.06550
                       0.98819                      -0.13894                       0.06469
                       0.98811                      -0.13999                       0.06359
                       0.98798                      -0.14172                       0.06177
                       0.99189                      -0.12160                       0.03703
                       0.99395                      -0.10838                       0.01773
                       0.99518                      -0.09802                      -0.00040
                       0.99592                      -0.08786                      -0.02042
                       0.99602                      -0.07850                      -0.04217
                       0.99534                      -0.07150                      -0.06467
                       0.99390                      -0.06592                      -0.08839
                       0.99176                      -0.06268                      -0.11172
                       0.98922                      -0.06296                      -0.13219
                       0.98645                      -0.06262                      -0.15166
                       0.98426                      -0.06053                      -0.16604
                       0.98290                      -0.05732                      -0.17502
                       0.98222                      -0.05520                      -0.17941
                       0.98226                      -0.05505                      -0.17926
        </DataArray>
        <DataArray type="Float32" Name="OrientationY" NumberOfComponents="3" format="ascii">
                       0.14519                       0.71345                      -0.68550
                       0.14518                       0.71326                      -0.68570
                       0.14514                       0.71279                      -0.68620
                       0.14510                       0.71221                      -0.68680
                       0.14503                       0.71133                      -0.68773
                       0.11335                       0.71433                      -0.69057
                       0.09040                       0.71571                      -0.69253
                       0.07029                       0.71650                      -0.69403
                       0.04902                       0.71723                      -0.69511
                       0.02712                       0.71787                      -0.69564
                       0.00640                       0.71833                      -0.69568
                      -0.01415                       0.71874                      -0.69513
                      -0.03275                       0.71906                      -0.69418
                      -0.04686                       0.71920                      -0.69322
                      -0.06069                       0.71948                      -0.69186
                      -0.07219                       0.71986                      -0.69036
                      -0.08069                       0.72022                      -0.68904
                      -0.08523                       0.72042                      -0.68828
                      -0.08523                       0.72042                      -0.68828
        </DataArray>
        <DataArray type="Float32" Name="OrientationZ" NumberOfComponents="3" format="ascii">
                       0.04761                       0.68700                       0.72510
                       0.04803                       0.68714                       0.72493
                       0.04923                       0.68748                       0.72454
                       0.05085                       0.68786                       0.72406
                       0.05353                       0.68842                       0.72333
                       0.05752                       0.68917                       0.72232
                       0.06237                       0.68994                       0.72117
                       0.06832                       0.69066                       0.71994
                       0.07572                       0.69127                       0.71862
                       0.08488                       0.69173                       0.71715
                       0.09619                       0.69202                       0.71544
                       0.10935                       0.69215                       0.71343
                       0.12384                       0.69212                       0.71108
                       0.13871                       0.69195                       0.70850
                       0.15244                       0.69168                       0.70593
                       0.16131                       0.69148                       0.70416
                       0.16555                       0.69137                       0.70328
                       0.16725                       0.69134                       0.70291
                       0.16703                       0.69135                       0.70295
        </DataArray>
      </PointData>
      <Lines>
        <DataArray type="Int32" Name="connectivity" format="ascii">
      0      1
      1      2
      2      3
      3      4
      4      5
      5      6
      6      7
      7      8
      8      9
      9     10
     10     11
     11     12
     12     13
     13     14
     14     15
     15     16
     16     17
     17     18
        </DataArray>
        <DataArray type="Int32" Name="offsets" format="ascii">
      2
      4
      6
      8
     10
     12
     14
     16
     18
     20
     22
     24
     26
     28
     30
     32
     34
     36
        </DataArray>
      </Lines>
    </Piece>
  </PolyData>
</VTKFile>
