<?xml version="1.0"?>
<VTKFile type="PolyData" version="0.1" byte_order="LittleEndian">
  <PolyData>
    <Piece NumberOfPoints="     19" NumberOfVerts="  0" NumberOfLines="     18"
           NumberOfStrips="  0" NumberOfPolys="      0">
      <Points>
        <DataArray type="Float32" NumberOfComponents="3" format="ascii">
                       2.84844                      -0.64467                      93.36925
                       3.09953                      -1.31040                      96.91624
                       3.35800                      -1.97697                     100.46254
                       3.62668                      -2.64479                     104.00784
                       3.90793                      -3.31407                     107.55189
                       4.20433                      -3.98495                     111.09440
                       4.51919                      -4.65766                     114.63496
                       4.85670                      -5.33251                     118.17302
                       5.22199                      -6.00980                     121.70785
                       5.62086                      -6.68969                     125.23852
                       6.05929                      -7.37216                     128.76400
                       6.54270                      -8.05691                     132.28313
                       7.07499                      -8.74345                     135.79485
                       7.65731                      -9.43116                     139.29841
                       8.28665                     -10.11939                     142.79378
                       8.95413                     -10.80759                     146.28213
                       9.64313                     -11.49558                     149.76639
                       9.99038                     -11.83954                     151.50798
                       2.72435                      -0.31195                      91.59563
        </DataArray>
      </Points>
      <PointData>
        <DataArray type="Float32" Name="TranslationalVelocity" NumberOfComponents="3" format="ascii">
                      -0.13111                      -3.05821                      -0.56070
                      -0.21018                      -6.38814                      -1.18010
                      -0.29219                      -9.73435                      -1.80309
                      -0.37753                     -13.10094                      -2.43077
                      -0.46596                     -16.49037                      -3.06384
                      -0.55744                     -19.90377                      -3.70261
                      -0.65290                     -23.34109                      -4.34721
                      -0.75464                     -26.80139                      -4.99752
                      -0.86630                     -30.28315                      -5.65308
                      -0.99273                     -33.78445                      -6.31299
                      -1.13961                     -37.30319                      -6.97582
                      -1.31283                     -40.83722                      -7.63959
                      -1.51768                     -44.38432                      -8.30191
                      -1.75782                     -47.94225                      -8.96031
                      -2.03405                     -51.50866                      -9.61279
                      -2.34283                     -55.08112                     -10.25861
                      -2.67474                     -58.65685                     -10.89924
                      -2.84487                     -60.44515                     -11.21863
                      -0.09221                      -1.39671                      -0.25174
        </DataArray>
        <DataArray type="Float32" Name="RotationalVelocity" NumberOfComponents="3" format="ascii">
                       0.92939                      -0.00210                      -0.10574
                       0.93322                      -0.00272                      -0.10612
                       0.93843                      -0.00354                      -0.10664
                       0.94454                      -0.00432                      -0.10721
                       0.95114                      -0.00498                      -0.10779
                       0.95787                      -0.00572                      -0.10840
                       0.96445                      -0.00688                      -0.10907
                       0.97068                      -0.00886                      -0.10988
                       0.97643                      -0.01201                      -0.11087
                       0.98164                      -0.01665                      -0.11210
                       0.98630                      -0.02293                      -0.11360
                       0.99043                      -0.03084                      -0.11537
                       0.99402                      -0.04010                      -0.11735
                       0.99703                      -0.05010                      -0.11944
                       0.99941                      -0.05988                      -0.12144
                       1.00099                      -0.06801                      -0.12307
                       1.00150                      -0.07261                      -0.12397
                       1.00145                      -0.07376                      -0.12418
                       0.92788                      -0.00188                      -0.10559
        </DataArray>
        <DataArray type="Float32" Name="TranslationalAcceleration" NumberOfComponents="3" format="ascii">
                       1.02816                       0.45555                      -2.61192
                       0.87036                       0.94821                      -5.74436
                       0.70587                       1.40098                      -8.91606
                       0.53432                       1.80397                     -12.13725
                       0.35712                       2.15117                     -15.41453
                       0.17819                       2.43949                     -18.75155
                       0.00361                       2.66807                     -22.14968
                      -0.15829                       2.83761                     -25.60870
                      -0.29705                       2.94984                     -29.12757
                      -0.40063                       3.00718                     -32.70502
                      -0.45648                       3.01241                     -36.34005
                      -0.45279                       2.96861                     -40.03203
                      -0.38022                       2.87919                     -43.78043
                      -0.23393                       2.74823                     -47.58382
                      -0.01586                       2.58124                     -51.43824
                       0.26264                       2.38630                     -55.33478
                       0.57769                       2.17538                     -59.25665
                       0.74048                       2.06771                     -61.22123
                       1.10549                       0.20076                      -1.05398
        </DataArray>
        <DataArray type="Float32" Name="RotationalAcceleration" NumberOfComponents="3" format="ascii">
                       0.02059                       0.05511                       0.00022
                       0.03161                       0.05434                      -0.00069
                       0.04667                       0.05368                      -0.00186
                       0.06428                       0.05328                      -0.00315
                       0.08334                       0.05375                      -0.00439
                       0.10305                       0.05565                      -0.00540
                       0.12283                       0.05948                      -0.00606
                       0.14228                       0.06585                      -0.00621
                       0.16109                       0.07527                      -0.00575
                       0.17900                       0.08805                      -0.00460
                       0.19577                       0.10418                      -0.00274
                       0.21111                       0.12327                      -0.00022
                       0.22475                       0.14438                       0.00279
                       0.23634                       0.16598                       0.00603
                       0.24541                       0.18581                       0.00912
                       0.25133                       0.20079                       0.01152
                       0.25336                       0.20684                       0.01252
                       0.25330                       0.20707                       0.01256
                       0.01631                       0.05555                       0.00060
        </DataArray>
        <DataArray type="Float32" Name="OrientationX" NumberOfComponents="3" format="ascii">
                       0.96582                      -0.23401                      -0.11148
                       0.96571                      -0.23372                      -0.11304
                       0.96553                      -0.23326                      -0.11549
                       0.96854                      -0.21994                      -0.11645
                       0.97512                      -0.18945                      -0.11511
                       0.97825                      -0.17152                      -0.11669
                       0.98099                      -0.15312                      -0.11922
                       0.98342                      -0.13343                      -0.12282
                       0.98532                      -0.11316                      -0.12784
                       0.98649                      -0.09333                      -0.13460
                       0.98700                      -0.07342                      -0.14294
                       0.98678                      -0.05418                      -0.15271
                       0.98576                      -0.03804                      -0.16377
                       0.98431                      -0.02347                      -0.17489
                       0.98280                      -0.00917                      -0.18445
                       0.98164                       0.00439                      -0.19070
                       0.98129                       0.01278                      -0.19213
                       0.98139                       0.01514                      -0.19140
                       0.96586                      -0.23411                      -0.11096
        </DataArray>
        <DataArray type="Float32" Name="OrientationY" NumberOfComponents="3" format="ascii">
                       0.24996                       0.95468                       0.16160
                       0.24995                       0.95472                       0.16139
                       0.24992                       0.95477                       0.16110
                       0.23703                       0.95785                       0.16230
                       0.20688                       0.96426                       0.16552
                       0.18958                       0.96753                       0.16719
                       0.17202                       0.97050                       0.16893
                       0.15340                       0.97328                       0.17086
                       0.13449                       0.97571                       0.17291
                       0.11637                       0.97767                       0.17500
                       0.09851                       0.97923                       0.17721
                       0.08160                       0.98037                       0.17947
                       0.06800                       0.98105                       0.18141
                       0.05596                       0.98147                       0.18327
                       0.04394                       0.98170                       0.18532
                       0.03203                       0.98174                       0.18749
                       0.02421                       0.98168                       0.18900
                       0.02180                       0.98164                       0.18947
                       0.24997                       0.95466                       0.16168
        </DataArray>
        <DataArray type="Float32" Name="OrientationZ" NumberOfComponents="3" format="ascii">
                       0.06861                      -0.18394                       0.98054
                       0.07020                      -0.18411                       0.98040
                       0.07269                      -0.18441                       0.98016
                       0.07584                      -0.18479                       0.97985
                       0.07964                      -0.18521                       0.97947
                       0.08422                      -0.18568                       0.97899
                       0.08983                      -0.18623                       0.97839
                       0.09674                      -0.18686                       0.97761
                       0.10517                      -0.18757                       0.97660
                       0.11526                      -0.18830                       0.97532
                       0.12696                      -0.18898                       0.97374
                       0.13999                      -0.18956                       0.97184
                       0.15377                      -0.18996                       0.96968
                       0.16734                      -0.19018                       0.96738
                       0.17937                      -0.19023                       0.96521
                       0.18805                      -0.19016                       0.96358
                       0.19102                      -0.19011                       0.96300
                       0.19076                      -0.19012                       0.96305
                       0.06808                      -0.18390                       0.98058
        </DataArray>
      </PointData>
      <Lines>
        <DataArray type="Int32" Name="connectivity" format="ascii">
      0      1
      1      2
      2      3
      3      4
      4      5
      5      6
      6      7
      7      8
      8      9
      9     10
     10     11
     11     12
     12     13
     13     14
     14     15
     15     16
     16     17
     18      0
        </DataArray>
        <DataArray type="Int32" Name="offsets" format="ascii">
      2
      4
      6
      8
     10
     12
     14
     16
     18
     20
     22
     24
     26
     28
     30
     32
     34
     36
        </DataArray>
      </Lines>
    </Piece>
  </PolyData>
</VTKFile>
