<?xml version="1.0"?>
<VTKFile type="PolyData" version="0.1" byte_order="LittleEndian">
  <PolyData>
    <Piece NumberOfPoints="     19" NumberOfVerts="  0" NumberOfLines="     18"
           NumberOfStrips="  0" NumberOfPolys="      0">
      <Points>
        <DataArray type="Float32" NumberOfComponents="3" format="ascii">
                       3.29754                      -2.60411                      92.21563
                       3.43134                      -5.42710                      94.47399
                       3.57214                      -8.25240                      96.72903
                       3.72275                     -11.08073                      98.97963
                       3.88562                     -13.91250                     101.22504
                       4.06340                     -16.74792                     103.46470
                       4.25922                     -19.58712                     105.69805
                       4.47683                     -22.43019                     107.92444
                       4.72067                     -25.27708                     110.14320
                       4.99558                     -28.12760                     112.35365
                       5.30642                     -30.98131                     114.55517
                       5.65745                     -33.83757                     116.74732
                       6.05153                     -36.69554                     118.92991
                       6.48905                     -39.55431                     121.10319
                       6.96677                     -42.41307                     123.26804
                       7.47637                     -45.27132                     125.42637
                       8.00292                     -48.12914                     127.58125
                       8.26808                     -49.55799                     128.65831
                       3.23200                      -1.19308                      91.08579
        </DataArray>
      </Points>
      <PointData>
        <DataArray type="Float32" Name="TranslationalVelocity" NumberOfComponents="3" format="ascii">
                      -0.12710                      -1.96383                      -2.33480
                      -0.43956                      -4.06360                      -4.94104
                      -0.75216                      -6.15761                      -7.54507
                      -1.06523                      -8.24425                     -10.14640
                      -1.37921                     -10.32260                     -12.74470
                      -1.69471                     -12.39219                     -15.33976
                      -2.01244                     -14.45283                     -17.93153
                      -2.33322                     -16.50448                     -20.52009
                      -2.65794                     -18.54728                     -23.10550
                      -2.98749                     -20.58151                     -25.68776
                      -3.32270                     -22.60762                     -28.26674
                      -3.66424                     -24.62622                     -30.84216
                      -4.01247                     -26.63804                     -33.41362
                      -4.36730                     -28.64399                     -35.98085
                      -4.72806                     -30.64514                     -38.54385
                      -5.09330                     -32.64284                     -41.10323
                      -5.46062                     -34.63877                     -43.66058
                      -5.64442                     -35.63652                     -44.93901
                       0.02913                      -0.91274                      -1.03120
        </DataArray>
        <DataArray type="Float32" Name="RotationalVelocity" NumberOfComponents="3" format="ascii">
                       0.92347                       0.00861                      -0.11761
                       0.92216                       0.00861                      -0.11753
                       0.92035                       0.00857                      -0.11748
                       0.91823                       0.00848                      -0.11747
                       0.91592                       0.00829                      -0.11757
                       0.91352                       0.00798                      -0.11782
                       0.91112                       0.00755                      -0.11822
                       0.90875                       0.00697                      -0.11881
                       0.90645                       0.00623                      -0.11960
                       0.90426                       0.00534                      -0.12059
                       0.90221                       0.00430                      -0.12176
                       0.90032                       0.00316                      -0.12308
                       0.89863                       0.00198                      -0.12446
                       0.89719                       0.00083                      -0.12581
                       0.89606                      -0.00014                      -0.12696
                       0.89532                      -0.00078                      -0.12772
                       0.89509                      -0.00090                      -0.12784
                       0.89511                      -0.00079                      -0.12771
                       0.92398                       0.00859                      -0.11766
        </DataArray>
        <DataArray type="Float32" Name="TranslationalAcceleration" NumberOfComponents="3" format="ascii">
                      -1.52916                       2.22243                      -1.83700
                      -1.90002                       4.71561                      -3.70181
                      -2.22800                       7.19503                      -5.56979
                      -2.49563                       9.65653                      -7.44353
                      -2.68805                      12.09779                      -9.32523
                      -2.79657                      14.51882                     -11.21549
                      -2.82139                      16.92150                     -13.11325
                      -2.77309                      19.30917                     -15.01561
                      -2.67287                      21.68608                     -16.91789
                      -2.55169                      24.05648                     -18.81397
                      -2.44821                      26.42365                     -20.69677
                      -2.40557                      28.78897                     -22.55886
                      -2.46687                      31.15155                     -24.39297
                      -2.66953                      33.50853                     -26.19284
                      -3.03841                      35.85621                     -27.95469
                      -3.57792                      38.19207                     -29.67934
                      -4.26285                      40.51754                     -31.37438
                      -4.63637                      41.67821                     -32.21594
                      -1.33523                       0.97300                      -0.90512
        </DataArray>
        <DataArray type="Float32" Name="RotationalAcceleration" NumberOfComponents="3" format="ascii">
                      -0.02488                      -0.03532                      -0.01363
                      -0.02180                      -0.02953                      -0.00658
                      -0.01710                      -0.02069                       0.00418
                      -0.01096                      -0.00889                       0.01856
                      -0.00421                       0.00509                       0.03562
                       0.00236                       0.01988                       0.05371
                       0.00811                       0.03376                       0.07069
                       0.01236                       0.04484                       0.08428
                       0.01463                       0.05130                       0.09222
                       0.01469                       0.05157                       0.09256
                       0.01258                       0.04455                       0.08391
                       0.00859                       0.02980                       0.06572
                       0.00318                       0.00776                       0.03853
                      -0.00305                      -0.02001                       0.00423
                      -0.00933                      -0.05067                      -0.03367
                      -0.01475                      -0.07988                      -0.06982
                      -0.01845                      -0.10159                      -0.09671
                      -0.01976                      -0.10970                      -0.10676
                      -0.02603                      -0.03748                      -0.01627
        </DataArray>
        <DataArray type="Float32" Name="OrientationX" NumberOfComponents="3" format="ascii">
                       0.94507                      -0.17643                      -0.27516
                       0.94501                      -0.17509                      -0.27623
                       0.94490                      -0.17300                      -0.27790
                       0.94900                      -0.16234                      -0.27026
                       0.95804                      -0.14042                      -0.24988
                       0.96265                      -0.12588                      -0.23971
                       0.96694                      -0.11043                      -0.22987
                       0.97105                      -0.09344                      -0.21986
                       0.97473                      -0.07525                      -0.21035
                       0.97771                      -0.05648                      -0.20221
                       0.98012                      -0.03686                      -0.19496
                       0.98183                      -0.01703                      -0.18897
                       0.98259                       0.00112                      -0.18578
                       0.98285                       0.01803                      -0.18353
                       0.98304                       0.03371                      -0.18028
                       0.98342                       0.04686                      -0.17518
                       0.98397                       0.05338                      -0.17018
                       0.98429                       0.05446                      -0.16793
                       0.94509                      -0.17687                      -0.27480
        </DataArray>
        <DataArray type="Float32" Name="OrientationY" NumberOfComponents="3" format="ascii">
                       0.32485                       0.60029                       0.73084
                       0.32486                       0.60001                       0.73106
                       0.32488                       0.59963                       0.73137
                       0.31230                       0.60141                       0.73537
                       0.28277                       0.60563                       0.74381
                       0.26583                       0.60749                       0.74852
                       0.24860                       0.60912                       0.75311
                       0.23031                       0.61058                       0.75773
                       0.21172                       0.61175                       0.76219
                       0.19387                       0.61254                       0.76629
                       0.17625                       0.61300                       0.77017
                       0.15955                       0.61311                       0.77372
                       0.14612                       0.61291                       0.77652
                       0.13422                       0.61253                       0.77896
                       0.12230                       0.61201                       0.78134
                       0.11045                       0.61138                       0.78359
                       0.10263                       0.61093                       0.78501
                       0.10021                       0.61079                       0.78542
                       0.32484                       0.60040                       0.73075
        </DataArray>
        <DataArray type="Float32" Name="OrientationZ" NumberOfComponents="3" format="ascii">
                       0.03623                      -0.78008                       0.62463
                       0.03773                      -0.78060                       0.62389
                       0.04011                      -0.78136                       0.62279
                       0.04316                      -0.78227                       0.62144
                       0.04689                      -0.78326                       0.61992
                       0.05140                      -0.78429                       0.61826
                       0.05685                      -0.78535                       0.61643
                       0.06344                      -0.78642                       0.61442
                       0.07132                      -0.78746                       0.61222
                       0.08058                      -0.78842                       0.60984
                       0.09112                      -0.78922                       0.60731
                       0.10269                      -0.78981                       0.60469
                       0.11474                      -0.79015                       0.60208
                       0.12646                      -0.79024                       0.59961
                       0.13667                      -0.79013                       0.59751
                       0.14382                      -0.78995                       0.59607
                       0.14587                      -0.78989                       0.59565
                       0.14534                      -0.78991                       0.59574
                       0.03574                      -0.77989                       0.62489
        </DataArray>
      </PointData>
      <Lines>
        <DataArray type="Int32" Name="connectivity" format="ascii">
      0      1
      1      2
      2      3
      3      4
      4      5
      5      6
      6      7
      7      8
      8      9
      9     10
     10     11
     11     12
     12     13
     13     14
     14     15
     15     16
     16     17
     18      0
        </DataArray>
        <DataArray type="Int32" Name="offsets" format="ascii">
      2
      4
      6
      8
     10
     12
     14
     16
     18
     20
     22
     24
     26
     28
     30
     32
     34
     36
        </DataArray>
      </Lines>
    </Piece>
  </PolyData>
</VTKFile>
