<?xml version="1.0"?>
<VTKFile type="PolyData" version="0.1" byte_order="LittleEndian">
  <PolyData>
    <Piece NumberOfPoints="     19" NumberOfVerts="  0" NumberOfLines="     18"
           NumberOfStrips="  0" NumberOfPolys="      0">
      <Points>
        <DataArray type="Float32" NumberOfComponents="3" format="ascii">
                       3.10348                       1.29711                      93.16876
                       3.35081                       2.73520                      96.47906
                       3.60732                       4.17152                      99.78943
                       3.87656                       5.60542                     103.09983
                       4.16152                       7.03652                     106.41012
                       4.46539                       8.46461                     109.72003
                       4.79205                       9.88946                     113.02915
                       5.14628                      11.31074                     116.33697
                       5.53379                      12.72816                     119.64269
                       5.96087                      14.14148                     122.94527
                       6.43393                      15.55058                     126.24337
                       6.95862                      16.95548                     129.53544
                       7.53877                      18.35635                     132.81992
                       8.17514                      19.75349                     136.09560
                       8.86378                      21.14742                     139.36215
                       9.59424                      22.53899                     142.62070
                      10.34752                      23.92936                     145.87464
                      10.72689                      24.62441                     147.50104
                       2.98160                       0.57773                      91.51362
        </DataArray>
      </Points>
      <PointData>
        <DataArray type="Float32" Name="TranslationalVelocity" NumberOfComponents="3" format="ascii">
                      -0.54420                      -2.79076                       1.16977
                      -0.43868                      -5.86677                       2.49819
                      -0.33362                      -8.95181                       3.82860
                      -0.22902                     -12.04822                       5.16130
                      -0.12457                     -15.15742                       6.49646
                      -0.01931                     -18.28015                       7.83413
                       0.08863                     -21.41681                       9.17406
                       0.20207                     -24.56753                      10.51567
                       0.32486                     -27.73215                      11.85816
                       0.46165                     -30.91022                      13.20045
                       0.61758                     -34.10089                      14.54121
                       0.79768                     -37.30292                      15.87890
                       1.00621                     -40.51468                      17.21184
                       1.24574                     -43.73431                      18.53850
                       1.51619                     -46.95976                      19.85796
                       1.81358                     -50.18900                      21.17057
                       2.12868                     -53.42016                      22.47861
                       2.28914                     -55.03601                      23.13191
                      -0.59708                      -1.25465                       0.50601
        </DataArray>
        <DataArray type="Float32" Name="RotationalVelocity" NumberOfComponents="3" format="ascii">
                       0.91990                      -0.01638                      -0.11120
                       0.92192                      -0.01652                      -0.11129
                       0.92468                      -0.01664                      -0.11143
                       0.92789                      -0.01677                      -0.11161
                       0.93136                      -0.01675                      -0.11188
                       0.93495                      -0.01637                      -0.11230
                       0.93856                      -0.01540                      -0.11299
                       0.94212                      -0.01356                      -0.11404
                       0.94555                      -0.01061                      -0.11558
                       0.94879                      -0.00638                      -0.11766
                       0.95178                      -0.00080                      -0.12030
                       0.95443                       0.00604                      -0.12346
                       0.95668                       0.01382                      -0.12701
                       0.95850                       0.02200                      -0.13070
                       0.95982                       0.02975                      -0.13417
                       0.96060                       0.03589                      -0.13690
                       0.96081                       0.03889                      -0.13821
                       0.96077                       0.03937                      -0.13842
                       0.91912                      -0.01629                      -0.11118
        </DataArray>
        <DataArray type="Float32" Name="TranslationalAcceleration" NumberOfComponents="3" format="ascii">
                      -0.35170                      -1.23471                      -2.80362
                      -0.82866                      -2.27075                      -5.71267
                      -1.29045                      -3.26913                      -8.65677
                      -1.73156                      -4.22074                     -11.64482
                      -2.14850                      -5.12017                     -14.68225
                      -2.54544                      -5.96387                     -17.77191
                      -2.93721                      -6.74916                     -20.91436
                      -3.35105                      -7.47369                     -24.10777
                      -3.82688                      -8.13518                     -27.34745
                      -4.41530                      -8.73149                     -30.62521
                      -5.17370                      -9.26074                     -33.92880
                      -6.16049                      -9.72155                     -37.24183
                      -7.42751                     -10.11340                     -40.54480
                      -9.01052                     -10.43742                     -43.81776
                     -10.91810                     -10.69840                     -47.04464
                     -13.11870                     -10.90782                     -50.21932
                     -15.52582                     -11.08653                     -53.35308
                     -16.76627                     -11.17146                     -54.91245
                      -0.11002                      -0.70871                      -1.35650
        </DataArray>
        <DataArray type="Float32" Name="RotationalAcceleration" NumberOfComponents="3" format="ascii">
                      -0.05319                      -0.02752                       0.01998
                      -0.06414                      -0.02356                       0.01906
                      -0.07900                      -0.01813                       0.01779
                      -0.09616                      -0.01095                       0.01591
                      -0.11477                      -0.00351                       0.01403
                      -0.13427                       0.00171                       0.01319
                      -0.15427                       0.00169                       0.01465
                      -0.17445                      -0.00695                       0.01988
                      -0.19439                      -0.02736                       0.03021
                      -0.21360                      -0.06193                       0.04664
                      -0.23143                      -0.11188                       0.06966
                      -0.24719                      -0.17669                       0.09899
                      -0.26033                      -0.25366                       0.13341
                      -0.27046                      -0.33740                       0.17056
                      -0.27725                      -0.41940                       0.20670
                      -0.28060                      -0.48749                       0.23655
                      -0.28091                      -0.52536                       0.25304
                      -0.28040                      -0.53442                       0.25694
                      -0.04894                      -0.02929                       0.02045
        </DataArray>
        <DataArray type="Float32" Name="OrientationX" NumberOfComponents="3" format="ascii">
                       0.98083                      -0.19448                       0.01230
                       0.98069                      -0.19528                       0.01046
                       0.98047                      -0.19653                       0.00758
                       0.98252                      -0.18617                      -0.00146
                       0.98693                      -0.16012                      -0.01836
                       0.98875                      -0.14639                      -0.03076
                       0.99014                      -0.13287                      -0.04432
                       0.99111                      -0.11895                      -0.05961
                       0.99148                      -0.10541                      -0.07651
                       0.99113                      -0.09328                      -0.09469
                       0.99006                      -0.08204                      -0.11427
                       0.98826                      -0.07218                      -0.13466
                       0.98584                      -0.06564                      -0.15431
                       0.98308                      -0.06039                      -0.17296
                       0.98031                      -0.05437                      -0.18984
                       0.97803                      -0.04691                      -0.20311
                       0.97710                      -0.04072                      -0.20887
                       0.97709                      -0.03826                      -0.20935
                       0.98087                      -0.19421                       0.01291
        </DataArray>
        <DataArray type="Float32" Name="OrientationY" NumberOfComponents="3" format="ascii">
                       0.18285                       0.89666                      -0.40319
                       0.18285                       0.89666                      -0.40320
                       0.18285                       0.89665                      -0.40322
                       0.16978                       0.89918                      -0.40329
                       0.13926                       0.90454                      -0.40301
                       0.12179                       0.90723                      -0.40261
                       0.10408                       0.90972                      -0.40197
                       0.08534                       0.91209                      -0.40102
                       0.06635                       0.91422                      -0.39974
                       0.04817                       0.91603                      -0.39820
                       0.03029                       0.91760                      -0.39635
                       0.01340                       0.91891                      -0.39425
                      -0.00015                       0.91984                      -0.39228
                      -0.01212                       0.92060                      -0.39031
                      -0.02406                       0.92130                      -0.38812
                      -0.03589                       0.92191                      -0.38574
                      -0.04367                       0.92226                      -0.38409
                      -0.04607                       0.92236                      -0.38358
                       0.18285                       0.89667                      -0.40318
        </DataArray>
        <DataArray type="Float32" Name="OrientationZ" NumberOfComponents="3" format="ascii">
                       0.06738                       0.39771                       0.91503
                       0.06936                       0.39733                       0.91505
                       0.07245                       0.39673                       0.91507
                       0.07639                       0.39599                       0.91507
                       0.08114                       0.39519                       0.91501
                       0.08685                       0.39433                       0.91486
                       0.09373                       0.39339                       0.91458
                       0.10207                       0.39236                       0.91413
                       0.11209                       0.39126                       0.91343
                       0.12388                       0.39011                       0.91240
                       0.13737                       0.38894                       0.91096
                       0.15220                       0.38781                       0.90909
                       0.16769                       0.38675                       0.90681
                       0.18279                       0.38580                       0.90429
                       0.19601                       0.38504                       0.90185
                       0.20535                       0.38456                       0.89997
                       0.20827                       0.38442                       0.89936
                       0.20777                       0.38444                       0.89947
                       0.06673                       0.39783                       0.91503
        </DataArray>
      </PointData>
      <Lines>
        <DataArray type="Int32" Name="connectivity" format="ascii">
      0      1
      1      2
      2      3
      3      4
      4      5
      5      6
      6      7
      7      8
      8      9
      9     10
     10     11
     11     12
     12     13
     13     14
     14     15
     15     16
     16     17
     18      0
        </DataArray>
        <DataArray type="Int32" Name="offsets" format="ascii">
      2
      4
      6
      8
     10
     12
     14
     16
     18
     20
     22
     24
     26
     28
     30
     32
     34
     36
        </DataArray>
      </Lines>
    </Piece>
  </PolyData>
</VTKFile>
