<?xml version="1.0"?>
<VTKFile type="PolyData" version="0.1" byte_order="LittleEndian">
  <PolyData>
    <Piece NumberOfPoints="     19" NumberOfVerts="  0" NumberOfLines="     18"
           NumberOfStrips="  0" NumberOfPolys="      0">
      <Points>
        <DataArray type="Float32" NumberOfComponents="3" format="ascii">
                       2.91713                      -1.52222                      90.19243
                       2.86160                      -2.88727                      90.23042
                       2.71786                      -5.61870                      90.21432
                       2.56206                      -8.35089                      90.15211
                       2.36598                     -11.76672                      90.04291
                       2.21536                     -15.86480                      90.03789
                       2.12511                     -19.96177                      90.14698
                       2.05869                     -24.05949                      90.24582
                       2.02495                     -28.15790                      90.33484
                       2.03037                     -32.25677                      90.41127
                       2.07609                     -36.35570                      90.47252
                       2.17555                     -40.45397                      90.51800
                       2.33512                     -44.55055                      90.54795
                       2.55773                     -48.64436                      90.56337
                       2.84294                     -52.73442                      90.56577
                       3.12027                     -56.13995                      90.56019
                       3.36233                     -58.86273                      90.56011
                       3.61464                     -61.58518                      90.61392
                       3.73501                     -62.94645                      90.59951
        </DataArray>
      </Points>
      <PointData>
        <DataArray type="Float32" Name="Force" NumberOfComponents="3" format="ascii">
                       0.82307                       0.17140                       6.67918
                      90.73087                      -2.76985                      27.36733
                     116.26656                      -2.47224                      65.56328
                     105.40104                      -1.28235                      85.22393
                     777.45416                     -38.84818                    -430.65544
                     999.22490                     -42.94484                    -486.91285
                    1163.81492                     -40.73192                    -494.20755
                    1500.80163                     -39.38937                    -570.99452
                    1639.73603                     -26.18730                    -554.23908
                    1895.55427                      -8.04216                    -586.40292
                    2339.39842                      22.38652                    -661.22503
                    2674.89684                      66.72608                    -701.41495
                    3119.60379                     128.64486                    -786.41150
                    3400.00257                     196.08847                    -811.69236
                    3639.08672                     263.89604                    -823.69901
                    3767.16164                     308.40747                    -810.09185
                    3673.34591                     316.30645                    -751.94928
                    2691.30324                     235.31761                    -535.30565
                    1259.39031                     110.99087                    -142.16380
        </DataArray>
        <DataArray type="Float32" Name="Moment" NumberOfComponents="3" format="ascii">
                       0.00000                       0.00000                       0.00000
                       0.00000                       0.00000                       0.00000
                       0.00000                       0.00000                       0.00000
                       0.00000                       0.00000                       0.00000
                       8.72525                     260.69586                      -7.76508
                      14.77035                     513.80048                     -15.00509
                      14.93279                     651.99971                     -18.57153
                      14.03584                     891.49347                     -24.60680
                       8.35331                    1192.49374                     -31.63071
                      -4.69011                    1317.35805                     -33.22761
                     -22.51105                    1384.75563                     -32.76109
                     -44.58513                    1453.09566                     -31.79465
                     -59.21610                    1279.81667                     -25.54507
                     -78.65493                    1269.11812                     -22.87511
                     -93.16839                    1222.67988                     -19.89496
                     -98.37395                    1155.57652                     -17.53150
                     -90.84301                    1019.40614                     -14.96517
                     -45.94151                     508.61596                      -7.39061
                     -38.71378                     431.21422                      -6.29502
        </DataArray>
        <DataArray type="Float32" Name="TranslationalVelocity" NumberOfComponents="3" format="ascii">
                      -0.80217                       0.01222                      -1.42648
                      -0.95832                      -0.01658                      -2.68979
                      -1.26929                       0.01463                      -5.21751
                      -1.57941                       0.08968                      -7.74400
                      -1.96634                       0.21229                     -10.89891
                      -2.43239                       0.23316                     -14.67637
                      -2.90024                       0.14213                     -18.44420
                      -3.36781                       0.05804                     -22.20464
                      -3.83360                      -0.02055                     -25.95810
                      -4.29471                      -0.09182                     -29.70532
                      -4.74828                      -0.15347                     -33.44766
                      -5.18899                      -0.20621                     -37.18506
                      -5.61180                      -0.25045                     -40.91787
                      -6.01230                      -0.28666                     -44.64622
                      -6.38798                      -0.31536                     -48.37015
                      -6.68301                      -0.33452                     -51.47060
                      -6.90857                      -0.35466                     -53.94953
                      -7.12918                      -0.42422                     -56.42844
                      -7.23818                      -0.42078                     -57.66808
        </DataArray>
        <DataArray type="Float32" Name="RotationalVelocity" NumberOfComponents="3" format="ascii">
                       0.92511                      -0.01566                      -0.11398
                       0.92483                      -0.01565                      -0.11396
                       0.92416                      -0.01562                      -0.11389
                       0.92332                      -0.01558                      -0.11382
                       0.92204                      -0.01553                      -0.11375
                       0.92027                      -0.01546                      -0.11375
                       0.91840                      -0.01538                      -0.11377
                       0.91660                      -0.01531                      -0.11358
                       0.91499                      -0.01522                      -0.11292
                       0.91366                      -0.01512                      -0.11149
                       0.91269                      -0.01501                      -0.10894
                       0.91205                      -0.01487                      -0.10526
                       0.91169                      -0.01471                      -0.10049
                       0.91158                      -0.01453                      -0.09494
                       0.91163                      -0.01436                      -0.08916
                       0.91176                      -0.01423                      -0.08485
                       0.91189                      -0.01416                      -0.08226
                       0.91202                      -0.01411                      -0.08052
                       0.91209                      -0.01410                      -0.08002
        </DataArray>
        <DataArray type="Float32" Name="TranslationalAcceleration" NumberOfComponents="3" format="ascii">
                      -0.18448                       1.14763                       0.08957
                      -0.14558                       2.33236                       0.04242
                      -0.06453                       4.70280                       0.03680
                       0.00640                       7.07013                       0.09016
                       0.06875                      10.02190                       0.21723
                       0.07825                      13.55111                       0.30800
                       0.00205                      17.06879                       0.36553
                      -0.15686                      20.57477                       0.50134
                      -0.39060                      24.06773                       0.70884
                      -0.67522                      27.54638                       0.97940
                      -0.97390                      31.01160                       1.29847
                      -1.24229                      34.46209                       1.65635
                      -1.42454                      37.90060                       2.03872
                      -1.46604                      41.33286                       2.43313
                      -1.32414                      44.76685                       2.82966
                      -1.05646                      47.63552                       3.15691
                      -0.74469                      49.93837                       3.40762
                      -0.36562                      52.25355                       3.60663
                      -0.16397                      53.40745                       3.74019
        </DataArray>
        <DataArray type="Float32" Name="OrientationX" NumberOfComponents="3" format="ascii">
                       0.93691                      -0.04828                      -0.34622
                       0.93693                      -0.04775                      -0.34623
                       0.93699                      -0.04626                      -0.34628
                       0.93707                      -0.04423                      -0.34634
                       0.93719                      -0.04085                      -0.34643
                       0.94795                      -0.03534                      -0.31647
                       0.95515                      -0.02884                      -0.29471
                       0.96104                      -0.02109                      -0.27561
                       0.96679                      -0.01178                      -0.25530
                       0.97217                      -0.00069                      -0.23429
                       0.97668                       0.01246                      -0.21432
                       0.98054                       0.02728                      -0.19441
                       0.98339                       0.04316                      -0.17627
                       0.98495                       0.05905                      -0.16247
                       0.98614                       0.07336                      -0.14882
                       0.98709                       0.08232                      -0.13737
                       0.98790                       0.08630                      -0.12884
                       0.98838                       0.08752                      -0.12426
                       0.98843                       0.08697                      -0.12426
        </DataArray>
        <DataArray type="Float32" Name="OrientationY" NumberOfComponents="3" format="ascii">
                       0.34725                       0.01474                       0.93766
                       0.34725                       0.01457                       0.93766
                       0.34723                       0.01413                       0.93767
                       0.34721                       0.01359                       0.93769
                       0.34718                       0.01278                       0.93771
                       0.31707                       0.01289                       0.94831
                       0.29515                       0.01246                       0.95537
                       0.27589                       0.01179                       0.96112
                       0.25543                       0.01100                       0.96676
                       0.23429                       0.01005                       0.97212
                       0.21422                       0.00895                       0.97674
                       0.19427                       0.00766                       0.98092
                       0.17617                       0.00621                       0.98434
                       0.16247                       0.00481                       0.98670
                       0.14897                       0.00334                       0.98884
                       0.13766                       0.00211                       0.99048
                       0.12921                       0.00122                       0.99162
                       0.12468                       0.00075                       0.99220
                       0.12467                       0.00075                       0.99220
        </DataArray>
        <DataArray type="Float32" Name="OrientationZ" NumberOfComponents="3" format="ascii">
                      -0.04016                      -0.99873                       0.03058
                      -0.03973                      -0.99875                       0.03023
                      -0.03849                      -0.99883                       0.02930
                      -0.03677                      -0.99893                       0.02809
                      -0.03388                      -0.99908                       0.02616
                      -0.02943                      -0.99929                       0.02343
                      -0.02388                      -0.99951                       0.02041
                      -0.01702                      -0.99971                       0.01715
                      -0.00858                      -0.99987                       0.01364
                       0.00168                      -0.99995                       0.00993
                       0.01409                      -0.99988                       0.00607
                       0.02825                      -0.99960                       0.00221
                       0.04358                      -0.99905                      -0.00149
                       0.05904                      -0.99824                      -0.00485
                       0.07304                      -0.99730                      -0.00763
                       0.08182                      -0.99660                      -0.00924
                       0.08574                      -0.99627                      -0.00995
                       0.08693                      -0.99616                      -0.01017
                       0.08639                      -0.99621                      -0.01010
        </DataArray>
      </PointData>
      <Lines>
        <DataArray type="Int32" Name="connectivity" format="ascii">
      0      1
      1      2
      2      3
      3      4
      4      5
      5      6
      6      7
      7      8
      8      9
      9     10
     10     11
     11     12
     12     13
     13     14
     14     15
     15     16
     16     17
     17     18
        </DataArray>
        <DataArray type="Int32" Name="offsets" format="ascii">
      2
      4
      6
      8
     10
     12
     14
     16
     18
     20
     22
     24
     26
     28
     30
     32
     34
     36
        </DataArray>
      </Lines>
    </Piece>
  </PolyData>
</VTKFile>
