<?xml version="1.0"?>
<VTKFile type="PolyData" version="0.1" byte_order="LittleEndian">
  <PolyData>
    <Piece NumberOfPoints="     19" NumberOfVerts="  0" NumberOfLines="     18"
           NumberOfStrips="  0" NumberOfPolys="      0">
      <Points>
        <DataArray type="Float32" NumberOfComponents="3" format="ascii">
                       3.21798                       1.16718                      91.05035
                       3.26217                       2.26090                      91.86870
                       3.33891                       4.39137                      93.58257
                       3.41323                       6.49581                      95.33193
                       3.50983                       9.11217                      97.53849
                       3.67646                      12.34137                     100.06315
                       3.87089                      15.65152                     102.47653
                       4.08365                      18.96592                     104.88246
                       4.32185                      22.28537                     107.27893
                       4.59099                      25.60824                     109.66721
                       4.89273                      28.93171                     112.05053
                       5.23820                      32.25629                     114.42616
                       5.63300                      35.58140                     116.79317
                       6.07997                      38.90646                     119.15080
                       6.57963                      42.23082                     121.49866
                       7.02985                      45.00046                     123.44861
                       7.40602                      47.22036                     124.99874
                       7.78029                      49.47264                     126.50388
                       7.97122                      50.57419                     127.28988
        </DataArray>
      </Points>
      <PointData>
        <DataArray type="Float32" Name="Force" NumberOfComponents="3" format="ascii">
                      -0.03577                       0.20983                      -0.27987
                      72.26421                      12.50612                     -20.75522
                      84.22570                      31.40378                     -46.96968
                      71.12980                      41.62674                     -60.16947
                     719.75807                    -141.20041                     143.97482
                     982.83123                    -190.18598                     186.88404
                    1110.11368                    -172.46829                     145.60442
                    1403.20664                    -184.63488                     126.01700
                    1521.77127                    -170.88778                      79.63904
                    1751.64938                    -178.91953                      43.04511
                    2159.46822                    -206.50247                      -3.12638
                    2481.07367                    -233.63779                     -57.91777
                    2899.87734                    -287.94607                    -111.01977
                    3183.66166                    -329.36273                    -175.47977
                    3426.51771                    -367.15484                    -242.85303
                    3543.52399                    -379.20766                    -299.42217
                    3417.03216                    -352.43074                    -328.54435
                    2426.77349                    -233.74989                    -261.88648
                    1161.00464                     -51.32551                    -207.93600
        </DataArray>
        <DataArray type="Float32" Name="Moment" NumberOfComponents="3" format="ascii">
                       0.00000                       0.00000                       0.00000
                       0.00000                       0.00000                       0.00000
                       0.00000                       0.00000                       0.00000
                       0.00000                       0.00000                       0.00000
                      -8.36010                    -176.29073                    -131.09984
                     -16.10908                    -308.48804                    -229.22017
                     -25.05189                    -431.93749                    -320.62952
                     -39.13423                    -602.09107                    -446.39697
                     -59.80778                    -813.13402                    -601.97755
                     -76.31817                    -908.72689                    -671.53525
                     -91.93630                    -950.79577                    -701.07911
                    -110.93783                    -996.41342                    -732.85116
                    -113.47800                    -890.89584                    -653.41819
                    -126.92722                    -882.88009                    -645.68991
                    -134.53921                    -846.96733                    -617.79272
                    -134.36568                    -797.21332                    -580.51345
                    -122.42785                    -707.27835                    -514.61323
                     -62.32126                    -356.49530                    -259.30639
                     -54.75408                    -313.79754                    -228.26218
        </DataArray>
        <DataArray type="Float32" Name="TranslationalVelocity" NumberOfComponents="3" format="ascii">
                      -0.08298                      -0.84753                       1.11284
                       0.04328                      -1.60178                       2.11408
                       0.28884                      -3.17868                       4.06343
                       0.53110                      -4.78493                       5.98593
                       0.83189                      -6.80617                       8.37077
                       1.20245                      -9.11734                      11.30531
                       1.58081                     -11.32180                      14.30184
                       1.95839                     -13.51293                      17.29021
                       2.33819                     -15.69022                      20.27133
                       2.72522                     -17.85628                      23.24411
                       3.12437                     -20.01589                      26.20737
                       3.54492                     -22.16834                      29.16043
                       3.99550                     -24.31487                      32.10231
                       4.48345                     -26.45673                      35.03191
                       5.01281                     -28.59533                      37.94837
                       5.48388                     -30.37596                      40.36944
                       5.87875                     -31.79421                      42.30506
                       6.28690                     -33.17294                      44.26698
                       6.48926                     -33.89226                      45.22602
        </DataArray>
        <DataArray type="Float32" Name="RotationalVelocity" NumberOfComponents="3" format="ascii">
                       0.91588                      -0.00261                      -0.11744
                       0.91533                      -0.00262                      -0.11740
                       0.91401                      -0.00262                      -0.11733
                       0.91237                      -0.00263                      -0.11723
                       0.90989                      -0.00267                      -0.11704
                       0.90651                      -0.00283                      -0.11665
                       0.90294                      -0.00299                      -0.11623
                       0.89940                      -0.00292                      -0.11613
                       0.89601                      -0.00232                      -0.11676
                       0.89280                      -0.00089                      -0.11851
                       0.88980                       0.00176                      -0.12190
                       0.88693                       0.00562                      -0.12693
                       0.88417                       0.01061                      -0.13349
                       0.88156                       0.01643                      -0.14115
                       0.87920                       0.02246                      -0.14913
                       0.87762                       0.02693                      -0.15505
                       0.87678                       0.02959                      -0.15857
                       0.87631                       0.03136                      -0.16092
                       0.87624                       0.03185                      -0.16158
        </DataArray>
        <DataArray type="Float32" Name="TranslationalAcceleration" NumberOfComponents="3" format="ascii">
                      -1.58875                      -0.68878                      -1.11931
                      -1.75131                      -1.55238                      -1.89598
                      -2.08673                      -3.23669                      -3.49278
                      -2.42128                      -4.93446                      -5.06507
                      -2.82712                      -7.11427                      -6.95430
                      -3.26496                      -9.91446                      -8.96893
                      -3.63503                     -12.89616                     -10.69522
                      -3.92981                     -15.99758                     -12.21358
                      -4.11872                     -19.21838                     -13.52698
                      -4.16369                     -22.55496                     -14.64918
                      -4.04359                     -25.99097                     -15.61722
                      -3.69786                     -29.53491                     -16.43429
                      -3.08672                     -33.18152                     -17.12783
                      -2.18497                     -36.92380                     -17.72814
                      -0.99369                     -40.75149                     -18.26642
                       0.18878                     -43.99279                     -18.68826
                       1.23431                     -46.61106                     -19.00970
                       2.32311                     -49.23935                     -19.27821
                       2.86196                     -50.55105                     -19.45058
        </DataArray>
        <DataArray type="Float32" Name="OrientationX" NumberOfComponents="3" format="ascii">
                       0.99100                      -0.10327                       0.08512
                       0.99099                      -0.10356                       0.08491
                       0.99096                      -0.10440                       0.08428
                       0.99091                      -0.10555                       0.08343
                       0.99082                      -0.10746                       0.08201
                       0.99431                      -0.09160                       0.05432
                       0.99611                      -0.08161                       0.03321
                       0.99715                      -0.07415                       0.01381
                       0.99772                      -0.06707                      -0.00730
                       0.99770                      -0.06088                      -0.02983
                       0.99700                      -0.05691                      -0.05251
                       0.99563                      -0.05433                      -0.07597
                       0.99368                      -0.05381                      -0.09851
                       0.99148                      -0.05616                      -0.11756
                       0.98905                      -0.05780                      -0.13577
                       0.98709                      -0.05727                      -0.14959
                       0.98580                      -0.05516                      -0.15862
                       0.98515                      -0.05356                      -0.16311
                       0.98519                      -0.05334                      -0.16296
        </DataArray>
        <DataArray type="Float32" Name="OrientationY" NumberOfComponents="3" format="ascii">
                       0.12988                       0.58878                      -0.79779
                       0.12987                       0.58856                      -0.79795
                       0.12985                       0.58801                      -0.79836
                       0.12982                       0.58734                      -0.79886
                       0.12978                       0.58631                      -0.79963
                       0.09804                       0.58808                      -0.80284
                       0.07506                       0.58860                      -0.80493
                       0.05494                       0.58867                      -0.80650
                       0.03367                       0.58873                      -0.80763
                       0.01176                       0.58876                      -0.80823
                      -0.00897                       0.58870                      -0.80830
                      -0.02951                       0.58868                      -0.80783
                      -0.04812                       0.58866                      -0.80695
                      -0.06223                       0.58857                      -0.80605
                      -0.07607                       0.58867                      -0.80479
                      -0.08759                       0.58894                      -0.80342
                      -0.09611                       0.58925                      -0.80221
                      -0.10067                       0.58943                      -0.80152
                      -0.10066                       0.58944                      -0.80152
        </DataArray>
        <DataArray type="Float32" Name="OrientationZ" NumberOfComponents="3" format="ascii">
                       0.03227                       0.80167                       0.59690
                       0.03267                       0.80179                       0.59671
                       0.03379                       0.80209                       0.59625
                       0.03532                       0.80243                       0.59570
                       0.03784                       0.80293                       0.59487
                       0.04160                       0.80360                       0.59372
                       0.04614                       0.80430                       0.59244
                       0.05167                       0.80496                       0.59107
                       0.05846                       0.80554                       0.58964
                       0.06677                       0.80602                       0.58812
                       0.07692                       0.80635                       0.58642
                       0.08861                       0.80654                       0.58450
                       0.10141                       0.80659                       0.58235
                       0.11446                       0.80650                       0.58005
                       0.12644                       0.80631                       0.57783
                       0.13412                       0.80614                       0.57632
                       0.13771                       0.80606                       0.57558
                       0.13907                       0.80604                       0.57529
                       0.13881                       0.80605                       0.57534
        </DataArray>
      </PointData>
      <Lines>
        <DataArray type="Int32" Name="connectivity" format="ascii">
      0      1
      1      2
      2      3
      3      4
      4      5
      5      6
      6      7
      7      8
      8      9
      9     10
     10     11
     11     12
     12     13
     13     14
     14     15
     15     16
     16     17
     17     18
        </DataArray>
        <DataArray type="Int32" Name="offsets" format="ascii">
      2
      4
      6
      8
     10
     12
     14
     16
     18
     20
     22
     24
     26
     28
     30
     32
     34
     36
        </DataArray>
      </Lines>
    </Piece>
  </PolyData>
</VTKFile>
