<?xml version="1.0"?>
<VTKFile type="PolyData" version="0.1" byte_order="LittleEndian">
  <PolyData>
    <Piece NumberOfPoints="     19" NumberOfVerts="  0" NumberOfLines="     18"
           NumberOfStrips="  0" NumberOfPolys="      0">
      <Points>
        <DataArray type="Float32" NumberOfComponents="3" format="ascii">
                       2.65262                      -1.45758                      89.71872
                       2.54737                      -2.76574                      89.33726
                       2.30509                      -5.35400                      88.48643
                       2.05104                      -7.92859                      87.59195
                       1.73207                     -11.13805                      86.44456
                       1.43181                     -15.03069                      85.18932
                       1.18955                     -18.95983                      84.04480
                       0.96984                     -22.88795                      82.89211
                       0.78150                     -26.81544                      81.73161
                       0.63115                     -30.74151                      80.56058
                       0.52034                     -34.66496                      79.37635
                       0.46285                     -38.58548                      78.17850
                       0.46562                     -42.50238                      76.96734
                       0.53220                     -46.41497                      75.74388
                       0.66272                     -50.32266                      74.50968
                       0.81242                     -53.57564                      73.47506
                       0.95323                     -56.17855                      72.65213
                       1.10449                     -58.79775                      71.88065
                       1.17491                     -60.09469                      71.45552
        </DataArray>
      </Points>
      <PointData>
        <DataArray type="Float32" Name="Force" NumberOfComponents="3" format="ascii">
                       0.68955                      -1.74073                       5.83994
                      87.31481                     -13.83511                      23.89267
                     113.27616                     -26.49242                      61.07733
                     104.36200                     -31.19570                      80.36812
                     799.14287                      68.30382                    -438.33252
                    1031.29031                      75.01775                    -502.87347
                    1204.94836                      73.42584                    -513.47380
                    1556.25807                      85.93838                    -592.98413
                    1707.41472                      88.65794                    -578.05602
                    1980.05462                     106.85943                    -609.17261
                    2448.34587                     144.47858                    -683.17036
                    2819.92701                     190.50494                    -721.33506
                    3290.64819                     263.07060                    -793.15462
                    3630.62629                     333.98395                    -814.69307
                    3945.16827                     406.41054                    -826.17072
                    4141.56367                     451.68769                    -815.04294
                    4078.51480                     450.00790                    -759.03467
                    2983.13702                     327.10069                    -533.17885
                    1267.75044                     100.77765                    -102.95657
        </DataArray>
        <DataArray type="Float32" Name="Moment" NumberOfComponents="3" format="ascii">
                       0.00000                       0.00000                       0.00000
                       0.00000                       0.00000                       0.00000
                       0.00000                       0.00000                       0.00000
                       0.00000                       0.00000                       0.00000
                      17.94328                     244.86787                      70.87007
                      32.21681                     469.28191                     136.07670
                      37.77208                     600.34010                     174.48579
                      45.99319                     823.62810                     240.07141
                      51.47296                    1092.69402                     319.62593
                      44.31578                    1217.02846                     357.53188
                      29.48593                    1260.55458                     372.25692
                      11.17372                    1324.59055                     393.50659
                      -9.52014                    1208.88355                     361.46079
                     -29.50544                    1206.44347                     363.09323
                     -46.29941                    1168.74692                     353.83983
                     -54.77209                    1111.94797                     337.90996
                     -53.15996                     990.25123                     301.44498
                     -27.53446                     498.72476                     151.90800
                     -22.65502                     413.70728                     125.99036
        </DataArray>
        <DataArray type="Float32" Name="TranslationalVelocity" NumberOfComponents="3" format="ascii">
                      -0.70796                       0.36519                      -1.35991
                      -0.84652                       0.72931                      -2.57038
                      -1.11948                       1.54214                      -4.96540
                      -1.39041                       2.39610                      -7.34670
                      -1.72797                       3.48981                     -10.31299
                      -2.13943                       4.67958                     -13.90595
                      -2.55708                       5.75954                     -17.52720
                      -2.97669                       6.84316                     -21.14208
                      -3.40079                       7.92911                     -24.75035
                      -3.83296                       9.01898                     -28.35060
                      -4.27609                      10.11502                     -31.94191
                      -4.73638                      11.21547                     -35.52280
                      -5.21897                      12.31864                     -39.09251
                      -5.72790                      13.42242                     -42.65075
                      -6.26482                      14.52470                     -46.19785
                      -6.73174                      15.44113                     -49.14668
                      -7.11645                      16.16579                     -51.50432
                      -7.50858                      16.84184                     -53.87601
                      -7.70331                      17.21628                     -55.05031
        </DataArray>
        <DataArray type="Float32" Name="RotationalVelocity" NumberOfComponents="3" format="ascii">
                       0.92448                      -0.01245                      -0.10958
                       0.92432                      -0.01245                      -0.10956
                       0.92389                      -0.01242                      -0.10955
                       0.92337                      -0.01237                      -0.10956
                       0.92256                      -0.01229                      -0.10961
                       0.92144                      -0.01217                      -0.10971
                       0.92022                      -0.01199                      -0.11001
                       0.91889                      -0.01168                      -0.11072
                       0.91743                      -0.01116                      -0.11210
                       0.91583                      -0.01037                      -0.11440
                       0.91409                      -0.00921                      -0.11794
                       0.91227                      -0.00770                      -0.12265
                       0.91045                      -0.00590                      -0.12840
                       0.90873                      -0.00392                      -0.13480
                       0.90723                      -0.00196                      -0.14117
                       0.90629                      -0.00058                      -0.14567
                       0.90582                       0.00017                      -0.14814
                       0.90559                       0.00060                      -0.14956
                       0.90556                       0.00067                      -0.14982
        </DataArray>
        <DataArray type="Float32" Name="TranslationalAcceleration" NumberOfComponents="3" format="ascii">
                       0.77107                       1.09794                       0.30194
                       0.82714                       2.24626                       0.58747
                       0.94770                       4.52115                       1.23856
                       1.07227                       6.78270                       1.93006
                       1.23027                       9.59727                       2.82222
                       1.40669                      12.99627                       3.78314
                       1.57057                      16.41165                       4.64843
                       1.73315                      19.81476                       5.52445
                       1.89505                      23.20553                       6.40931
                       2.05815                      26.58324                       7.30347
                       2.22473                      29.94850                       8.20708
                       2.39769                      33.30070                       9.11743
                       2.58017                      36.64107                      10.03123
                       2.77497                      39.97166                      10.94492
                       2.98379                      43.29507                      11.85532
                       3.16816                      46.06144                      12.61008
                       3.32095                      48.27546                      13.20513
                       3.47081                      50.50299                      13.75507
                       3.55134                      51.60688                      14.06309
        </DataArray>
        <DataArray type="Float32" Name="OrientationX" NumberOfComponents="3" format="ascii">
                       0.93822                       0.02465                      -0.34516
                       0.93826                       0.02511                      -0.34503
                       0.93836                       0.02644                      -0.34464
                       0.93850                       0.02825                      -0.34412
                       0.93873                       0.03126                      -0.34324
                       0.94933                       0.02661                      -0.31314
                       0.95652                       0.02549                      -0.29056
                       0.96246                       0.02640                      -0.27014
                       0.96832                       0.02847                      -0.24809
                       0.97387                       0.03210                      -0.22481
                       0.97867                       0.03816                      -0.20187
                       0.98288                       0.04598                      -0.17843
                       0.98614                       0.05554                      -0.15632
                       0.98815                       0.06660                      -0.13828
                       0.98973                       0.07635                      -0.12084
                       0.99089                       0.08168                      -0.10711
                       0.99174                       0.08312                      -0.09769
                       0.99220                       0.08311                      -0.09289
                       0.99222                       0.08270                      -0.09302
        </DataArray>
        <DataArray type="Float32" Name="OrientationY" NumberOfComponents="3" format="ascii">
                       0.33746                      -0.28584                       0.89689
                       0.33746                      -0.28597                       0.89685
                       0.33743                      -0.28626                       0.89677
                       0.33740                      -0.28663                       0.89666
                       0.33736                      -0.28718                       0.89650
                       0.30719                      -0.28885                       0.90675
                       0.28522                      -0.29024                       0.91346
                       0.26590                      -0.29155                       0.91885
                       0.24538                      -0.29291                       0.92412
                       0.22417                      -0.29430                       0.92905
                       0.20403                      -0.29568                       0.93325
                       0.18399                      -0.29713                       0.93694
                       0.16580                      -0.29860                       0.93987
                       0.15201                      -0.29992                       0.94177
                       0.13843                      -0.30129                       0.94343
                       0.12705                      -0.30243                       0.94467
                       0.11856                      -0.30326                       0.94551
                       0.11400                      -0.30369                       0.94593
                       0.11400                      -0.30369                       0.94593
        </DataArray>
        <DataArray type="Float32" Name="OrientationZ" NumberOfComponents="3" format="ascii">
                      -0.07656                      -0.95796                      -0.27650
                      -0.07614                      -0.95791                      -0.27678
                      -0.07495                      -0.95779                      -0.27754
                      -0.07330                      -0.95762                      -0.27853
                      -0.07055                      -0.95737                      -0.28013
                      -0.06632                      -0.95701                      -0.28239
                      -0.06105                      -0.95661                      -0.28489
                      -0.05450                      -0.95619                      -0.28763
                      -0.04636                      -0.95572                      -0.29061
                      -0.03634                      -0.95517                      -0.29381
                      -0.02408                      -0.95452                      -0.29716
                      -0.00994                      -0.95373                      -0.30050
                       0.00552                      -0.95276                      -0.30367
                       0.02125                      -0.95164                      -0.30649
                       0.03563                      -0.95047                      -0.30876
                       0.04477                      -0.94967                      -0.31005
                       0.04896                      -0.94928                      -0.31061
                       0.05041                      -0.94914                      -0.31080
                       0.04998                      -0.94917                      -0.31076
        </DataArray>
      </PointData>
      <Lines>
        <DataArray type="Int32" Name="connectivity" format="ascii">
      0      1
      1      2
      2      3
      3      4
      4      5
      5      6
      6      7
      7      8
      8      9
      9     10
     10     11
     11     12
     12     13
     13     14
     14     15
     15     16
     16     17
     17     18
        </DataArray>
        <DataArray type="Int32" Name="offsets" format="ascii">
      2
      4
      6
      8
     10
     12
     14
     16
     18
     20
     22
     24
     26
     28
     30
     32
     34
     36
        </DataArray>
      </Lines>
    </Piece>
  </PolyData>
</VTKFile>
