<?xml version="1.0"?>
<VTKFile type="PolyData" version="0.1" byte_order="LittleEndian">
  <PolyData>
    <Piece NumberOfPoints="     19" NumberOfVerts="  0" NumberOfLines="     18"
           NumberOfStrips="  0" NumberOfPolys="      0">
      <Points>
        <DataArray type="Float32" NumberOfComponents="3" format="ascii">
                       3.05526                       1.04802                      93.26082
                       3.31027                       2.21296                      96.67626
                       3.57444                       3.37559                     100.09179
                       3.85133                       4.53508                     103.50738
                       4.14396                       5.69100                     106.92286
                       4.45558                       6.84307                     110.33795
                       4.79015                       7.99104                     113.75225
                       5.15262                       9.13458                     117.16518
                       5.54887                      10.27341                     120.57591
                       5.98546                      11.40733                     123.98333
                       6.46902                      12.53630                     127.38604
                       7.00545                      13.66043                     130.78240
                       7.59882                      14.78002                     134.17080
                       8.24998                      15.89551                     137.54996
                       8.95497                      17.00758                     140.91951
                       9.70313                      18.11719                     144.28065
                      10.47499                      19.22557                     147.63693
                      10.86378                      19.77961                     149.31446
                       2.92953                       0.46509                      91.55312
        </DataArray>
      </Points>
      <PointData>
        <DataArray type="Float32" Name="TranslationalVelocity" NumberOfComponents="3" format="ascii">
                      -0.54926                      -2.90460                       0.94000
                      -0.47576                      -6.07262                       2.01507
                      -0.40270                      -9.24327                       3.08869
                      -0.33019                     -12.41727                       4.16030
                      -0.25828                     -15.59505                       5.22960
                      -0.18678                     -18.77683                       6.29644
                      -0.11530                     -21.96275                       7.36062
                      -0.04316                     -25.15286                       8.42184
                       0.03060                     -28.34707                       9.47979
                       0.10718                     -31.54506                      10.53420
                       0.18793                     -34.74622                      11.58480
                       0.27424                     -37.94964                      12.63141
                       0.36730                     -41.15416                      13.67393
                       0.46792                     -44.35852                      14.71232
                       0.57623                     -47.56170                      15.74684
                       0.69139                     -50.76322                      16.77817
                       0.81121                     -53.96362                      17.80761
                       0.87191                     -55.56368                      18.32204
                      -0.58610                      -1.32113                       0.40219
        </DataArray>
        <DataArray type="Float32" Name="RotationalVelocity" NumberOfComponents="3" format="ascii">
                       0.91917                      -0.01590                      -0.10977
                       0.91955                      -0.01595                      -0.10978
                       0.92007                      -0.01601                      -0.10980
                       0.92067                      -0.01609                      -0.10982
                       0.92132                      -0.01614                      -0.10984
                       0.92199                      -0.01612                      -0.10990
                       0.92268                      -0.01595                      -0.11001
                       0.92336                      -0.01556                      -0.11019
                       0.92403                      -0.01487                      -0.11048
                       0.92467                      -0.01384                      -0.11087
                       0.92526                      -0.01245                      -0.11139
                       0.92579                      -0.01071                      -0.11203
                       0.92624                      -0.00870                      -0.11275
                       0.92660                      -0.00656                      -0.11350
                       0.92686                      -0.00451                      -0.11422
                       0.92701                      -0.00285                      -0.11480
                       0.92705                      -0.00200                      -0.11509
                       0.92704                      -0.00183                      -0.11515
                       0.91903                      -0.01587                      -0.10977
        </DataArray>
        <DataArray type="Float32" Name="TranslationalAcceleration" NumberOfComponents="3" format="ascii">
                       0.24984                      -1.33084                      -2.45589
                       0.00077                      -2.40546                      -5.34924
                      -0.26841                      -3.37553                      -8.28053
                      -0.56883                      -4.21385                     -11.25877
                      -0.91285                      -4.90403                     -14.28852
                      -1.31530                      -5.43790                     -17.37073
                      -1.79252                      -5.81292                     -20.50368
                      -2.36223                      -6.03041                     -23.68338
                      -3.04368                      -6.09464                     -26.90361
                      -3.85645                      -6.01188                     -30.15600
                      -4.81870                      -5.78996                     -33.43026
                      -5.94487                      -5.43814                     -36.71457
                      -7.24265                      -4.96724                     -39.99663
                      -8.70935                      -4.39038                     -43.26547
                     -10.32779                      -3.72448                     -46.51389
                     -12.06154                      -2.99241                     -49.74165
                     -13.84922                      -2.22507                     -52.95850
                     -14.74712                      -1.83700                     -54.56614
                       0.37078                      -0.77153                      -1.01726
        </DataArray>
        <DataArray type="Float32" Name="RotationalAcceleration" NumberOfComponents="3" format="ascii">
                       0.03635                       0.03912                       0.00919
                       0.01103                       0.03600                       0.01210
                      -0.02370                       0.03013                       0.01664
                      -0.06438                       0.02154                       0.02254
                      -0.10822                       0.00940                       0.02988
                      -0.15319                      -0.00688                       0.03872
                      -0.19791                      -0.02760                       0.04906
                      -0.24128                      -0.05329                       0.06100
                      -0.28250                      -0.08428                       0.07459
                      -0.32096                      -0.12051                       0.08977
                      -0.35615                      -0.16138                       0.10629
                      -0.38761                      -0.20559                       0.12369
                      -0.41495                      -0.25094                       0.14117
                      -0.43768                      -0.29417                       0.15759
                      -0.45514                      -0.33084                       0.17139
                      -0.46641                      -0.35508                       0.18049
                      -0.47037                      -0.35937                       0.18225
                      -0.47038                      -0.35549                       0.18092
                       0.04619                       0.03992                       0.00820
        </DataArray>
        <DataArray type="Float32" Name="OrientationX" NumberOfComponents="3" format="ascii">
                       0.97889                      -0.20435                      -0.00231
                       0.97875                      -0.20501                      -0.00423
                       0.97852                      -0.20603                      -0.00724
                       0.98068                      -0.19501                      -0.01544
                       0.98537                      -0.16774                      -0.03023
                       0.98734                      -0.15309                      -0.04153
                       0.98888                      -0.13856                      -0.05404
                       0.98999                      -0.12349                      -0.06828
                       0.99050                      -0.10869                      -0.08420
                       0.99026                      -0.09520                      -0.10157
                       0.98928                      -0.08249                      -0.12047
                       0.98755                      -0.07111                      -0.14035
                       0.98513                      -0.06309                      -0.15980
                       0.98235                      -0.05644                      -0.17835
                       0.97956                      -0.04916                      -0.19507
                       0.97729                      -0.04071                      -0.20796
                       0.97639                      -0.03411                      -0.21332
                       0.97640                      -0.03162                      -0.21362
                       0.97894                      -0.20414                      -0.00168
        </DataArray>
        <DataArray type="Float32" Name="OrientationY" NumberOfComponents="3" format="ascii">
                       0.19218                       0.92433                      -0.32967
                       0.19219                       0.92436                      -0.32958
                       0.19220                       0.92440                      -0.32946
                       0.17917                       0.92712                      -0.32916
                       0.14872                       0.93279                      -0.32831
                       0.13130                       0.93568                      -0.32752
                       0.11363                       0.93834                      -0.32651
                       0.09493                       0.94087                      -0.32521
                       0.07598                       0.94313                      -0.32361
                       0.05785                       0.94504                      -0.32178
                       0.04001                       0.94669                      -0.31966
                       0.02316                       0.94803                      -0.31733
                       0.00965                       0.94898                      -0.31518
                      -0.00227                       0.94973                      -0.31305
                      -0.01418                       0.95040                      -0.31072
                      -0.02598                       0.95095                      -0.30824
                      -0.03374                       0.95126                      -0.30653
                      -0.03614                       0.95134                      -0.30601
                       0.19218                       0.92432                      -0.32971
        </DataArray>
        <DataArray type="Float32" Name="OrientationZ" NumberOfComponents="3" format="ascii">
                       0.06951                       0.32227                       0.94409
                       0.07148                       0.32176                       0.94412
                       0.07457                       0.32099                       0.94414
                       0.07851                       0.32004                       0.94415
                       0.08327                       0.31901                       0.94409
                       0.08900                       0.31792                       0.94393
                       0.09595                       0.31674                       0.94365
                       0.10440                       0.31547                       0.94317
                       0.11459                       0.31414                       0.94244
                       0.12662                       0.31277                       0.94135
                       0.14042                       0.31142                       0.93984
                       0.15562                       0.31013                       0.93787
                       0.17153                       0.30896                       0.93548
                       0.18706                       0.30793                       0.93284
                       0.20066                       0.30713                       0.93027
                       0.21031                       0.30664                       0.92830
                       0.21338                       0.30649                       0.92765
                       0.21290                       0.30651                       0.92775
                       0.06885                       0.32244                       0.94408
        </DataArray>
      </PointData>
      <Lines>
        <DataArray type="Int32" Name="connectivity" format="ascii">
      0      1
      1      2
      2      3
      3      4
      4      5
      5      6
      6      7
      7      8
      8      9
      9     10
     10     11
     11     12
     12     13
     13     14
     14     15
     15     16
     16     17
     18      0
        </DataArray>
        <DataArray type="Int32" Name="offsets" format="ascii">
      2
      4
      6
      8
     10
     12
     14
     16
     18
     20
     22
     24
     26
     28
     30
     32
     34
     36
        </DataArray>
      </Lines>
    </Piece>
  </PolyData>
</VTKFile>
