<?xml version="1.0"?>
<VTKFile type="PolyData" version="0.1" byte_order="LittleEndian">
  <PolyData>
    <Piece NumberOfPoints="     19" NumberOfVerts="  0" NumberOfLines="     18"
           NumberOfStrips="  0" NumberOfPolys="      0">
      <Points>
        <DataArray type="Float32" NumberOfComponents="3" format="ascii">
                       2.81182                       3.25404                      89.60996
                       2.58916                       6.82098                      89.04899
                       2.37300                      10.38768                      88.48390
                       2.16574                      13.95409                      87.91375
                       1.96932                      17.52019                      87.33786
                       1.78566                      21.08598                      86.75581
                       1.61718                      24.65146                      86.16740
                       1.46689                      28.21669                      85.57258
                       1.33843                      31.78169                      84.97135
                       1.23588                      35.34643                      84.36365
                       1.16340                      38.91077                      83.74936
                       1.12470                      42.47446                      83.12832
                       1.12235                      46.03716                      82.50042
                       1.15690                      49.59851                      81.86582
                       1.22584                      53.15827                      81.22506
                       1.32238                      56.71653                      80.57933
                       1.43407                      60.27386                      79.93080
                       1.49174                      62.05240                      79.60618
                       2.92442                       1.47051                      89.88957
        </DataArray>
      </Points>
      <PointData>
        <DataArray type="Float32" Name="TranslationalVelocity" NumberOfComponents="3" format="ascii">
                       0.57977                       0.45582                       3.07124
                       0.98860                       1.00206                       6.38225
                       1.41021                       1.54972                       9.67778
                       1.84900                       2.09898                      12.95411
                       2.30825                       2.64985                      16.20886
                       2.79281                       3.20232                      19.44076
                       3.31111                       3.75630                      22.64954
                       3.87616                       4.31158                      25.83550
                       4.50547                       4.86764                      28.99898
                       5.22026                       5.42347                      32.13995
                       6.04375                       5.97730                      35.25784
                       6.99858                       6.52651                      38.35158
                       8.10337                       7.06770                      41.42002
                       9.36844                       7.59739                      44.46270
                      10.79061                       8.11307                      47.48070
                      12.34719                       8.61500                      50.47770
                      13.98912                       9.10799                      53.46152
                      14.82341                       9.35319                      54.95143
                       0.37784                       0.18302                       1.41242
        </DataArray>
        <DataArray type="Float32" Name="RotationalVelocity" NumberOfComponents="3" format="ascii">
                       0.92965                       0.00672                      -0.11427
                       0.92605                       0.00607                      -0.11697
                       0.92122                       0.00510                      -0.12121
                       0.91558                       0.00395                      -0.12630
                       0.90944                       0.00262                      -0.13232
                       0.90311                       0.00100                      -0.14005
                       0.89682                      -0.00106                      -0.15067
                       0.89064                      -0.00376                      -0.16548
                       0.88452                      -0.00731                      -0.18564
                       0.87832                      -0.01182                      -0.21200
                       0.87186                      -0.01736                      -0.24479
                       0.86501                      -0.02384                      -0.28342
                       0.85783                      -0.03099                      -0.32626
                       0.85063                      -0.03836                      -0.37043
                       0.84397                      -0.04520                      -0.41148
                       0.83875                      -0.05051                      -0.44328
                       0.83647                      -0.05291                      -0.45773
                       0.83629                      -0.05320                      -0.45948
                       0.93109                       0.00694                      -0.11345
        </DataArray>
        <DataArray type="Float32" Name="TranslationalAcceleration" NumberOfComponents="3" format="ascii">
                       0.89841                      -2.76190                       0.68855
                       0.92561                      -5.90232                       1.08159
                       0.87438                      -9.00615                       1.57474
                       0.71608                     -12.06504                       2.19179
                       0.42921                     -15.07350                       2.94758
                      -0.00249                     -18.02894                       3.85059
                      -0.59288                     -20.93213                       4.90356
                      -1.35430                     -23.78681                       6.10492
                      -2.29709                     -26.59893                       7.45019
                      -3.42918                     -29.37658                       8.93251
                      -4.75501                     -32.13015                      10.54273
                      -6.27385                     -34.87263                      12.26923
                      -7.97764                     -37.61961                      14.09770
                      -9.84832                     -40.38822                      16.01091
                     -11.85452                     -43.19352                      17.98909
                     -13.94788                     -46.04262                      20.01042
                     -16.05906                     -48.92817                      22.05094
                     -17.10899                     -50.37804                      23.07284
                       0.86925                      -1.18378                       0.51341
        </DataArray>
        <DataArray type="Float32" Name="RotationalAcceleration" NumberOfComponents="3" format="ascii">
                      -0.04839                       0.08133                      -0.00532
                      -0.02450                       0.08546                       0.01135
                       0.00764                       0.09147                       0.03673
                       0.04499                       0.09887                       0.06884
                       0.08567                       0.10724                       0.10581
                       0.12799                       0.11632                       0.14669
                       0.17044                       0.12598                       0.19118
                       0.21218                       0.13608                       0.23877
                       0.25268                       0.14650                       0.28892
                       0.29157                       0.15709                       0.34085
                       0.32852                       0.16766                       0.39341
                       0.36314                       0.17792                       0.44495
                       0.39473                       0.18747                       0.49316
                       0.42221                       0.19575                       0.53495
                       0.44412                       0.20205                       0.56628
                       0.45833                       0.20541                       0.58204
                       0.46194                       0.20470                       0.57601
                       0.46068                       0.20316                       0.56670
                      -0.05783                       0.07981                      -0.01122
        </DataArray>
        <DataArray type="Float32" Name="OrientationX" NumberOfComponents="3" format="ascii">
                       0.99176                       0.07848                       0.10122
                       0.99184                       0.07721                       0.10142
                       0.99196                       0.07521                       0.10174
                       0.99352                       0.07066                       0.08906
                       0.99628                       0.06283                       0.05904
                       0.99752                       0.05638                       0.04222
                       0.99847                       0.04907                       0.02529
                       0.99915                       0.04060                       0.00752
                       0.99947                       0.03095                      -0.01031
                       0.99943                       0.02021                      -0.02711
                       0.99902                       0.00835                      -0.04342
                       0.99827                      -0.00429                      -0.05861
                       0.99738                      -0.01686                      -0.07039
                       0.99632                      -0.02897                      -0.08064
                       0.99504                      -0.03990                      -0.09108
                       0.99363                      -0.04828                      -0.10184
                       0.99267                      -0.05167                      -0.10928
                       0.99239                      -0.05179                      -0.11174
                       0.99174                       0.07891                       0.10116
        </DataArray>
        <DataArray type="Float32" Name="OrientationY" NumberOfComponents="3" format="ascii">
                       0.11194                      -0.14700                      -0.98278
                       0.11201                      -0.14811                      -0.98261
                       0.11210                      -0.14962                      -0.98237
                       0.09899                      -0.15235                      -0.98336
                       0.06825                      -0.15631                      -0.98535
                       0.05073                      -0.15930                      -0.98593
                       0.03295                      -0.16216                      -0.98621
                       0.01412                      -0.16487                      -0.98621
                      -0.00498                      -0.16732                      -0.98589
                      -0.02330                      -0.16944                      -0.98527
                      -0.04135                      -0.17122                      -0.98436
                      -0.05847                      -0.17263                      -0.98325
                      -0.07225                      -0.17370                      -0.98214
                      -0.08447                      -0.17445                      -0.98104
                      -0.09670                      -0.17483                      -0.97984
                      -0.10879                      -0.17482                      -0.97857
                      -0.11672                      -0.17460                      -0.97770
                      -0.11916                      -0.17446                      -0.97743
                       0.11191                      -0.14657                      -0.98285
        </DataArray>
        <DataArray type="Float32" Name="OrientationZ" NumberOfComponents="3" format="ascii">
                      -0.06225                       0.98602                      -0.15458
                      -0.06084                       0.98595                      -0.15555
                      -0.05866                       0.98588                      -0.15685
                      -0.05592                       0.98580                      -0.15836
                      -0.05268                       0.98571                      -0.16002
                      -0.04886                       0.98562                      -0.16177
                      -0.04429                       0.98554                      -0.16353
                      -0.03881                       0.98548                      -0.16530
                      -0.03224                       0.98542                      -0.16708
                      -0.02451                       0.98533                      -0.16887
                      -0.01566                       0.98520                      -0.17071
                      -0.00590                       0.98498                      -0.17258
                       0.00433                       0.98465                      -0.17446
                       0.01435                       0.98424                      -0.17626
                       0.02317                       0.98379                      -0.17782
                       0.02944                       0.98342                      -0.17896
                       0.03144                       0.98328                      -0.17935
                       0.03113                       0.98330                      -0.17931
                      -0.06273                       0.98605                      -0.15419
        </DataArray>
      </PointData>
      <Lines>
        <DataArray type="Int32" Name="connectivity" format="ascii">
      0      1
      1      2
      2      3
      3      4
      4      5
      5      6
      6      7
      7      8
      8      9
      9     10
     10     11
     11     12
     12     13
     13     14
     14     15
     15     16
     16     17
     18      0
        </DataArray>
        <DataArray type="Int32" Name="offsets" format="ascii">
      2
      4
      6
      8
     10
     12
     14
     16
     18
     20
     22
     24
     26
     28
     30
     32
     34
     36
        </DataArray>
      </Lines>
    </Piece>
  </PolyData>
</VTKFile>
