<?xml version="1.0"?>
<VTKFile type="PolyData" version="0.1" byte_order="LittleEndian">
  <PolyData>
    <Piece NumberOfPoints="     19" NumberOfVerts="  0" NumberOfLines="     18"
           NumberOfStrips="  0" NumberOfPolys="      0">
      <Points>
        <DataArray type="Float32" NumberOfComponents="3" format="ascii">
                       3.16906                       1.39242                      90.64655
                       3.16682                       2.67976                      91.10548
                       3.15238                       5.22211                      92.11449
                       3.13626                       7.74914                      93.16686
                       3.12031                      10.89876                      94.50861
                       3.14945                      14.72732                      95.97957
                       3.20459                      18.59945                      97.32682
                       3.27909                      22.47186                      98.67234
                       3.38096                      26.34505                     100.01384
                       3.51704                      30.21813                     101.35263
                       3.68999                      34.08965                     102.69156
                       3.91297                      37.95955                     104.02778
                       4.19313                      41.82720                     105.35972
                       4.53449                      45.69190                     106.68591
                       4.93792                      49.55301                     108.00519
                       5.31435                      52.76796                     109.09950
                       5.63481                      55.34106                     109.96472
                       5.95396                      57.93244                     110.77784
                       6.11815                      59.21395                     111.22333
        </DataArray>
      </Points>
      <PointData>
        <DataArray type="Float32" Name="Force" NumberOfComponents="3" format="ascii">
                      -0.03610                       0.10035                      -0.28400
                      64.49302                       7.87558                     -22.01647
                      75.15125                      18.30487                     -51.74283
                      63.59514                      23.86157                     -67.80083
                     687.36257                     -61.57187                     166.81546
                     957.14314                     -86.71447                     224.60606
                    1078.54000                     -76.26141                     177.49009
                    1359.53680                     -80.71858                     156.56316
                    1463.09691                     -75.12072                     103.11565
                    1690.83856                     -84.50824                      66.11438
                    2106.93492                    -109.56846                      21.90530
                    2450.31939                    -143.38119                     -28.23934
                    2915.35620                    -204.91784                     -66.55866
                    3268.35447                    -267.81155                    -117.98025
                    3625.48324                    -337.63862                    -172.16051
                    3873.06472                    -386.33112                    -220.38940
                    3875.48646                    -394.15775                    -252.11352
                    2897.08774                    -295.99087                    -200.93509
                    1207.13810                     -83.86160                    -199.91929
        </DataArray>
        <DataArray type="Float32" Name="Moment" NumberOfComponents="3" format="ascii">
                       0.00000                       0.00000                       0.00000
                       0.00000                       0.00000                       0.00000
                       0.00000                       0.00000                       0.00000
                       0.00000                       0.00000                       0.00000
                      -0.71004                    -179.85582                     -63.45937
                      -2.61391                    -330.10717                    -116.30667
                      -6.19707                    -483.03376                    -169.88578
                     -13.16775                    -694.51298                    -243.72311
                     -25.66392                    -961.90480                    -336.61410
                     -39.64844                   -1090.90003                    -380.41536
                     -56.94148                   -1176.61986                    -408.50531
                     -78.31416                   -1253.10921                    -432.81528
                     -86.49093                   -1107.02421                    -380.15883
                    -105.04785                   -1114.41285                    -380.41088
                    -119.33715                   -1092.34584                    -370.79759
                    -124.79423                   -1048.74835                    -354.69941
                    -115.50683                    -934.00327                    -315.33623
                     -59.03124                    -470.11357                    -158.60526
                     -48.49484                    -386.87434                    -130.53301
        </DataArray>
        <DataArray type="Float32" Name="TranslationalVelocity" NumberOfComponents="3" format="ascii">
                       0.36916                      -0.49860                       1.35861
                       0.52374                      -0.92263                       2.54882
                       0.82933                      -1.85374                       4.89928
                       1.13133                      -2.82456                       7.23516
                       1.50345                      -4.06252                      10.14566
                       1.94646                      -5.42439                      13.68179
                       2.38240                      -6.67421                      17.25641
                       2.80489                      -7.92383                      20.82976
                       3.21108                      -9.17185                      24.40251
                       3.59745                     -10.41993                      27.97426
                       3.96278                     -11.67079                      31.54427
                       4.30127                     -12.92252                      35.11323
                       4.60985                     -14.17369                      38.68156
                       4.88703                     -15.42256                      42.24963
                       5.13404                     -16.66753                      45.81752
                       5.32085                     -17.70155                      48.79071
                       5.46126                     -18.51979                      51.17164
                       5.60121                     -19.28963                      53.56970
                       5.66992                     -19.71080                      54.75568
        </DataArray>
        <DataArray type="Float32" Name="RotationalVelocity" NumberOfComponents="3" format="ascii">
                       0.92458                       0.00914                      -0.11708
                       0.92452                       0.00906                      -0.11685
                       0.92437                       0.00882                      -0.11619
                       0.92418                       0.00851                      -0.11530
                       0.92387                       0.00798                      -0.11380
                       0.92346                       0.00717                      -0.11154
                       0.92306                       0.00620                      -0.10877
                       0.92270                       0.00501                      -0.10543
                       0.92240                       0.00359                      -0.10140
                       0.92220                       0.00189                      -0.09659
                       0.92214                      -0.00014                      -0.09087
                       0.92225                      -0.00242                      -0.08442
                       0.92252                      -0.00486                      -0.07749
                       0.92293                      -0.00732                      -0.07055
                       0.92341                      -0.00953                      -0.06430
                       0.92375                      -0.01091                      -0.06039
                       0.92391                      -0.01151                      -0.05867
                       0.92396                      -0.01169                      -0.05818
                       0.92393                      -0.01160                      -0.05844
        </DataArray>
        <DataArray type="Float32" Name="TranslationalAcceleration" NumberOfComponents="3" format="ascii">
                      -1.00054                      -1.37527                      -0.35524
                      -1.01703                      -2.48968                      -0.75982
                      -1.05497                      -4.68059                      -1.66314
                      -1.08211                      -6.82820                      -2.66036
                      -1.08965                      -9.44889                      -4.03047
                      -1.03339                     -12.56726                      -5.73178
                      -0.90501                     -15.65653                      -7.54596
                      -0.72800                     -18.66726                      -9.58046
                      -0.52784                     -21.60288                     -11.83254
                      -0.34731                     -24.46600                     -14.29450
                      -0.23130                     -27.26566                     -16.93457
                      -0.24755                     -29.99825                     -19.75157
                      -0.46259                     -32.66632                     -22.71789
                      -0.93348                     -35.27146                     -25.80085
                      -1.69363                     -37.81568                     -28.96464
                      -2.53940                     -39.89533                     -31.63678
                      -3.34159                     -41.54376                     -33.78050
                      -4.21191                     -43.22985                     -35.88979
                      -4.65819                     -44.03744                     -36.96903
        </DataArray>
        <DataArray type="Float32" Name="OrientationX" NumberOfComponents="3" format="ascii">
                       0.99362                      -0.03597                       0.10688
                       0.99362                      -0.03633                       0.10675
                       0.99362                      -0.03738                       0.10638
                       0.99362                      -0.03883                       0.10587
                       0.99362                      -0.04122                       0.10502
                       0.99668                      -0.03425                       0.07380
                       0.99824                      -0.03105                       0.05059
                       0.99911                      -0.02990                       0.02971
                       0.99953                      -0.02980                       0.00724
                       0.99938                      -0.03122                      -0.01642
                       0.99859                      -0.03515                      -0.03970
                       0.99714                      -0.04096                      -0.06344
                       0.99512                      -0.04874                      -0.08580
                       0.99285                      -0.05844                      -0.10404
                       0.99030                      -0.06715                      -0.12166
                       0.98817                      -0.07191                      -0.13548
                       0.98673                      -0.07315                      -0.14495
                       0.98599                      -0.07328                      -0.14983
                       0.98602                      -0.07308                      -0.14977
        </DataArray>
        <DataArray type="Float32" Name="OrientationY" NumberOfComponents="3" format="ascii">
                       0.11276                       0.33141                      -0.93673
                       0.11276                       0.33138                      -0.93673
                       0.11276                       0.33133                      -0.93675
                       0.11276                       0.33126                      -0.93678
                       0.11275                       0.33114                      -0.93682
                       0.08100                       0.33220                      -0.93973
                       0.05805                       0.33280                      -0.94121
                       0.03799                       0.33325                      -0.94207
                       0.01678                       0.33373                      -0.94252
                      -0.00504                       0.33425                      -0.94247
                      -0.02567                       0.33478                      -0.94195
                      -0.04608                       0.33543                      -0.94094
                      -0.06455                       0.33615                      -0.93960
                      -0.07850                       0.33681                      -0.93829
                      -0.09219                       0.33761                      -0.93676
                      -0.10361                       0.33839                      -0.93529
                      -0.11209                       0.33901                      -0.93408
                      -0.11662                       0.33935                      -0.93340
                      -0.11662                       0.33935                      -0.93340
        </DataArray>
        <DataArray type="Float32" Name="OrientationZ" NumberOfComponents="3" format="ascii">
                      -0.00173                       0.94280                       0.33335
                      -0.00134                       0.94280                       0.33337
                      -0.00023                       0.94278                       0.33343
                       0.00130                       0.94274                       0.33352
                       0.00384                       0.94268                       0.33368
                       0.00767                       0.94259                       0.33387
                       0.01239                       0.94249                       0.33401
                       0.01827                       0.94237                       0.33409
                       0.02567                       0.94220                       0.33407
                       0.03491                       0.94197                       0.33388
                       0.04640                       0.94164                       0.33341
                       0.05982                       0.94118                       0.33258
                       0.07464                       0.94055                       0.33136
                       0.08988                       0.93976                       0.32982
                       0.10397                       0.93889                       0.32815
                       0.11310                       0.93826                       0.32693
                       0.11747                       0.93793                       0.32631
                       0.11924                       0.93780                       0.32605
                       0.11904                       0.93782                       0.32608
        </DataArray>
      </PointData>
      <Lines>
        <DataArray type="Int32" Name="connectivity" format="ascii">
      0      1
      1      2
      2      3
      3      4
      4      5
      5      6
      6      7
      7      8
      8      9
      9     10
     10     11
     11     12
     12     13
     13     14
     14     15
     15     16
     16     17
     17     18
        </DataArray>
        <DataArray type="Int32" Name="offsets" format="ascii">
      2
      4
      6
      8
     10
     12
     14
     16
     18
     20
     22
     24
     26
     28
     30
     32
     34
     36
        </DataArray>
      </Lines>
    </Piece>
  </PolyData>
</VTKFile>
