<?xml version="1.0"?>
<VTKFile type="PolyData" version="0.1" byte_order="LittleEndian">
  <PolyData>
    <Piece NumberOfPoints="     19" NumberOfVerts="  0" NumberOfLines="     18"
           NumberOfStrips="  0" NumberOfPolys="      0">
      <Points>
        <DataArray type="Float32" NumberOfComponents="3" format="ascii">
                       3.25035                       2.85230                      91.77654
                       3.32278                       6.00399                      93.55107
                       3.40238                       9.15616                      95.32443
                       3.49187                      12.30886                      97.09638
                       3.59350                      15.46212                      98.86668
                       3.70960                      18.61596                     100.63505
                       3.84299                      21.77031                     102.40128
                       3.99721                      24.92502                     104.16516
                       4.17642                      28.07989                     105.92638
                       4.38529                      31.23467                     107.68446
                       4.62852                      34.38908                     109.43876
                       4.91026                      37.54281                     111.18850
                       5.23336                      40.69554                     112.93289
                       5.59834                      43.84697                     114.67138
                       6.00225                      46.99695                     116.40395
                       6.43729                      50.14563                     118.13142
                       6.88930                      53.29356                     119.85594
                       7.11733                      54.86744                     120.71784
                       3.21553                       1.27657                      90.88902
        </DataArray>
      </Points>
      <PointData>
        <DataArray type="Float32" Name="TranslationalVelocity" NumberOfComponents="3" format="ascii">
                       0.29904                      -1.55639                       2.67402
                       0.67276                      -3.19894                       5.57604
                       1.04889                      -4.83347                       8.46454
                       1.42809                      -6.45819                      11.33613
                       1.81051                      -8.07204                      14.18875
                       2.19532                      -9.67447                      17.02138
                       2.58058                     -11.26548                      19.83370
                       2.96310                     -12.84541                      22.62598
                       3.33846                     -14.41474                      25.39894
                       3.70118                     -15.97392                      28.15377
                       4.04513                     -17.52327                      30.89209
                       4.36420                     -19.06291                      33.61590
                       4.65301                     -20.59276                      36.32757
                       4.90795                     -22.11285                      39.02971
                       5.12834                     -23.62360                      41.72509
                       5.31781                     -25.12646                      44.41658
                       5.48588                     -26.62453                      47.10688
                       5.56617                     -27.37287                      48.45205
                       0.11270                      -0.73340                       1.22015
        </DataArray>
        <DataArray type="Float32" Name="RotationalVelocity" NumberOfComponents="3" format="ascii">
                       0.92264                      -0.00065                      -0.11862
                       0.91890                      -0.00032                      -0.11908
                       0.91381                       0.00013                      -0.11968
                       0.90788                       0.00068                      -0.12042
                       0.90149                       0.00119                      -0.12109
                       0.89492                       0.00152                      -0.12142
                       0.88836                       0.00151                      -0.12115
                       0.88201                       0.00098                      -0.11997
                       0.87597                      -0.00024                      -0.11758
                       0.87038                      -0.00226                      -0.11377
                       0.86534                      -0.00515                      -0.10846
                       0.86095                      -0.00885                      -0.10171
                       0.85729                      -0.01321                      -0.09384
                       0.85441                      -0.01792                      -0.08538
                       0.85237                      -0.02248                      -0.07720
                       0.85123                      -0.02624                      -0.07049
                       0.85102                      -0.02826                      -0.06688
                       0.85114                      -0.02872                      -0.06608
                       0.92411                      -0.00080                      -0.11842
        </DataArray>
        <DataArray type="Float32" Name="TranslationalAcceleration" NumberOfComponents="3" format="ascii">
                      -1.50966                      -2.48561                      -1.36701
                      -1.74180                      -5.21160                      -2.86098
                      -1.98175                      -7.89738                      -4.36749
                      -2.23470                     -10.53288                      -5.89011
                      -2.50591                     -13.11213                      -7.43091
                      -2.79294                     -15.63255                      -8.99020
                      -3.07985                     -18.09432                     -10.56733
                      -3.33430                     -20.49975                     -12.16158
                      -3.50749                     -22.85307                     -13.77321
                      -3.53635                     -25.16039                     -15.40464
                      -3.34841                     -27.42994                     -17.06125
                      -2.86907                     -29.67231                     -18.75169
                      -2.03141                     -31.90041                     -20.48678
                      -0.78837                     -34.12838                     -22.27712
                       0.87257                     -36.36905                     -24.12964
                       2.91232                     -38.62969                     -26.04293
                       5.22080                     -40.90765                     -28.00087
                       6.42339                     -42.04988                     -28.98785
                      -1.39517                      -1.11410                      -0.62264
        </DataArray>
        <DataArray type="Float32" Name="RotationalAcceleration" NumberOfComponents="3" format="ascii">
                       0.00912                      -0.01337                       0.00264
                       0.00180                      -0.01433                       0.00462
                      -0.00817                      -0.01573                       0.00748
                      -0.01992                      -0.01814                       0.01221
                      -0.03246                      -0.02100                       0.01776
                      -0.04498                      -0.02277                       0.02138
                      -0.05698                      -0.02131                       0.01924
                      -0.06830                      -0.01431                       0.00725
                      -0.07910                       0.00042                      -0.01847
                      -0.08987                       0.02457                      -0.06093
                      -0.10124                       0.05903                      -0.12166
                      -0.11380                       0.10352                      -0.20014
                      -0.12769                       0.15626                      -0.29321
                      -0.14245                       0.21363                      -0.39448
                      -0.15701                       0.26987                      -0.49374
                      -0.16935                       0.31670                      -0.57638
                      -0.17603                       0.34304                      -0.62288
                      -0.17742                       0.34952                      -0.63433
                       0.01202                      -0.01285                       0.00160
        </DataArray>
        <DataArray type="Float32" Name="OrientationX" NumberOfComponents="3" format="ascii">
                       0.99246                      -0.07606                       0.09610
                       0.99243                      -0.07736                       0.09536
                       0.99238                      -0.07941                       0.09421
                       0.99383                      -0.07557                       0.08120
                       0.99659                      -0.06366                       0.05250
                       0.99766                      -0.05882                       0.03500
                       0.99836                      -0.05463                       0.01685
                       0.99870                      -0.05089                      -0.00272
                       0.99857                      -0.04811                      -0.02313
                       0.99795                      -0.04690                      -0.04346
                       0.99684                      -0.04693                      -0.06416
                       0.99525                      -0.04832                      -0.08449
                       0.99342                      -0.05181                      -0.10214
                       0.99141                      -0.05583                      -0.11827
                       0.98929                      -0.05862                      -0.13370
                       0.98729                      -0.05891                      -0.14763
                       0.98618                      -0.05695                      -0.15559
                       0.98596                      -0.05541                      -0.15753
                       0.99247                      -0.07562                       0.09634
        </DataArray>
        <DataArray type="Float32" Name="OrientationY" NumberOfComponents="3" format="ascii">
                       0.12103                       0.48512                      -0.86603
                       0.12102                       0.48468                      -0.86628
                       0.12101                       0.48410                      -0.86661
                       0.10777                       0.48444                      -0.86816
                       0.07690                       0.48586                      -0.87065
                       0.05925                       0.48619                      -0.87184
                       0.04135                       0.48646                      -0.87273
                       0.02242                       0.48673                      -0.87327
                       0.00323                       0.48699                      -0.87340
                      -0.01513                       0.48721                      -0.87315
                      -0.03321                       0.48747                      -0.87251
                      -0.05031                       0.48774                      -0.87154
                      -0.06406                       0.48796                      -0.87051
                      -0.07622                       0.48821                      -0.86939
                      -0.08836                       0.48860                      -0.86802
                      -0.10037                       0.48912                      -0.86642
                      -0.10824                       0.48952                      -0.86525
                      -0.11067                       0.48966                      -0.86486
                       0.12104                       0.48528                      -0.86594
        </DataArray>
        <DataArray type="Float32" Name="OrientationZ" NumberOfComponents="3" format="ascii">
                       0.01925                       0.87114                       0.49066
                       0.02080                       0.87126                       0.49038
                       0.02321                       0.87140                       0.49002
                       0.02627                       0.87155                       0.48960
                       0.02992                       0.87171                       0.48910
                       0.03426                       0.87187                       0.48853
                       0.03948                       0.87200                       0.48792
                       0.04576                       0.87207                       0.48724
                       0.05328                       0.87208                       0.48645
                       0.06212                       0.87202                       0.48551
                       0.07222                       0.87188                       0.48437
                       0.08333                       0.87165                       0.48300
                       0.09494                       0.87133                       0.48143
                       0.10627                       0.87094                       0.47977
                       0.11621                       0.87053                       0.47819
                       0.12324                       0.87023                       0.47699
                       0.12544                       0.87013                       0.47659
                       0.12506                       0.87015                       0.47665
                       0.01873                       0.87108                       0.49078
        </DataArray>
      </PointData>
      <Lines>
        <DataArray type="Int32" Name="connectivity" format="ascii">
      0      1
      1      2
      2      3
      3      4
      4      5
      5      6
      6      7
      7      8
      8      9
      9     10
     10     11
     11     12
     12     13
     13     14
     14     15
     15     16
     16     17
     18      0
        </DataArray>
        <DataArray type="Int32" Name="offsets" format="ascii">
      2
      4
      6
      8
     10
     12
     14
     16
     18
     20
     22
     24
     26
     28
     30
     32
     34
     36
        </DataArray>
      </Lines>
    </Piece>
  </PolyData>
</VTKFile>
