<?xml version="1.0"?>
<VTKFile type="PolyData" version="0.1" byte_order="LittleEndian">
  <PolyData>
    <Piece NumberOfPoints="     17" NumberOfVerts="  0" NumberOfLines="      0"
           NumberOfStrips="  0" NumberOfPolys="      0">
      <Points>
        <DataArray type="Float32" NumberOfComponents="3" format="ascii">
                       2.93094                       0.28980                      93.41348
                       3.19493                       0.63552                      97.00488
                       3.46763                       0.98076                     100.59567
                       3.75236                       1.32519                     104.18560
                       4.05188                       1.66862                     107.77442
                       4.36917                       2.01095                     111.36182
                       4.70792                       2.35192                     114.94738
                       5.07280                       2.69117                     118.53052
                       5.46945                       3.02834                     122.11047
                       5.90422                       3.36316                     125.68620
                       6.38360                       3.69551                     129.25644
                       6.91340                       4.02549                     132.81975
                       7.49773                       4.35341                     136.37472
                       8.13764                       4.67969                     139.92029
                       8.82954                       5.00483                     143.45625
                       9.56340                       5.32938                     146.98388
                      10.32063                       5.65375                     150.50666
        </DataArray>
      </Points>
      <PointData>
        <DataArray type="Float32" Name="Force" NumberOfComponents="3" format="ascii">
                     191.86994                      78.10632                     -21.48506
                     632.96283                     239.93223                     -71.10025
                    2444.51648                    -860.87536                    -110.44360
                    4276.37450                   -1687.61965                    -190.42609
                    2616.79399                    -950.62912                    -134.08881
                    5587.50465                   -1770.37680                    -337.27656
                    6677.82838                   -1818.90791                    -477.31892
                    7417.31721                   -1758.22152                    -619.49862
                    7941.47661                   -1669.07612                    -765.25549
                    9964.22507                   -1876.64245                   -1101.90655
                   11467.40884                   -1966.40930                   -1452.16837
                   13072.60237                   -2105.48569                   -1878.23880
                    7513.27825                   -1160.02170                   -1179.32144
                   15042.53709                   -2225.12081                   -2561.86610
                   14565.29271                   -2044.64275                   -2695.70053
                   20766.46403                   -2687.84860                   -4100.46536
                    8365.57579                    -906.40531                   -1706.65805
        </DataArray>
        <DataArray type="Float32" Name="Moment" NumberOfComponents="3" format="ascii">
                     -19.97421                      22.77066                       4.22632
                     156.47367                     437.07762                      13.90613
                    1061.20091                    2556.46371                      80.60630
                    1416.04978                    3553.31970                     674.73078
                     116.68705                     329.31757                     575.30546
                    -895.52126                   -2619.25972                    1194.42070
                    -568.13549                   -1757.03862                     633.11316
                    -191.00047                    -151.34037                    -189.64443
                     -16.87751                     709.81698                    -467.77571
                     163.27935                    1759.14714                    -435.60033
                     617.06908                    4574.82330                    -622.05654
                    1203.69152                    8359.83237                    -588.41581
                     -27.84772                    -462.97797                     367.37228
                   -1245.46812                  -10110.89463                    1832.19395
                   -1054.78023                   -9431.11788                    1762.11757
                    -126.67283                   -1315.52066                    1032.94866
                    -127.77672                      12.75890                     100.61177
        </DataArray>
      </PointData>
    </Piece>
  </PolyData>
</VTKFile>
