<?xml version="1.0"?>
<VTKFile type="PolyData" version="0.1" byte_order="LittleEndian">
  <PolyData>
    <Piece NumberOfPoints="     17" NumberOfVerts="  0" NumberOfLines="      0"
           NumberOfStrips="  0" NumberOfPolys="      0">
      <Points>
        <DataArray type="Float32" NumberOfComponents="3" format="ascii">
                       2.85016                      -0.60641                      93.37606
                       3.10222                      -1.23048                      96.93054
                       3.36170                      -1.85519                     100.48438
                       3.63144                      -2.48090                     104.03728
                       3.91378                      -3.10778                     107.58898
                       4.21131                      -3.73597                     111.13922
                       4.52735                      -4.36570                     114.68757
                       4.86611                      -4.99729                     118.23349
                       5.23279                      -5.63105                     121.77623
                       5.63323                      -6.26717                     125.31488
                       6.07349                      -6.90566                     128.84836
                       6.55907                      -7.54624                     132.37550
                       7.09392                      -8.18846                     135.89520
                       7.67926                      -8.83171                     139.40670
                       8.31206                      -9.47537                     142.90992
                       8.98342                     -10.11894                     146.40604
                       9.67659                     -10.76226                     149.89800
        </DataArray>
      </Points>
      <PointData>
        <DataArray type="Float32" Name="Force" NumberOfComponents="3" format="ascii">
                     180.67028                      78.70499                       1.11276
                     597.34499                     244.43910                      -0.63427
                    2239.41547                    -801.64388                    -310.44826
                    4020.38944                   -1616.58716                    -600.65200
                    2493.71713                    -920.36848                    -366.09254
                    5369.64135                   -1721.85140                    -764.54564
                    6469.88365                   -1768.05954                    -906.18804
                    7194.46698                   -1689.72044                   -1014.39116
                    7745.05841                   -1584.77955                   -1122.17428
                    9804.01692                   -1753.61452                   -1483.44448
                   11358.46460                   -1790.10926                   -1824.91139
                   13020.56559                   -1854.21775                   -2247.84918
                    7508.38656                    -990.47143                   -1369.36730
                   15159.33611                   -1833.94557                   -2913.77317
                   14934.03111                   -1610.63563                   -3028.97276
                   21572.39303                   -1985.12548                   -4541.44166
                    8832.88848                    -590.69515                   -1857.74570
        </DataArray>
        <DataArray type="Float32" Name="Moment" NumberOfComponents="3" format="ascii">
                     -18.95298                      20.26795                       9.49594
                     153.25549                     379.21309                     129.79085
                    1067.26344                    2222.91892                     818.15982
                    1462.33573                    3075.55698                    1629.92283
                     120.95299                     153.03842                     653.36266
                    -937.39011                   -2711.22310                     488.08035
                    -606.15085                   -1798.58212                     144.71088
                    -195.05449                     -70.84985                    -271.85711
                      -0.74665                     839.32948                    -339.19484
                     199.65357                    1841.02947                     -38.77526
                     709.12431                    4574.76166                     505.29213
                    1372.16826                    8210.81087                    1540.63121
                     -58.55986                    -523.87041                     143.41018
                   -1523.38113                  -10135.04732                   -1141.71029
                   -1325.15664                   -9646.15777                   -1062.01606
                    -261.63088                   -1425.40261                     330.01619
                    -152.04288                     163.05747                     -18.65561
        </DataArray>
      </PointData>
    </Piece>
  </PolyData>
</VTKFile>
