<?xml version="1.0"?>
<VTKFile type="PolyData" version="0.1" byte_order="LittleEndian">
  <PolyData>
    <Piece NumberOfPoints="     19" NumberOfVerts="  0" NumberOfLines="     18"
           NumberOfStrips="  0" NumberOfPolys="      0">
      <Points>
        <DataArray type="Float32" NumberOfComponents="3" format="ascii">
                       3.26053                       2.79224                      91.87585
                       3.34682                       5.88045                      93.75811
                       3.44035                       8.96946                      95.63870
                       3.54388                      12.05939                      97.51725
                       3.65964                      15.15032                      99.39343
                       3.78993                      18.24229                     101.26694
                       3.93754                      21.33524                     103.13755
                       4.10587                      24.42899                     105.00507
                       4.29899                      27.52332                     106.86920
                       4.52140                      30.61798                     108.72951
                       4.77763                      33.71265                     110.58542
                       5.07169                      36.80703                     112.43620
                       5.40625                      39.90076                     114.28116
                       5.78176                      42.99356                     116.11983
                       6.19523                      46.08524                     117.95228
                       6.63900                      49.17589                     119.77944
                       7.09915                      52.26596                     121.60358
                       7.33115                      53.81093                     122.51527
                       3.21880                       1.24833                      90.93435
        </DataArray>
      </Points>
      <PointData>
        <DataArray type="Float32" Name="TranslationalVelocity" NumberOfComponents="3" format="ascii">
                       0.24392                      -1.64498                       2.62184
                       0.60935                      -3.38780                       5.46450
                       0.97640                      -5.12154                       8.29403
                       1.34531                      -6.84412                      11.10707
                       1.71591                      -8.55430                      13.90165
                       2.08744                     -10.25149                      16.67678
                       2.45867                     -11.93570                      19.43223
                       2.82794                     -13.60737                      22.16825
                       3.19311                     -15.26713                      24.88553
                       3.55169                     -16.91567                      27.58505
                       3.90101                     -18.55362                      30.26810
                       4.23850                     -20.18146                      32.93617
                       4.56199                     -21.79962                      35.59100
                       4.87021                     -23.40859                      38.23455
                       5.16318                     -25.00926                      40.86911
                       5.44288                     -26.60323                      43.49737
                       5.71387                     -28.19332                      46.12256
                       5.84794                     -28.98785                      47.43483
                       0.06155                      -0.77162                       1.19774
        </DataArray>
        <DataArray type="Float32" Name="RotationalVelocity" NumberOfComponents="3" format="ascii">
                       0.92238                      -0.00064                      -0.11851
                       0.91858                      -0.00037                      -0.11878
                       0.91341                      -0.00003                      -0.11911
                       0.90739                       0.00035                      -0.11948
                       0.90090                       0.00067                      -0.11971
                       0.89423                       0.00083                      -0.11970
                       0.88762                       0.00080                      -0.11936
                       0.88122                       0.00049                      -0.11858
                       0.87514                      -0.00016                      -0.11725
                       0.86948                      -0.00119                      -0.11531
                       0.86431                      -0.00262                      -0.11274
                       0.85970                      -0.00441                      -0.10961
                       0.85571                      -0.00647                      -0.10607
                       0.85241                      -0.00864                      -0.10235
                       0.84990                      -0.01072                      -0.09885
                       0.84832                      -0.01236                      -0.09608
                       0.84783                      -0.01317                      -0.09473
                       0.84788                      -0.01331                      -0.09451
                       0.92387                      -0.00075                      -0.11839
        </DataArray>
        <DataArray type="Float32" Name="TranslationalAcceleration" NumberOfComponents="3" format="ascii">
                      -1.44933                      -2.23293                      -1.45095
                      -1.66750                      -4.84594                      -3.13158
                      -1.91732                      -7.44430                      -4.77842
                      -2.21266                     -10.02379                      -6.38366
                      -2.56481                     -12.58178                      -7.94228
                      -2.97186                     -15.11767                      -9.45059
                      -3.41174                     -17.63254                     -10.90659
                      -3.83851                     -20.12901                     -12.31044
                      -4.18200                     -22.61120                     -13.66528
                      -4.35112                     -25.08482                     -14.97846
                      -4.24074                     -27.55739                     -16.26252
                      -3.74201                     -30.03844                     -17.53542
                      -2.75621                     -32.53933                     -18.81929
                      -1.21195                     -35.07206                     -20.13708
                       0.91426                     -37.64594                     -21.50794
                       3.57402                     -40.26240                     -22.94074
                       6.61970                     -42.90958                     -24.42544
                       8.21347                     -44.23838                     -25.17803
                      -1.34666                      -0.92337                      -0.60341
        </DataArray>
        <DataArray type="Float32" Name="RotationalAcceleration" NumberOfComponents="3" format="ascii">
                      -0.02704                       0.00830                       0.00401
                      -0.02224                       0.00425                       0.01043
                      -0.01581                      -0.00163                       0.01979
                      -0.00855                      -0.00986                       0.03296
                      -0.00047                      -0.01911                       0.04778
                       0.00843                      -0.02686                       0.06009
                       0.01794                      -0.02979                       0.06449
                       0.02774                      -0.02429                       0.05505
                       0.03717                      -0.00696                       0.02624
                       0.04528                       0.02487                      -0.02630
                       0.05095                       0.07265                      -0.10486
                       0.05313                       0.13607                      -0.20891
                       0.05131                       0.21258                      -0.33423
                       0.04568                       0.29687                      -0.47215
                       0.03711                       0.38041                      -0.60873
                       0.02754                       0.45095                      -0.72394
                       0.02060                       0.49200                      -0.79093
                       0.01836                       0.50281                      -0.80855
                      -0.02888                       0.01005                       0.00121
        </DataArray>
        <DataArray type="Float32" Name="OrientationX" NumberOfComponents="3" format="ascii">
                       0.99210                      -0.08375                       0.09336
                       0.99207                      -0.08503                       0.09258
                       0.99201                      -0.08703                       0.09136
                       0.99347                      -0.08276                       0.07849
                       0.99629                      -0.06990                       0.05020
                       0.99738                      -0.06447                       0.03288
                       0.99811                      -0.05966                       0.01489
                       0.99846                      -0.05523                      -0.00453
                       0.99835                      -0.05171                      -0.02479
                       0.99775                      -0.04972                      -0.04501
                       0.99664                      -0.04893                      -0.06562
                       0.99508                      -0.04948                      -0.08588
                       0.99326                      -0.05218                      -0.10352
                       0.99127                      -0.05545                      -0.11965
                       0.98917                      -0.05752                      -0.13505
                       0.98720                      -0.05719                      -0.14888
                       0.98612                      -0.05488                      -0.15673
                       0.98590                      -0.05326                      -0.15861
                       0.99212                      -0.08332                       0.09362
        </DataArray>
        <DataArray type="Float32" Name="OrientationY" NumberOfComponents="3" format="ascii">
                       0.12328                       0.51424                      -0.84874
                       0.12326                       0.51369                      -0.84907
                       0.12324                       0.51295                      -0.84952
                       0.11000                       0.51322                      -0.85118
                       0.07913                       0.51465                      -0.85374
                       0.06147                       0.51488                      -0.85506
                       0.04356                       0.51504                      -0.85606
                       0.02462                       0.51521                      -0.85671
                       0.00542                       0.51537                      -0.85695
                      -0.01296                       0.51548                      -0.85680
                      -0.03106                       0.51562                      -0.85625
                      -0.04818                       0.51578                      -0.85536
                      -0.06195                       0.51588                      -0.85442
                      -0.07413                       0.51604                      -0.85335
                      -0.08630                       0.51633                      -0.85203
                      -0.09832                       0.51677                      -0.85046
                      -0.10620                       0.51714                      -0.84929
                      -0.10862                       0.51727                      -0.84890
                       0.12328                       0.51445                      -0.84861
        </DataArray>
        <DataArray type="Float32" Name="OrientationZ" NumberOfComponents="3" format="ascii">
                       0.02307                       0.85355                       0.52050
                       0.02464                       0.85375                       0.52010
                       0.02707                       0.85399                       0.51958
                       0.03016                       0.85426                       0.51897
                       0.03384                       0.85455                       0.51827
                       0.03819                       0.85483                       0.51749
                       0.04340                       0.85509                       0.51667
                       0.04965                       0.85528                       0.51578
                       0.05709                       0.85541                       0.51480
                       0.06581                       0.85546                       0.51368
                       0.07573                       0.85542                       0.51237
                       0.08662                       0.85529                       0.51086
                       0.09799                       0.85507                       0.50917
                       0.10906                       0.85477                       0.50742
                       0.11874                       0.85445                       0.50577
                       0.12557                       0.85421                       0.50454
                       0.12766                       0.85414                       0.50413
                       0.12726                       0.85416                       0.50420
                       0.02254                       0.85346                       0.52067
        </DataArray>
      </PointData>
      <Lines>
        <DataArray type="Int32" Name="connectivity" format="ascii">
      0      1
      1      2
      2      3
      3      4
      4      5
      5      6
      6      7
      7      8
      8      9
      9     10
     10     11
     11     12
     12     13
     13     14
     14     15
     15     16
     16     17
     18      0
        </DataArray>
        <DataArray type="Int32" Name="offsets" format="ascii">
      2
      4
      6
      8
     10
     12
     14
     16
     18
     20
     22
     24
     26
     28
     30
     32
     34
     36
        </DataArray>
      </Lines>
    </Piece>
  </PolyData>
</VTKFile>
