<?xml version="1.0"?>
<VTKFile type="PolyData" version="0.1" byte_order="LittleEndian">
  <PolyData>
    <Piece NumberOfPoints="     19" NumberOfVerts="  0" NumberOfLines="     18"
           NumberOfStrips="  0" NumberOfPolys="      0">
      <Points>
        <DataArray type="Float32" NumberOfComponents="3" format="ascii">
                       2.92575                       0.25075                      93.41659
                       3.18965                       0.55446                      97.01180
                       3.46222                       0.85783                     100.60638
                       3.74676                       1.16056                     104.20008
                       4.04600                       1.46250                     107.79266
                       4.36289                       1.76354                     111.38379
                       4.70111                       2.06344                     114.97307
                       5.06531                       2.36183                     118.55992
                       5.46112                       2.65834                     122.14356
                       5.89486                       2.95269                     125.72297
                       6.37302                       3.24475                     129.29689
                       6.90143                       3.53463                     132.86389
                       7.48421                       3.82261                     136.42258
                       8.12241                       4.10911                     139.97189
                       8.81249                       4.39461                     143.51163
                       9.54446                       4.67963                     147.04306
                      10.29980                       4.96455                     150.56965
                      10.68040                       5.10701                     152.33232
                       2.79550                       0.09886                      91.61887
        </DataArray>
      </Points>
      <PointData>
        <DataArray type="Float32" Name="TranslationalVelocity" NumberOfComponents="3" format="ascii">
                      -0.40898                      -3.12598                       0.23310
                      -0.41712                      -6.49024                       0.51790
                      -0.42902                      -9.84330                       0.80179
                      -0.44658                     -13.18224                       1.08446
                      -0.47174                     -16.50529                       1.36585
                      -0.50639                     -19.81164                       1.64609
                      -0.55223                     -23.10114                       1.92528
                      -0.61061                     -26.37411                       2.20352
                      -0.68258                     -29.63118                       2.48099
                      -0.76876                     -32.87307                       2.75806
                      -0.86926                     -36.10049                       3.03529
                      -0.98360                     -39.31408                       3.31341
                      -1.11059                     -42.51443                       3.59319
                      -1.24826                     -45.70228                       3.87522
                      -1.39371                     -48.87892                       4.15968
                      -1.54302                     -52.04665                       4.44613
                      -1.69111                     -55.20940                       4.73316
                      -1.76413                     -56.79015                       4.87658
                      -0.40561                      -1.44149                       0.09053
        </DataArray>
        <DataArray type="Float32" Name="RotationalVelocity" NumberOfComponents="3" format="ascii">
                       0.92917                      -0.01102                      -0.10821
                       0.92649                      -0.01177                      -0.10795
                       0.92279                      -0.01304                      -0.10758
                       0.91843                      -0.01482                      -0.10711
                       0.91373                      -0.01714                      -0.10658
                       0.90891                      -0.01998                      -0.10600
                       0.90414                      -0.02322                      -0.10538
                       0.89954                      -0.02680                      -0.10475
                       0.89519                      -0.03062                      -0.10411
                       0.89116                      -0.03455                      -0.10349
                       0.88749                      -0.03846                      -0.10290
                       0.88421                      -0.04216                      -0.10235
                       0.88136                      -0.04546                      -0.10186
                       0.87898                      -0.04811                      -0.10147
                       0.87713                      -0.04984                      -0.10119
                       0.87593                      -0.05033                      -0.10106
                       0.87551                      -0.04921                      -0.10113
                       0.87552                      -0.04819                      -0.10121
                       0.93021                      -0.01078                      -0.10830
        </DataArray>
        <DataArray type="Float32" Name="TranslationalAcceleration" NumberOfComponents="3" format="ascii">
                       1.04444                      -0.39442                      -2.61836
                       0.84939                      -0.87059                      -5.73455
                       0.60771                      -1.36814                      -8.82443
                       0.30115                      -1.89076                     -11.88064
                      -0.08490                      -2.44081                     -14.89814
                      -0.55705                      -3.02085                     -17.87411
                      -1.11124                      -3.63342                     -20.80767
                      -1.73113                      -4.28124                     -23.69986
                      -2.38783                      -4.96741                     -26.55373
                      -3.04125                      -5.69498                     -29.37455
                      -3.64290                      -6.46635                     -32.17018
                      -4.14018                      -7.28264                     -34.95126
                      -4.48217                      -8.14321                     -37.73095
                      -4.62688                      -9.04524                     -40.52378
                      -4.54973                      -9.98319                     -43.34319
                      -4.25357                     -10.94810                     -46.19748
                      -3.77996                     -11.92738                     -49.08485
                      -3.50679                     -12.41882                     -50.53578
                       1.13265                      -0.16104                      -1.05477
        </DataArray>
        <DataArray type="Float32" Name="RotationalAcceleration" NumberOfComponents="3" format="ascii">
                       0.05683                       0.05372                       0.00667
                       0.06262                       0.04282                       0.00718
                       0.07015                       0.02653                       0.00801
                       0.07852                       0.00517                       0.00922
                       0.08766                      -0.01944                       0.01064
                       0.09759                      -0.04458                       0.01205
                       0.10820                      -0.06698                       0.01318
                       0.11957                      -0.08308                       0.01372
                       0.13164                      -0.08945                       0.01339
                       0.14419                      -0.08325                       0.01197
                       0.15679                      -0.06259                       0.00932
                       0.16890                      -0.02698                       0.00544
                       0.17993                       0.02226                       0.00049
                       0.18932                       0.08162                      -0.00520
                       0.19647                       0.14498                      -0.01107
                       0.20084                       0.20320                      -0.01630
                       0.20212                       0.24371                      -0.01981
                       0.20197                       0.25774                      -0.02099
                       0.05453                       0.05788                       0.00648
        </DataArray>
        <DataArray type="Float32" Name="OrientationX" NumberOfComponents="3" format="ascii">
                       0.97279                      -0.22592                      -0.05140
                       0.97265                      -0.22608                      -0.05322
                       0.97244                      -0.22632                      -0.05609
                       0.97499                      -0.21369                      -0.06104
                       0.98058                      -0.18379                      -0.06845
                       0.98309                      -0.16689                      -0.07543
                       0.98518                      -0.14982                      -0.08357
                       0.98688                      -0.13180                      -0.09322
                       0.98801                      -0.11363                      -0.10454
                       0.98838                      -0.09638                      -0.11756
                       0.98802                      -0.07950                      -0.13226
                       0.98690                      -0.06367                      -0.14823
                       0.98502                      -0.05121                      -0.16463
                       0.98273                      -0.04027                      -0.18059
                       0.98042                      -0.02918                      -0.19475
                       0.97857                      -0.01788                      -0.20515
                       0.97788                      -0.01019                      -0.20892
                       0.97794                      -0.00771                      -0.20876
                       0.97283                      -0.22587                      -0.05079
        </DataArray>
        <DataArray type="Float32" Name="OrientationY" NumberOfComponents="3" format="ascii">
                       0.22022                       0.97052                      -0.09796
                       0.22019                       0.97049                      -0.09834
                       0.22015                       0.97044                      -0.09886
                       0.20714                       0.97332                      -0.09869
                       0.17678                       0.97942                      -0.09734
                       0.15937                       0.98247                      -0.09674
                       0.14169                       0.98525                      -0.09598
                       0.12296                       0.98786                      -0.09495
                       0.10397                       0.99016                      -0.09367
                       0.08577                       0.99204                      -0.09221
                       0.06784                       0.99358                      -0.09048
                       0.05088                       0.99477                      -0.08856
                       0.03724                       0.99553                      -0.08682
                       0.02519                       0.99606                      -0.08507
                       0.01316                       0.99646                      -0.08305
                       0.00127                       0.99673                      -0.08080
                      -0.00653                       0.99684                      -0.07920
                      -0.00893                       0.99686                      -0.07868
                       0.22023                       0.97053                      -0.09781
        </DataArray>
        <DataArray type="Float32" Name="OrientationZ" NumberOfComponents="3" format="ascii">
                       0.07201                       0.08397                       0.99386
                       0.07388                       0.08393                       0.99373
                       0.07681                       0.08379                       0.99352
                       0.08050                       0.08358                       0.99324
                       0.08493                       0.08335                       0.99289
                       0.09025                       0.08308                       0.99245
                       0.09672                       0.08272                       0.99187
                       0.10460                       0.08225                       0.99111
                       0.11416                       0.08168                       0.99010
                       0.12551                       0.08105                       0.98878
                       0.13860                       0.08042                       0.98708
                       0.15310                       0.07986                       0.98498
                       0.16834                       0.07939                       0.98253
                       0.18330                       0.07905                       0.97987
                       0.19649                       0.07886                       0.97733
                       0.20593                       0.07881                       0.97539
                       0.20907                       0.07881                       0.97472
                       0.20871                       0.07881                       0.97480
                       0.07139                       0.08396                       0.99391
        </DataArray>
      </PointData>
      <Lines>
        <DataArray type="Int32" Name="connectivity" format="ascii">
      0      1
      1      2
      2      3
      3      4
      4      5
      5      6
      6      7
      7      8
      8      9
      9     10
     10     11
     11     12
     12     13
     13     14
     14     15
     15     16
     16     17
     18      0
        </DataArray>
        <DataArray type="Int32" Name="offsets" format="ascii">
      2
      4
      6
      8
     10
     12
     14
     16
     18
     20
     22
     24
     26
     28
     30
     32
     34
     36
        </DataArray>
      </Lines>
    </Piece>
  </PolyData>
</VTKFile>
