<?xml version="1.0"?>
<VTKFile type="PolyData" version="0.1" byte_order="LittleEndian">
  <PolyData>
    <Piece NumberOfPoints="     17" NumberOfVerts="  0" NumberOfLines="      0"
           NumberOfStrips="  0" NumberOfPolys="      0">
      <Points>
        <DataArray type="Float32" NumberOfComponents="3" format="ascii">
                       3.27829                      -1.77258                      92.92677
                       3.50269                      -3.69445                      95.98347
                       3.73470                      -5.61871                      99.03809
                       3.97732                      -7.54615                     102.08989
                       4.23311                      -9.47719                     105.13832
                       4.50483                     -11.41209                     108.18293
                       4.79575                     -13.35101                     111.22320
                       5.10981                     -15.29411                     114.25847
                       5.45169                     -17.24145                     117.28802
                       5.82651                     -19.19289                     120.31100
                       6.23944                     -21.14807                     123.32658
                       6.69500                     -23.10638                     126.33398
                       7.19623                     -25.06698                     129.33260
                       7.74358                     -27.02895                     132.32228
                       8.33366                     -28.99143                     135.30353
                       8.95771                     -30.95376                     138.27801
                       9.59994                     -32.91584                     141.24884
        </DataArray>
      </Points>
      <PointData>
        <DataArray type="Float32" Name="Force" NumberOfComponents="3" format="ascii">
                     169.96958                      69.55428                      31.32811
                     555.78138                     217.19033                      94.32413
                    1897.96614                    -610.74674                    -534.38837
                    3146.39295                   -1039.28430                    -914.57049
                    1879.86703                    -543.33978                    -505.34041
                    3967.20665                    -977.75281                    -980.35764
                    4637.00478                    -937.95777                   -1050.80594
                    4915.80664                    -786.82690                   -1028.17908
                    5065.04459                    -636.11256                   -1003.69102
                    6167.28769                    -572.35073                   -1170.82386
                    6724.79635                    -421.34979                   -1246.15140
                    7359.32289                    -289.50276                   -1373.31288
                    4032.54434                     -84.16025                    -754.89306
                    7619.78889                     -11.26680                   -1427.76908
                    6915.67829                     129.35298                   -1301.40545
                    9788.52883                     344.28866                   -1847.00785
                    5005.01084                     180.97029                    -960.72850
        </DataArray>
        <DataArray type="Float32" Name="Moment" NumberOfComponents="3" format="ascii">
                     -17.41472                      15.09220                      15.58622
                     147.81873                     255.05592                     227.36269
                     976.64962                    1451.16204                    1312.47403
                    1040.96317                    1848.73228                    1722.23049
                      61.28218                      69.86553                     239.75073
                    -764.28601                   -1680.85009                   -1014.80601
                    -560.21818                    -814.59670                   -1256.83154
                    -318.74620                     663.80407                   -1485.07846
                    -218.32315                    1350.86721                   -1445.34961
                    -189.33002                    2014.96642                   -1415.29110
                      -8.08355                    3436.88727                    -765.41864
                     287.58197                    4870.94303                     794.47910
                    -192.93079                     212.30605                    -963.33474
                    -900.06915                   -3583.71736                   -4450.41639
                    -742.10239                   -3054.74463                   -4009.25098
                    -433.26664                    1105.50388                   -1936.40315
                     -77.15696                    1002.30612                    -149.26523
        </DataArray>
      </PointData>
    </Piece>
  </PolyData>
</VTKFile>
