<?xml version="1.0"?>
<VTKFile type="PolyData" version="0.1" byte_order="LittleEndian">
  <PolyData>
    <Piece NumberOfPoints="     19" NumberOfVerts="  0" NumberOfLines="     18"
           NumberOfStrips="  0" NumberOfPolys="      0">
      <Points>
        <DataArray type="Float32" NumberOfComponents="3" format="ascii">
                       2.59086                      -1.25257                      87.11094
                       2.02540                      -2.60187                      83.80232
                       1.47048                      -3.94941                      80.49120
                       0.93020                      -5.29451                      77.17666
                       0.40804                      -6.63675                      73.85808
                      -0.09238                      -7.97593                      70.53492
                      -0.56686                      -9.31178                      67.20663
                      -1.01030                     -10.64398                      63.87261
                      -1.41678                     -11.97220                      60.53231
                      -1.77979                     -13.29621                      57.18536
                      -2.09278                     -14.61587                      53.83167
                      -2.35000                     -15.93120                      50.47154
                      -2.54762                     -17.24239                      47.10574
                      -2.68516                     -18.54976                      43.73542
                      -2.76713                     -19.85385                      40.36192
                      -2.80507                     -21.15558                      36.98661
                      -2.81978                     -22.45615                      33.61058
                      -2.82458                     -23.10631                      31.92250
                       2.87564                      -0.57759                      88.76477
        </DataArray>
      </Points>
      <PointData>
        <DataArray type="Float32" Name="TranslationalVelocity" NumberOfComponents="3" format="ascii">
                       0.14769                       2.80435                      -1.05668
                      -0.04809                       5.87899                      -2.27710
                      -0.24491                       8.94404                      -3.49152
                      -0.44363                      11.99712                      -4.69813
                      -0.64539                      15.03676                      -5.89582
                      -0.85182                      18.06217                      -7.08394
                      -1.06507                      21.07306                      -8.26202
                      -1.28780                      24.06945                      -9.42972
                      -1.52322                      27.05147                     -10.58688
                      -1.77493                      30.01925                     -11.73365
                      -2.04663                      32.97278                     -12.87057
                      -2.34169                      35.91196                     -13.99860
                      -2.66267                      38.83665                     -15.11913
                      -3.01051                      41.74705                     -16.23384
                      -3.38383                      44.64419                     -17.34452
                      -3.77789                      47.53060                     -18.45290
                      -4.18349                      50.41107                     -19.56033
                      -4.38772                      51.85058                     -20.11393
                       0.24543                       1.26500                      -0.44525
        </DataArray>
        <DataArray type="Float32" Name="RotationalVelocity" NumberOfComponents="3" format="ascii">
                       0.91127                       0.01284                      -0.11334
                       0.90861                       0.01319                      -0.11302
                       0.90494                       0.01385                      -0.11265
                       0.90064                       0.01478                      -0.11229
                       0.89597                       0.01609                      -0.11201
                       0.89113                       0.01791                      -0.11192
                       0.88624                       0.02033                      -0.11206
                       0.88140                       0.02352                      -0.11253
                       0.87668                       0.02758                      -0.11337
                       0.87216                       0.03257                      -0.11462
                       0.86790                       0.03846                      -0.11629
                       0.86397                       0.04509                      -0.11832
                       0.86046                       0.05214                      -0.12059
                       0.85746                       0.05913                      -0.12292
                       0.85512                       0.06533                      -0.12505
                       0.85359                       0.06979                      -0.12661
                       0.85308                       0.07125                      -0.12712
                       0.85310                       0.07105                      -0.12704
                       0.91229                       0.01276                      -0.11348
        </DataArray>
        <DataArray type="Float32" Name="TranslationalAcceleration" NumberOfComponents="3" format="ascii">
                       0.16151                       0.81036                       2.65829
                       0.42462                       1.71775                       5.56218
                       0.56278                       2.67241                       8.44476
                       0.52930                       3.68263                      11.30347
                       0.28719                       4.75337                      14.13686
                      -0.18499                       5.88888                      16.94196
                      -0.88989                       7.09203                      19.71355
                      -1.80920                       8.36484                      22.44363
                      -2.90307                       9.70950                      25.12140
                      -4.11172                      11.12829                      27.73462
                      -5.35913                      12.62322                      30.27175
                      -6.55867                      14.19575                      32.72453
                      -7.62109                      15.84629                      35.09052
                      -8.46475                      17.57338                      37.37472
                      -9.02817                      19.37186                      39.58995
                      -9.28502                      21.22990                      41.75550
                      -9.26165                      23.12592                      43.89434
                      -9.18707                      24.08003                      44.96009
                       0.00493                       0.36708                       1.20154
        </DataArray>
        <DataArray type="Float32" Name="RotationalAcceleration" NumberOfComponents="3" format="ascii">
                      -0.07609                       0.00485                      -0.00310
                      -0.06321                       0.02953                      -0.01541
                      -0.04681                       0.06666                      -0.03341
                      -0.02885                       0.11486                      -0.05620
                      -0.00946                       0.17063                      -0.08233
                       0.01131                       0.22945                      -0.10994
                       0.03324                       0.28612                      -0.13688
                       0.05665                       0.33498                      -0.16088
                       0.08171                       0.37056                      -0.17974
                       0.10831                       0.38812                      -0.19152
                       0.13599                       0.38422                      -0.19472
                       0.16393                       0.35724                      -0.18854
                       0.19101                       0.30798                      -0.17311
                       0.21590                       0.24013                      -0.14971
                       0.23690                       0.16083                      -0.12096
                       0.25199                       0.08123                      -0.09107
                       0.25903                       0.01707                      -0.06609
                       0.26028                      -0.00888                      -0.05571
                      -0.08128                      -0.00435                       0.00155
        </DataArray>
        <DataArray type="Float32" Name="OrientationX" NumberOfComponents="3" format="ascii">
                       0.94928                       0.19800                      -0.24427
                       0.94965                       0.19888                      -0.24211
                       0.95021                       0.20026                      -0.23873
                       0.95446                       0.18993                      -0.23008
                       0.96286                       0.16378                      -0.21466
                       0.96770                       0.15008                      -0.20255
                       0.97241                       0.13661                      -0.18912
                       0.97710                       0.12270                      -0.17385
                       0.98158                       0.10915                      -0.15682
                       0.98563                       0.09698                      -0.13832
                       0.98928                       0.08565                      -0.11829
                       0.99238                       0.07564                      -0.09731
                       0.99465                       0.06893                      -0.07694
                       0.99632                       0.06345                      -0.05760
                       0.99755                       0.05716                      -0.04022
                       0.99842                       0.04941                      -0.02683
                       0.99885                       0.04298                      -0.02143
                       0.99896                       0.04041                      -0.02126
                       0.94915                       0.19770                      -0.24500
        </DataArray>
        <DataArray type="Float32" Name="OrientationY" NumberOfComponents="3" format="ascii">
                       0.27218                      -0.90639                       0.32306
                       0.27220                      -0.90635                       0.32316
                       0.27222                      -0.90629                       0.32330
                       0.25957                      -0.90882                       0.32659
                       0.22989                      -0.91423                       0.33366
                       0.21286                      -0.91693                       0.33753
                       0.19552                      -0.91942                       0.34122
                       0.17711                      -0.92180                       0.34483
                       0.15837                      -0.92396                       0.34817
                       0.14036                      -0.92578                       0.35104
                       0.12255                      -0.92737                       0.35350
                       0.10565                      -0.92869                       0.35548
                       0.09202                      -0.92964                       0.35680
                       0.07993                      -0.93040                       0.35771
                       0.06781                      -0.93111                       0.35838
                       0.05576                      -0.93174                       0.35883
                       0.04781                      -0.93210                       0.35903
                       0.04535                      -0.93221                       0.35908
                       0.27218                      -0.90641                       0.32302
        </DataArray>
        <DataArray type="Float32" Name="OrientationZ" NumberOfComponents="3" format="ascii">
                      -0.15744                      -0.37316                      -0.91431
                      -0.15517                      -0.37279                      -0.91485
                      -0.15161                      -0.37219                      -0.91569
                      -0.14708                      -0.37144                      -0.91674
                      -0.14160                      -0.37062                      -0.91793
                      -0.13507                      -0.36974                      -0.91926
                      -0.12727                      -0.36878                      -0.92076
                      -0.11794                      -0.36772                      -0.92243
                      -0.10689                      -0.36659                      -0.92422
                      -0.09401                      -0.36541                      -0.92609
                      -0.07942                      -0.36421                      -0.92792
                      -0.06349                      -0.36305                      -0.92960
                      -0.04693                      -0.36197                      -0.93101
                      -0.03090                      -0.36100                      -0.93205
                      -0.01697                      -0.36023                      -0.93271
                      -0.00727                      -0.35976                      -0.93302
                      -0.00454                      -0.35964                      -0.93308
                      -0.00530                      -0.35967                      -0.93307
                      -0.15820                      -0.37328                      -0.91413
        </DataArray>
      </PointData>
      <Lines>
        <DataArray type="Int32" Name="connectivity" format="ascii">
      0      1
      1      2
      2      3
      3      4
      4      5
      5      6
      6      7
      7      8
      8      9
      9     10
     10     11
     11     12
     12     13
     13     14
     14     15
     15     16
     16     17
     18      0
        </DataArray>
        <DataArray type="Int32" Name="offsets" format="ascii">
      2
      4
      6
      8
     10
     12
     14
     16
     18
     20
     22
     24
     26
     28
     30
     32
     34
     36
        </DataArray>
      </Lines>
    </Piece>
  </PolyData>
</VTKFile>
