<?xml version="1.0"?>
<VTKFile type="PolyData" version="0.1" byte_order="LittleEndian">
  <PolyData>
    <Piece NumberOfPoints="     17" NumberOfVerts="  0" NumberOfLines="      0"
           NumberOfStrips="  0" NumberOfPolys="      0">
      <Points>
        <DataArray type="Float32" NumberOfComponents="3" format="ascii">
                       3.23834                      -0.42662                      93.38741
                       3.51264                      -0.89236                      96.96446
                       3.78837                      -1.35852                     100.54133
                       4.06612                      -1.82525                     104.11797
                       4.34636                      -2.29264                     107.69434
                       4.62956                      -2.76071                     111.27038
                       4.91618                      -3.22950                     114.84606
                       5.20669                      -3.69900                     118.42132
                       5.50159                      -4.16921                     121.99614
                       5.80137                      -4.64009                     125.57046
                       6.10645                      -5.11159                     129.14425
                       6.41713                      -5.58363                     132.71748
                       6.73351                      -6.05612                     136.29016
                       7.05536                      -6.52895                     139.86231
                       7.38198                      -7.00203                     143.43398
                       7.71211                      -7.47524                     147.00532
                       8.04368                      -7.94851                     150.57652
        </DataArray>
      </Points>
      <PointData>
        <DataArray type="Float32" Name="Force" NumberOfComponents="3" format="ascii">
                     174.04580                      76.97783                      -3.30869
                     563.93889                     243.53847                     -11.76454
                    2012.83338                    -721.20740                    -250.08853
                    3364.66884                   -1243.77852                    -425.00019
                    2035.78008                    -666.80215                    -247.28028
                    4367.73791                   -1243.29990                    -509.49744
                    5205.97793                   -1258.85083                    -583.74749
                    5640.66357                   -1143.19185                    -610.77189
                    5911.44150                   -1021.35820                    -625.15160
                    7244.44494                   -1053.77674                    -751.04057
                    7984.99244                    -972.75034                    -816.28266
                    8856.18930                    -933.91008                    -901.55699
                    4864.45150                    -447.76632                    -492.73417
                    9093.51590                    -691.04624                    -913.01112
                    8027.58127                    -442.84359                    -794.27869
                    9972.09927                    -280.28580                    -960.19197
                    4074.72537                       3.13394                    -377.75589
        </DataArray>
        <DataArray type="Float32" Name="Moment" NumberOfComponents="3" format="ascii">
                     -18.59777                      19.79603                       8.41558
                     138.31949                     345.19205                     101.42425
                     923.37296                    1999.12951                     580.98560
                     998.75751                    2580.99270                     881.05925
                      69.50662                     180.19498                     274.75642
                    -703.05315                   -2131.15481                      10.19164
                    -497.28375                   -1415.92122                    -418.91820
                    -235.46939                     -42.29467                   -1063.34338
                    -113.85615                     644.64403                   -1179.63921
                     -35.24889                    1320.53111                   -1156.47447
                     209.44001                    3176.87717                    -928.56752
                     529.36147                    5546.69157                      21.15363
                     -79.49230                    -354.94994                    -284.23751
                    -701.55176                   -6357.65964                   -1357.41260
                    -500.18010                   -5370.70393                   -1343.19624
                    -338.84752                   -1502.86434                   -1286.84595
                     -72.62237                     789.57807                    -452.48922
        </DataArray>
      </PointData>
    </Piece>
  </PolyData>
</VTKFile>
