<?xml version="1.0"?>
<VTKFile type="PolyData" version="0.1" byte_order="LittleEndian">
  <PolyData>
    <Piece NumberOfPoints="     19" NumberOfVerts="  0" NumberOfLines="     18"
           NumberOfStrips="  0" NumberOfPolys="      0">
      <Points>
        <DataArray type="Float32" NumberOfComponents="3" format="ascii">
                       3.08921                      -3.22218                      91.04424
                       3.05854                      -6.70701                      92.01501
                       3.03553                     -10.19328                      92.98080
                       3.02331                     -13.68142                      93.93999
                       3.02463                     -17.17168                      94.89152
                       3.04244                     -20.66416                      95.83465
                       3.08022                     -24.15892                      96.76871
                       3.14210                     -27.65592                      97.69300
                       3.23292                     -31.15503                      98.60683
                       3.35795                     -34.65594                      99.50961
                       3.52245                     -38.15815                     100.40091
                       3.73102                     -41.66095                     101.28057
                       3.98666                     -45.16349                     102.14881
                       4.28973                     -48.66491                     103.00632
                       4.63657                     -52.16458                     103.85451
                       5.01801                     -55.66241                     104.69569
                       5.41759                     -59.15911                     105.53328
                       5.61934                     -60.90733                     105.95169
                       3.10603                      -1.48006                      90.55785
        </DataArray>
      </Points>
      <PointData>
        <DataArray type="Float32" Name="TranslationalVelocity" NumberOfComponents="3" format="ascii">
                      -0.80048                      -0.79435                      -2.94419
                      -1.21447                      -1.68422                      -6.15168
                      -1.62741                      -2.57246                      -9.36788
                      -2.03847                      -3.45847                     -12.59519
                      -2.44672                      -4.34189                     -15.83509
                      -2.85085                      -5.22248                     -19.08840
                      -3.24931                      -6.09999                     -22.35553
                      -3.64021                      -6.97410                     -25.63659
                      -4.02138                      -7.84444                     -28.93143
                      -4.39044                      -8.71066                     -32.23959
                      -4.74504                      -9.57238                     -35.56030
                      -5.08307                     -10.42926                     -38.89243
                      -5.40310                     -11.28106                     -42.23453
                      -5.70478                     -12.12769                     -45.58484
                      -5.98940                     -12.96947                     -48.94140
                      -6.26052                     -13.80738                     -52.30210
                      -6.52469                     -14.64327                     -55.66482
                      -6.65607                     -15.06099                     -57.34642
                      -0.59332                      -0.34910                      -1.34227
        </DataArray>
        <DataArray type="Float32" Name="RotationalVelocity" NumberOfComponents="3" format="ascii">
                       0.91943                      -0.00946                      -0.11627
                       0.92123                      -0.00942                      -0.11606
                       0.92372                      -0.00933                      -0.11563
                       0.92666                      -0.00918                      -0.11498
                       0.92988                      -0.00894                      -0.11402
                       0.93324                      -0.00860                      -0.11268
                       0.93666                      -0.00813                      -0.11088
                       0.94009                      -0.00752                      -0.10855
                       0.94348                      -0.00673                      -0.10561
                       0.94678                      -0.00576                      -0.10204
                       0.94994                      -0.00463                      -0.09788
                       0.95291                      -0.00337                      -0.09324
                       0.95560                      -0.00203                      -0.08836
                       0.95794                      -0.00072                      -0.08360
                       0.95980                       0.00042                      -0.07945
                       0.96101                       0.00121                      -0.07657
                       0.96139                       0.00141                      -0.07584
                       0.96134                       0.00133                      -0.07613
                       0.91875                      -0.00947                      -0.11631
        </DataArray>
        <DataArray type="Float32" Name="TranslationalAcceleration" NumberOfComponents="3" format="ascii">
                      -1.20805                       2.95889                      -0.92268
                      -1.26931                       5.89485                      -1.97520
                      -1.31539                       8.85919                      -2.97954
                      -1.34291                      11.85919                      -3.92346
                      -1.35106                      14.89922                      -4.79942
                      -1.34307                      17.98160                      -5.60277
                      -1.32650                      21.10731                      -6.33060
                      -1.31351                      24.27623                      -6.98096
                      -1.32095                      27.48719                      -7.55240
                      -1.36947                      30.73781                      -8.04381
                      -1.48194                      34.02428                      -8.45459
                      -1.68127                      37.34114                      -8.78505
                      -1.98739                      40.68142                      -9.03699
                      -2.41364                      44.03723                      -9.21463
                      -2.96241                      47.40075                      -9.32614
                      -3.62022                      50.76576                      -9.38562
                      -4.35182                      54.12943                      -9.41509
                      -4.73010                      55.81083                      -9.42562
                      -1.17411                       1.49688                      -0.38625
        </DataArray>
        <DataArray type="Float32" Name="RotationalAcceleration" NumberOfComponents="3" format="ascii">
                       0.07186                       0.00552                       0.00001
                       0.06004                       0.00661                       0.00349
                       0.04392                       0.00803                       0.00799
                       0.02514                       0.00968                       0.01321
                       0.00473                       0.01127                       0.01813
                      -0.01664                       0.01246                       0.02160
                      -0.03852                       0.01293                       0.02248
                      -0.06068                       0.01230                       0.01944
                      -0.08292                       0.01026                       0.01131
                      -0.10505                       0.00655                      -0.00276
                      -0.12677                       0.00108                      -0.02311
                      -0.14765                      -0.00606                      -0.04940
                      -0.16716                      -0.01453                      -0.08040
                      -0.18456                      -0.02369                      -0.11380
                      -0.19885                      -0.03257                      -0.14606
                      -0.20873                      -0.03977                      -0.17218
                      -0.21264                      -0.04346                      -0.18551
                      -0.21290                      -0.04416                      -0.18804
                       0.07643                       0.00505                      -0.00149
        </DataArray>
        <DataArray type="Float32" Name="OrientationX" NumberOfComponents="3" format="ascii">
                       0.93806                      -0.10154                      -0.33126
                       0.93807                      -0.09968                      -0.33178
                       0.93809                      -0.09675                      -0.33259
                       0.94263                      -0.08972                      -0.32155
                       0.95252                      -0.07751                      -0.29444
                       0.95773                      -0.06777                      -0.27958
                       0.96265                      -0.05696                      -0.26469
                       0.96746                      -0.04470                      -0.24905
                       0.97188                      -0.03103                      -0.23343
                       0.97563                      -0.01617                      -0.21883
                       0.97882                      -0.00006                      -0.20474
                       0.98131                       0.01681                      -0.19172
                       0.98275                       0.03328                      -0.18191
                       0.98363                       0.04891                      -0.17342
                       0.98438                       0.06284                      -0.16445
                       0.98523                       0.07340                      -0.15470
                       0.98602                       0.07744                      -0.14756
                       0.98639                       0.07741                      -0.14504
                       0.93805                      -0.10217                      -0.33109
        </DataArray>
        <DataArray type="Float32" Name="OrientationY" NumberOfComponents="3" format="ascii">
                       0.34635                       0.24916                       0.90441
                       0.34635                       0.24866                       0.90455
                       0.34634                       0.24799                       0.90474
                       0.33382                       0.24844                       0.90931
                       0.30446                       0.25019                       0.91908
                       0.28758                       0.25061                       0.92439
                       0.27041                       0.25086                       0.92949
                       0.25218                       0.25100                       0.93456
                       0.23364                       0.25094                       0.93939
                       0.21583                       0.25064                       0.94372
                       0.19825                       0.25011                       0.94771
                       0.18157                       0.24935                       0.95124
                       0.16816                       0.24847                       0.95393
                       0.15628                       0.24751                       0.95620
                       0.14437                       0.24646                       0.95834
                       0.13251                       0.24540                       0.96032
                       0.12468                       0.24470                       0.96155
                       0.12225                       0.24451                       0.96191
                       0.34636                       0.24936                       0.90436
        </DataArray>
        <DataArray type="Float32" Name="OrientationZ" NumberOfComponents="3" format="ascii">
                      -0.00930                      -0.96312                       0.26890
                      -0.00766                      -0.96345                       0.26779
                      -0.00506                      -0.96392                       0.26614
                      -0.00170                      -0.96448                       0.26414
                       0.00242                      -0.96509                       0.26191
                       0.00742                      -0.96571                       0.25950
                       0.01345                      -0.96634                       0.25690
                       0.02073                      -0.96696                       0.25410
                       0.02942                      -0.96751                       0.25113
                       0.03959                      -0.96795                       0.24802
                       0.05115                      -0.96822                       0.24482
                       0.06379                      -0.96827                       0.24164
                       0.07694                      -0.96807                       0.23858
                       0.08969                      -0.96765                       0.23581
                       0.10076                      -0.96711                       0.23354
                       0.10845                      -0.96664                       0.23205
                       0.11057                      -0.96650                       0.23162
                       0.10993                      -0.96655                       0.23172
                      -0.00984                      -0.96301                       0.26930
        </DataArray>
      </PointData>
      <Lines>
        <DataArray type="Int32" Name="connectivity" format="ascii">
      0      1
      1      2
      2      3
      3      4
      4      5
      5      6
      6      7
      7      8
      8      9
      9     10
     10     11
     11     12
     12     13
     13     14
     14     15
     15     16
     16     17
     18      0
        </DataArray>
        <DataArray type="Int32" Name="offsets" format="ascii">
      2
      4
      6
      8
     10
     12
     14
     16
     18
     20
     22
     24
     26
     28
     30
     32
     34
     36
        </DataArray>
      </Lines>
    </Piece>
  </PolyData>
</VTKFile>
