<?xml version="1.0"?>
<VTKFile type="PolyData" version="0.1" byte_order="LittleEndian">
  <PolyData>
    <Piece NumberOfPoints="     19" NumberOfVerts="  0" NumberOfLines="     18"
           NumberOfStrips="  0" NumberOfPolys="      0">
      <Points>
        <DataArray type="Float32" NumberOfComponents="3" format="ascii">
                       3.23927                      -0.57912                      93.36519
                       3.51171                      -1.21086                      96.91682
                       3.78647                      -1.84355                     100.46810
                       4.06448                      -2.47748                     104.01890
                       4.34656                      -3.11285                     107.56913
                       4.63346                      -3.74972                     111.11870
                       4.92599                      -4.38813                     114.66753
                       5.22501                      -5.02810                     118.21554
                       5.53140                      -5.66961                     121.76265
                       5.84606                      -6.31259                     125.30876
                       6.16982                      -6.95692                     128.85381
                       6.50327                      -7.60246                     132.39774
                       6.84667                      -8.24902                     135.94053
                       7.19969                      -8.89640                     139.48223
                       7.56121                      -9.54437                     143.02296
                       7.92906                     -10.19271                     146.56298
                       8.29965                     -10.84121                     150.10268
                       8.48510                     -11.16548                     151.87251
                       3.10350                      -0.26344                      91.58931
        </DataArray>
      </Points>
      <PointData>
        <DataArray type="Float32" Name="TranslationalVelocity" NumberOfComponents="3" format="ascii">
                       0.02801                      -3.03379                      -0.50736
                      -0.01344                      -6.33582                      -1.09153
                      -0.03611                      -9.64920                      -1.68008
                      -0.03232                     -12.97731                      -2.27457
                       0.00465                     -16.32217                      -2.87613
                       0.08153                     -19.68469                      -3.48567
                       0.20546                     -23.06532                      -4.10407
                       0.38425                     -26.46413                      -4.73223
                       0.62631                     -29.88080                      -5.37109
                       0.94025                     -33.31456                      -6.02160
                       1.33410                     -36.76422                      -6.68462
                       1.81412                     -40.22811                      -7.36082
                       2.38336                     -43.70421                      -8.05044
                       3.03976                     -47.19025                      -8.75312
                       3.77402                     -50.68378                      -9.46746
                       4.56700                     -54.18218                     -10.19058
                       5.38686                     -57.68290                     -10.91777
                       5.79865                     -59.43353                     -11.28167
                       0.05238                      -1.38509                      -0.21616
        </DataArray>
        <DataArray type="Float32" Name="RotationalVelocity" NumberOfComponents="3" format="ascii">
                       0.91989                       0.00603                      -0.11110
                       0.92256                       0.01006                      -0.11059
                       0.92641                       0.01643                      -0.10975
                       0.93106                       0.02469                      -0.10863
                       0.93610                       0.03476                      -0.10723
                       0.94132                       0.04672                      -0.10550
                       0.94666                       0.06071                      -0.10343
                       0.95201                       0.07693                      -0.10095
                       0.95725                       0.09553                      -0.09805
                       0.96227                       0.11647                      -0.09471
                       0.96694                       0.13945                      -0.09098
                       0.97113                       0.16382                      -0.08697
                       0.97474                       0.18846                      -0.08287
                       0.97768                       0.21169                      -0.07896
                       0.97984                       0.23121                      -0.07566
                       0.98111                       0.24394                      -0.07350
                       0.98146                       0.24597                      -0.07316
                       0.98140                       0.24377                      -0.07355
                       0.91890                       0.00467                      -0.11126
        </DataArray>
        <DataArray type="Float32" Name="TranslationalAcceleration" NumberOfComponents="3" format="ascii">
                       0.30463                       0.55169                      -2.62843
                       0.05383                       1.16970                      -5.66584
                      -0.14966                       1.78291                      -8.73001
                      -0.28696                       2.38883                     -11.83011
                      -0.34197                       2.98614                     -14.97267
                      -0.30122                       3.57475                     -18.16223
                      -0.15401                       4.15520                     -21.40268
                       0.10744                       4.72853                     -24.69775
                       0.48791                       5.29653                     -28.05092
                       0.98883                       5.86171                     -31.46550
                       1.60785                       6.42708                     -34.94444
                       2.33832                       6.99595                     -38.48986
                       3.16858                       7.57148                     -42.10224
                       4.08124                       8.15610                     -45.77912
                       5.05235                       8.75085                     -49.51295
                       6.05050                       9.35455                     -53.28863
                       7.03568                       9.96308                     -57.08145
                       7.51945                      10.26784                     -58.97841
                       0.43930                       0.24182                      -1.11510
        </DataArray>
        <DataArray type="Float32" Name="RotationalAcceleration" NumberOfComponents="3" format="ascii">
                      -0.02333                       0.03102                      -0.01510
                      -0.02152                       0.04175                      -0.01333
                      -0.01854                       0.05834                      -0.01061
                      -0.01465                       0.07986                      -0.00709
                      -0.01044                       0.10555                      -0.00284
                      -0.00621                       0.13462                       0.00200
                      -0.00201                       0.16629                       0.00731
                       0.00195                       0.19975                       0.01295
                       0.00548                       0.23414                       0.01879
                       0.00844                       0.26848                       0.02467
                       0.01076                       0.30167                       0.03039
                       0.01238                       0.33241                       0.03572
                       0.01337                       0.35920                       0.04041
                       0.01380                       0.38029                       0.04412
                       0.01379                       0.39366                       0.04650
                       0.01348                       0.39694                       0.04711
                       0.01308                       0.38744                       0.04545
                       0.01289                       0.37913                       0.04399
                      -0.02393                       0.02724                      -0.01573
        </DataArray>
        <DataArray type="Float32" Name="OrientationX" NumberOfComponents="3" format="ascii">
                       0.96536                      -0.23401                      -0.11540
                       0.96532                      -0.23392                      -0.11593
                       0.96526                      -0.23377                      -0.11676
                       0.96841                      -0.22083                      -0.11580
                       0.97519                      -0.19077                      -0.11228
                       0.97858                      -0.17340                      -0.11098
                       0.98168                      -0.15573                      -0.10982
                       0.98460                      -0.13697                      -0.10869
                       0.98717                      -0.11787                      -0.10772
                       0.98926                      -0.09949                      -0.10707
                       0.99097                      -0.08131                      -0.10663
                       0.99226                      -0.06403                      -0.10644
                       0.99302                      -0.05000                      -0.10679
                       0.99353                      -0.03754                      -0.10721
                       0.99392                      -0.02514                      -0.10717
                       0.99424                      -0.01296                      -0.10638
                       0.99445                      -0.00509                      -0.10512
                       0.99453                      -0.00272                      -0.10441
                       0.96537                      -0.23404                      -0.11522
        </DataArray>
        <DataArray type="Float32" Name="OrientationY" NumberOfComponents="3" format="ascii">
                       0.24989                       0.95644                       0.15091
                       0.24990                       0.95643                       0.15100
                       0.24991                       0.95641                       0.15112
                       0.23705                       0.95941                       0.15280
                       0.20694                       0.96576                       0.15648
                       0.18968                       0.96895                       0.15860
                       0.17215                       0.97187                       0.16073
                       0.15356                       0.97461                       0.16294
                       0.13468                       0.97703                       0.16515
                       0.11656                       0.97900                       0.16725
                       0.09868                       0.98061                       0.16929
                       0.08172                       0.98184                       0.17122
                       0.06806                       0.98260                       0.17279
                       0.05594                       0.98312                       0.17418
                       0.04380                       0.98350                       0.17555
                       0.03175                       0.98372                       0.17689
                       0.02383                       0.98379                       0.17775
                       0.02138                       0.98380                       0.17801
                       0.24989                       0.95645                       0.15088
        </DataArray>
        <DataArray type="Float32" Name="OrientationZ" NumberOfComponents="3" format="ascii">
                       0.07506                      -0.17452                       0.98179
                       0.07556                      -0.17473                       0.98171
                       0.07634                      -0.17504                       0.98160
                       0.07736                      -0.17542                       0.98145
                       0.07858                      -0.17583                       0.98128
                       0.08003                      -0.17626                       0.98109
                       0.08170                      -0.17669                       0.98087
                       0.08361                      -0.17712                       0.98063
                       0.08578                      -0.17754                       0.98037
                       0.08818                      -0.17793                       0.98008
                       0.09080                      -0.17829                       0.97978
                       0.09354                      -0.17860                       0.97947
                       0.09629                      -0.17885                       0.97915
                       0.09886                      -0.17905                       0.97886
                       0.10099                      -0.17918                       0.97862
                       0.10235                      -0.17925                       0.97847
                       0.10251                      -0.17927                       0.97844
                       0.10223                      -0.17927                       0.97847
                       0.07489                      -0.17445                       0.98181
        </DataArray>
      </PointData>
      <Lines>
        <DataArray type="Int32" Name="connectivity" format="ascii">
      0      1
      1      2
      2      3
      3      4
      4      5
      5      6
      6      7
      7      8
      8      9
      9     10
     10     11
     11     12
     12     13
     13     14
     14     15
     15     16
     16     17
     18      0
        </DataArray>
        <DataArray type="Int32" Name="offsets" format="ascii">
      2
      4
      6
      8
     10
     12
     14
     16
     18
     20
     22
     24
     26
     28
     30
     32
     34
     36
        </DataArray>
      </Lines>
    </Piece>
  </PolyData>
</VTKFile>
