<?xml version="1.0"?>
<VTKFile type="PolyData" version="0.1" byte_order="LittleEndian">
  <PolyData>
    <Piece NumberOfPoints="     19" NumberOfVerts="  0" NumberOfLines="     18"
           NumberOfStrips="  0" NumberOfPolys="      0">
      <Points>
        <DataArray type="Float32" NumberOfComponents="3" format="ascii">
                       3.10854                      -0.36701                      91.56948
                       3.20832                      -0.70174                      92.89080
                       3.38332                      -1.46304                      95.51217
                       3.54830                      -2.26855                      98.12317
                       3.75130                      -3.30301                     101.38022
                       4.05873                      -4.40887                     105.31761
                       4.40353                      -5.39227                     109.28285
                       4.75770                      -6.37669                     113.24704
                       5.12581                      -7.36047                     117.21015
                       5.50928                      -8.34539                     121.17156
                       5.90696                      -9.33448                     125.13053
                       6.32344                     -10.32637                     129.08689
                       6.75957                     -11.32062                     133.04055
                       7.21493                     -12.31678                     136.99158
                       7.68966                     -13.31442                     140.93998
                       8.09688                     -14.14651                     144.22877
                       8.42795                     -14.80480                     146.86102
                       8.75992                     -15.40990                     149.50705
                       8.92379                     -15.75280                     150.81975
        </DataArray>
      </Points>
      <PointData>
        <DataArray type="Float32" Name="Force" NumberOfComponents="3" format="ascii">
                       0.08619                       2.85949                       0.70988
                      71.84776                      24.97769                       0.78578
                      89.88296                      58.82853                       7.83814
                      80.21966                      76.86329                      13.03250
                     700.48484                    -285.81630                    -127.03239
                     910.23069                    -327.33043                    -156.04008
                    1031.09460                    -303.24613                    -162.60206
                    1285.72441                    -316.31897                    -191.35762
                    1318.06947                    -261.84309                    -185.42002
                    1420.43057                    -231.95558                    -193.31272
                    1609.65066                    -201.48737                    -211.53713
                    1609.77305                    -145.51509                    -206.06833
                    1698.81279                    -112.24116                    -216.49405
                    1518.16203                     -47.83506                    -188.44353
                    1284.90425                       4.45452                    -154.18555
                     892.52408                      38.29368                    -100.69527
                    1121.63070                      41.58419                    -129.37896
                    1067.06039                      28.64283                    -125.91393
                    1343.43578                      18.52937                    -162.44954
        </DataArray>
        <DataArray type="Float32" Name="Moment" NumberOfComponents="3" format="ascii">
                       0.00000                       0.00000                       0.00000
                       0.00000                       0.00000                       0.00000
                       0.00000                       0.00000                       0.00000
                       0.00000                       0.00000                       0.00000
                     -14.36328                      45.52191                    -181.62425
                     -31.06799                      95.83596                    -382.26755
                     -42.67429                     127.49252                    -508.37511
                     -62.02449                     178.63249                    -712.02413
                     -87.78172                     242.60993                    -966.60623
                    -101.60783                     268.34248                   -1068.58153
                    -112.05122                     281.64457                   -1120.89607
                    -123.03041                     293.81028                   -1168.56805
                    -102.85630                     233.52388                    -928.17604
                    -103.91793                     225.15879                    -894.35145
                    -102.48161                     213.57368                    -847.85949
                     -99.01909                     201.81588                    -800.91797
                     -98.17817                     198.42561                    -787.36361
                     -51.71460                     104.45873                    -414.49430
                     -54.07026                     109.53591                    -434.65981
        </DataArray>
        <DataArray type="Float32" Name="TranslationalVelocity" NumberOfComponents="3" format="ascii">
                       0.08079                      -1.38169                      -0.31735
                       0.04939                      -2.61422                      -0.62721
                      -0.02075                      -5.05794                      -1.33226
                      -0.08521                      -7.49464                      -2.08002
                      -0.14684                     -10.54127                      -3.04406
                      -0.16607                     -14.24348                      -4.08287
                      -0.11708                     -17.99099                      -5.01712
                      -0.00283                     -21.75443                      -5.96245
                       0.18865                     -25.53460                      -6.91914
                       0.46992                     -29.33080                      -7.89072
                       0.84222                     -33.13988                      -8.88022
                       1.32700                     -36.96223                      -9.88991
                       1.93270                     -40.79563                     -10.92104
                       2.66107                     -44.63740                     -11.97382
                       3.50309                     -48.48469                     -13.04728
                       4.27350                     -51.69310                     -13.95448
                       4.92223                     -54.26238                     -14.67862
                       5.58054                     -56.84532                     -15.35187
                       5.90390                     -58.12669                     -15.72693
        </DataArray>
        <DataArray type="Float32" Name="RotationalVelocity" NumberOfComponents="3" format="ascii">
                       0.92384                       0.00349                      -0.11258
                       0.92432                       0.00469                      -0.11231
                       0.92561                       0.00803                      -0.11157
                       0.92731                       0.01258                      -0.11056
                       0.93006                       0.02018                      -0.10887
                       0.93395                       0.03176                      -0.10626
                       0.93813                       0.04582                      -0.10305
                       0.94250                       0.06247                      -0.09922
                       0.94698                       0.08190                      -0.09469
                       0.95147                       0.10428                      -0.08942
                       0.95577                       0.12981                      -0.08335
                       0.95973                       0.15762                      -0.07668
                       0.96317                       0.18655                      -0.06970
                       0.96599                       0.21467                      -0.06287
                       0.96807                       0.23912                      -0.05690
                       0.96912                       0.25357                      -0.05336
                       0.96952                       0.25914                      -0.05199
                       0.96961                       0.25957                      -0.05189
                       0.96955                       0.25767                      -0.05236
        </DataArray>
        <DataArray type="Float32" Name="TranslationalAcceleration" NumberOfComponents="3" format="ascii">
                       0.38878                      -0.12179                      -1.47321
                       0.19962                       0.01278                      -2.64795
                      -0.17421                       0.37894                      -4.98504
                      -0.53884                       0.83299                      -7.30745
                      -0.98061                       1.51137                     -10.18868
                      -1.49382                       2.34763                     -13.64590
                      -1.98798                       3.25221                     -17.11520
                      -2.46206                       4.34008                     -20.57947
                      -2.90866                       5.60723                     -24.04651
                      -3.31220                       7.04721                     -27.52539
                      -3.65803                       8.63624                     -31.02360
                      -3.91268                      10.37954                     -34.55499
                      -4.04567                      12.26524                     -38.13234
                      -4.03030                      14.28019                     -41.76651
                      -3.85154                      16.40783                     -45.46294
                      -3.58382                      18.24809                     -48.58657
                      -3.29820                      19.74556                     -51.11254
                      -2.96220                      21.20609                     -53.67578
                      -2.79720                      21.97108                     -54.93381
        </DataArray>
        <DataArray type="Float32" Name="OrientationX" NumberOfComponents="3" format="ascii">
                       0.96337                      -0.23362                      -0.13169
                       0.96335                      -0.23356                      -0.13192
                       0.96330                      -0.23341                      -0.13255
                       0.96324                      -0.23319                      -0.13341
                       0.96313                      -0.23283                      -0.13483
                       0.97069                      -0.20214                      -0.13000
                       0.97544                      -0.17961                      -0.12746
                       0.97910                      -0.15967                      -0.12596
                       0.98250                      -0.13845                      -0.12463
                       0.98548                      -0.11644                      -0.12360
                       0.98777                      -0.09539                      -0.12332
                       0.98957                      -0.07437                      -0.12341
                       0.99074                      -0.05512                      -0.12408
                       0.99126                      -0.04024                      -0.12564
                       0.99162                      -0.02573                      -0.12657
                       0.99190                      -0.01388                      -0.12626
                       0.99213                      -0.00530                      -0.12510
                       0.99228                      -0.00082                      -0.12403
                       0.99232                      -0.00091                      -0.12369
        </DataArray>
        <DataArray type="Float32" Name="OrientationY" NumberOfComponents="3" format="ascii">
                       0.25792                       0.94163                       0.21633
                       0.25793                       0.94162                       0.21638
                       0.25794                       0.94159                       0.21651
                       0.25795                       0.94155                       0.21666
                       0.25797                       0.94150                       0.21689
                       0.22714                       0.94836                       0.22142
                       0.20478                       0.95266                       0.22472
                       0.18518                       0.95599                       0.22759
                       0.16439                       0.95907                       0.23058
                       0.14294                       0.96177                       0.23359
                       0.12260                       0.96389                       0.23642
                       0.10239                       0.96556                       0.23919
                       0.08406                       0.96670                       0.24172
                       0.07015                       0.96732                       0.24367
                       0.05646                       0.96773                       0.24558
                       0.04500                       0.96793                       0.24714
                       0.03648                       0.96800                       0.24827
                       0.03191                       0.96801                       0.24887
                       0.03191                       0.96801                       0.24887
        </DataArray>
        <DataArray type="Float32" Name="OrientationZ" NumberOfComponents="3" format="ascii">
                       0.07347                      -0.24237                       0.96740
                       0.07368                      -0.24248                       0.96735
                       0.07427                      -0.24275                       0.96724
                       0.07509                      -0.24311                       0.96709
                       0.07645                      -0.24367                       0.96684
                       0.07853                      -0.24446                       0.96647
                       0.08107                      -0.24530                       0.96605
                       0.08408                      -0.24616                       0.96557
                       0.08761                      -0.24703                       0.96504
                       0.09167                      -0.24787                       0.96445
                       0.09631                      -0.24865                       0.96379
                       0.10137                      -0.24934                       0.96310
                       0.10663                      -0.24991                       0.96238
                       0.11173                      -0.25036                       0.96168
                       0.11617                      -0.25067                       0.96108
                       0.11878                      -0.25082                       0.96072
                       0.11979                      -0.25088                       0.96058
                       0.11985                      -0.25090                       0.96056
                       0.11950                      -0.25090                       0.96061
        </DataArray>
      </PointData>
      <Lines>
        <DataArray type="Int32" Name="connectivity" format="ascii">
      0      1
      1      2
      2      3
      3      4
      4      5
      5      6
      6      7
      7      8
      8      9
      9     10
     10     11
     11     12
     12     13
     13     14
     14     15
     15     16
     16     17
     17     18
        </DataArray>
        <DataArray type="Int32" Name="offsets" format="ascii">
      2
      4
      6
      8
     10
     12
     14
     16
     18
     20
     22
     24
     26
     28
     30
     32
     34
     36
        </DataArray>
      </Lines>
    </Piece>
  </PolyData>
</VTKFile>
