<?xml version="1.0"?>
<VTKFile type="PolyData" version="0.1" byte_order="LittleEndian">
  <PolyData>
    <Piece NumberOfPoints="     19" NumberOfVerts="  0" NumberOfLines="     18"
           NumberOfStrips="  0" NumberOfPolys="      0">
      <Points>
        <DataArray type="Float32" NumberOfComponents="3" format="ascii">
                       2.83066                      -1.29780                      89.38027
                       2.68830                      -2.47852                      88.70683
                       2.37159                      -4.79168                      87.28177
                       2.03973                      -7.08203                      85.81967
                       1.61585                      -9.93139                      83.96987
                       1.17441                     -13.42413                      81.86565
                       0.77029                     -16.98279                      79.86981
                       0.36418                     -20.54266                      77.87651
                      -0.04135                     -24.10472                      75.88697
                      -0.44732                     -27.66800                      73.89965
                      -0.85545                     -31.23060                      71.91160
                      -1.26485                     -34.79331                      69.92401
                      -1.67616                     -38.35609                      67.93696
                      -2.09009                     -41.91890                      65.95049
                      -2.50494                     -45.48172                      63.96426
                      -2.85127                     -48.45078                      62.30919
                      -3.12806                     -50.82991                      60.99204
                      -3.40042                     -53.23650                      59.72238
                      -3.54160                     -54.41889                      59.05184
        </DataArray>
      </Points>
      <PointData>
        <DataArray type="Float32" Name="Force" NumberOfComponents="3" format="ascii">
                       0.57314                      -2.75464                       4.73663
                      73.24035                     -19.60007                      19.14054
                     100.81700                     -41.64419                      52.20508
                      94.38771                     -50.51666                      69.20373
                     724.13280                     126.18521                    -374.96872
                    1003.69547                     140.91734                    -459.80733
                    1197.09028                     131.84598                    -484.53046
                    1437.31034                     123.62000                    -520.60319
                    1802.88903                     117.55262                    -586.87616
                    2104.52763                     107.28533                    -632.28096
                    2523.63780                      95.05932                    -698.96524
                    2903.78862                      80.33610                    -753.04336
                    3095.85405                      73.59379                    -781.59343
                    3418.78610                      59.86861                    -825.38415
                    3714.59403                      43.76848                    -859.27616
                    3893.87683                      25.48341                    -864.78136
                    3827.29890                       6.03591                    -816.47146
                    2807.18394                      -5.10824                    -582.03815
                    1339.24005                     -59.25552                    -177.48746
        </DataArray>
        <DataArray type="Float32" Name="Moment" NumberOfComponents="3" format="ascii">
                       0.00000                       0.00000                       0.00000
                       0.00000                       0.00000                       0.00000
                       0.00000                       0.00000                       0.00000
                       0.00000                       0.00000                       0.00000
                      23.48920                     196.71982                     111.56246
                      48.49924                     406.17656                     230.34818
                      62.72249                     525.29498                     297.90184
                      87.56529                     733.35107                     415.89324
                     118.86966                     995.52226                     564.57405
                     132.57272                    1110.28412                     629.65704
                     140.48128                    1176.51754                     667.21890
                     148.14167                    1240.67264                     703.60212
                     130.56857                    1093.49953                     620.13827
                     130.70894                    1094.67516                     620.80499
                     127.33414                    1066.41153                     604.77631
                     121.53422                    1017.83772                     577.22945
                     108.08206                     905.17716                     513.33813
                      54.39181                     455.52631                     258.33509
                      46.54169                     389.78228                     221.05077
        </DataArray>
        <DataArray type="Float32" Name="TranslationalVelocity" NumberOfComponents="3" format="ascii">
                      -0.14693                       0.70619                      -1.21429
                      -0.28061                       1.35241                      -2.31903
                      -0.54249                       2.72163                      -4.48335
                      -0.80179                       4.12722                      -6.62632
                      -1.12438                       5.90598                      -9.29234
                      -1.51981                       7.92478                     -12.56033
                      -1.92271                       9.83795                     -15.89000
                      -2.32574                      11.74896                     -19.22080
                      -2.72901                      13.65639                     -22.55366
                      -3.13243                      15.56180                     -25.88765
                      -3.53577                      17.46812                     -29.22101
                      -3.93912                      19.37417                     -32.55447
                      -4.34248                      21.27993                     -35.88800
                      -4.74585                      23.18543                     -39.22155
                      -5.14921                      25.09083                     -42.55512
                      -5.48535                      26.67861                     -45.33313
                      -5.75471                      27.94234                     -47.55917
                      -6.02717                      29.16113                     -49.81090
                      -6.16103                      29.80452                     -50.91720
        </DataArray>
        <DataArray type="Float32" Name="RotationalVelocity" NumberOfComponents="3" format="ascii">
                       0.93565                      -0.00000                      -0.11321
                       0.93565                      -0.00000                      -0.11321
                       0.93565                      -0.00000                      -0.11321
                       0.93565                      -0.00000                      -0.11321
                       0.93565                      -0.00000                      -0.11321
                       0.93565                      -0.00000                      -0.11321
                       0.93565                      -0.00000                      -0.11321
                       0.93565                      -0.00000                      -0.11321
                       0.93565                      -0.00000                      -0.11321
                       0.93565                      -0.00000                      -0.11321
                       0.93565                      -0.00000                      -0.11321
                       0.93565                      -0.00000                      -0.11321
                       0.93565                      -0.00000                      -0.11321
                       0.93565                      -0.00000                      -0.11321
                       0.93565                      -0.00000                      -0.11321
                       0.93565                      -0.00000                      -0.11321
                       0.93565                      -0.00000                      -0.11321
                       0.93565                      -0.00000                      -0.11321
                       0.93565                      -0.00000                      -0.11321
        </DataArray>
        <DataArray type="Float32" Name="TranslationalAcceleration" NumberOfComponents="3" format="ascii">
                       0.26482                       1.23129                       0.30868
                       0.37401                       2.31286                       0.84822
                       0.62933                       4.44514                       1.98255
                       0.97055                       6.58576                       3.09479
                       1.56659                       9.30153                       4.39721
                       2.55862                      12.69792                       5.66548
                       3.94634                      16.22951                       6.59047
                       5.83843                      19.84809                       7.25324
                       8.32521                      23.55119                       7.63893
                      11.50065                      27.33081                       7.74116
                      15.37089                      31.16897                       7.58960
                      20.08798                      35.06208                       7.15894
                      25.70298                      38.99529                       6.46225
                      32.21542                      42.95317                       5.52297
                      39.54554                      46.92567                       4.38010
                      46.13726                      50.24058                       3.31343
                      51.62133                      52.89262                       2.40260
                      57.09599                      55.54248                       1.42824
                      59.83027                      56.86801                       0.98445
        </DataArray>
        <DataArray type="Float32" Name="OrientationX" NumberOfComponents="3" format="ascii">
                       0.93868                       0.07833                      -0.33576
                       0.93868                       0.07833                      -0.33576
                       0.93868                       0.07833                      -0.33576
                       0.93868                       0.07833                      -0.33576
                       0.93868                       0.07833                      -0.33576
                       0.94870                       0.06249                      -0.30994
                       0.95532                       0.05103                      -0.29113
                       0.96069                       0.04100                      -0.27457
                       0.96594                       0.03039                      -0.25696
                       0.97089                       0.01945                      -0.23872
                       0.97515                       0.00911                      -0.22137
                       0.97896                      -0.00116                      -0.20407
                       0.98205                      -0.01046                      -0.18832
                       0.98417                      -0.01751                      -0.17633
                       0.98607                      -0.02445                      -0.16451
                       0.98751                      -0.03024                      -0.15460
                       0.98850                      -0.03455                      -0.14721
                       0.98900                      -0.03685                      -0.14325
                       0.98900                      -0.03685                      -0.14325
        </DataArray>
        <DataArray type="Float32" Name="OrientationY" NumberOfComponents="3" format="ascii">
                       0.32894                      -0.49527                       0.80406
                       0.32894                      -0.49527                       0.80406
                       0.32894                      -0.49527                       0.80406
                       0.32894                      -0.49527                       0.80406
                       0.32894                      -0.49527                       0.80406
                       0.29883                      -0.49752                       0.81436
                       0.27692                      -0.49882                       0.82127
                       0.25768                      -0.49975                       0.82696
                       0.23723                      -0.50050                       0.83260
                       0.21609                      -0.50105                       0.83801
                       0.19600                      -0.50134                       0.84276
                       0.17599                      -0.50142                       0.84711
                       0.15780                      -0.50132                       0.85075
                       0.14397                      -0.50112                       0.85332
                       0.13034                      -0.50083                       0.85568
                       0.11892                      -0.50051                       0.85752
                       0.11042                      -0.50023                       0.85882
                       0.10586                      -0.50007                       0.85949
                       0.10586                      -0.50007                       0.85949
        </DataArray>
        <DataArray type="Float32" Name="OrientationZ" NumberOfComponents="3" format="ascii">
                      -0.10331                      -0.86520                      -0.49067
                      -0.10331                      -0.86520                      -0.49067
                      -0.10331                      -0.86520                      -0.49067
                      -0.10331                      -0.86520                      -0.49067
                      -0.10331                      -0.86520                      -0.49067
                      -0.10331                      -0.86520                      -0.49067
                      -0.10331                      -0.86520                      -0.49067
                      -0.10331                      -0.86520                      -0.49067
                      -0.10331                      -0.86520                      -0.49067
                      -0.10331                      -0.86520                      -0.49067
                      -0.10331                      -0.86520                      -0.49067
                      -0.10331                      -0.86520                      -0.49067
                      -0.10331                      -0.86520                      -0.49067
                      -0.10331                      -0.86520                      -0.49067
                      -0.10331                      -0.86520                      -0.49067
                      -0.10331                      -0.86520                      -0.49067
                      -0.10331                      -0.86520                      -0.49067
                      -0.10331                      -0.86520                      -0.49067
                      -0.10331                      -0.86520                      -0.49067
        </DataArray>
      </PointData>
      <Lines>
        <DataArray type="Int32" Name="connectivity" format="ascii">
      0      1
      1      2
      2      3
      3      4
      4      5
      5      6
      6      7
      7      8
      8      9
      9     10
     10     11
     11     12
     12     13
     13     14
     14     15
     15     16
     16     17
     17     18
        </DataArray>
        <DataArray type="Int32" Name="offsets" format="ascii">
      2
      4
      6
      8
     10
     12
     14
     16
     18
     20
     22
     24
     26
     28
     30
     32
     34
     36
        </DataArray>
      </Lines>
    </Piece>
  </PolyData>
</VTKFile>
