<?xml version="1.0"?>
<VTKFile type="PolyData" version="0.1" byte_order="LittleEndian">
  <PolyData>
    <Piece NumberOfPoints="     19" NumberOfVerts="  0" NumberOfLines="     18"
           NumberOfStrips="  0" NumberOfPolys="      0">
      <Points>
        <DataArray type="Float32" NumberOfComponents="3" format="ascii">
                       2.64455                      -3.28174                      89.63142
                       2.42427                      -6.84940                      89.07405
                       2.21192                     -10.41674                      88.51163
                       2.01069                     -13.98366                      87.94251
                       1.82340                     -17.55009                      87.36563
                       1.65313                     -21.11598                      86.78024
                       1.50362                     -24.68127                      86.18562
                       1.37943                     -28.24585                      85.58103
                       1.28597                     -31.80952                      84.96574
                       1.22926                     -35.37198                      84.33917
                       1.21538                     -38.93279                      83.70097
                       1.24978                     -42.49136                      83.05118
                       1.33618                     -46.04700                      82.39026
                       1.47540                     -49.59910                      81.71921
                       1.66378                     -53.14736                      81.03961
                       1.89147                     -56.69219                      80.35379
                       2.14038                     -60.23505                      79.66480
                       2.26730                     -62.00623                      79.31995
                       2.75623                      -1.49785                      89.90908
        </DataArray>
      </Points>
      <PointData>
        <DataArray type="Float32" Name="TranslationalVelocity" NumberOfComponents="3" format="ascii">
                      -0.98274                       0.49150                      -3.04681
                      -1.36779                       1.02737                      -6.32466
                      -1.75453                       1.56689                      -9.60078
                      -2.14366                       2.11120                     -12.87461
                      -2.53584                       2.66091                     -16.14577
                      -2.93162                       3.21633                     -19.41403
                      -3.33144                       3.77766                     -22.67921
                      -3.73562                       4.34500                     -25.94118
                      -4.14428                       4.91832                     -29.19977
                      -4.55744                       5.49737                     -32.45476
                      -4.97488                       6.08167                     -35.70584
                      -5.39621                       6.67046                     -38.95262
                      -5.82083                       7.26277                     -42.19468
                      -6.24792                       7.85758                     -45.43171
                      -6.67647                       8.45391                     -48.66378
                      -7.10526                       9.05094                     -51.89171
                      -7.53292                       9.64828                     -55.11745
                      -7.74628                       9.94701                     -56.73008
                      -0.79053                       0.22432                      -1.40754
        </DataArray>
        <DataArray type="Float32" Name="RotationalVelocity" NumberOfComponents="3" format="ascii">
                       0.91787                      -0.01684                      -0.11036
                       0.91758                      -0.01676                      -0.11074
                       0.91716                      -0.01664                      -0.11134
                       0.91664                      -0.01648                      -0.11213
                       0.91606                      -0.01630                      -0.11310
                       0.91546                      -0.01609                      -0.11420
                       0.91485                      -0.01586                      -0.11541
                       0.91427                      -0.01563                      -0.11669
                       0.91371                      -0.01539                      -0.11800
                       0.91320                      -0.01515                      -0.11929
                       0.91274                      -0.01493                      -0.12052
                       0.91235                      -0.01474                      -0.12163
                       0.91203                      -0.01457                      -0.12256
                       0.91178                      -0.01445                      -0.12325
                       0.91162                      -0.01438                      -0.12363
                       0.91155                      -0.01438                      -0.12362
                       0.91158                      -0.01445                      -0.12315
                       0.91163                      -0.01451                      -0.12279
                       0.91798                      -0.01686                      -0.11023
        </DataArray>
        <DataArray type="Float32" Name="TranslationalAcceleration" NumberOfComponents="3" format="ascii">
                       0.45868                       2.47813                       0.44988
                       0.62972                       5.52975                       0.90719
                       0.80740                       8.58001                       1.35991
                       0.99515                      11.62853                       1.80644
                       1.19612                      14.67514                       2.24565
                       1.40933                      17.71990                       2.67804
                       1.62684                      20.76292                       3.10628
                       1.83227                      23.80416                       3.53513
                       2.00057                      26.84311                       3.97084
                       2.09900                      29.87834                       4.42023
                       2.08955                      32.90695                       4.88965
                       1.93255                      35.92424                       5.38397
                       1.59186                      38.92387                       5.90596
                       1.04130                      41.89882                       6.45607
                       0.27262                      44.84377                       7.03215
                      -0.69534                      47.75864                       7.62948
                      -1.80592                      50.65250                       8.24129
                      -2.38707                      52.09600                       8.54986
                       0.37450                       0.95205                       0.22024
        </DataArray>
        <DataArray type="Float32" Name="RotationalAcceleration" NumberOfComponents="3" format="ascii">
                       0.00758                       0.01034                       0.01679
                       0.00938                       0.01001                       0.01818
                       0.01187                       0.00954                       0.02023
                       0.01506                       0.00884                       0.02344
                       0.01847                       0.00805                       0.02716
                       0.02149                       0.00744                       0.02982
                       0.02350                       0.00741                       0.02922
                       0.02391                       0.00836                       0.02295
                       0.02236                       0.01066                       0.00872
                       0.01872                       0.01462                      -0.01531
                       0.01312                       0.02038                      -0.05014
                       0.00596                       0.02789                      -0.09557
                      -0.00222                       0.03683                      -0.14983
                      -0.01071                       0.04658                      -0.20922
                      -0.01859                       0.05617                      -0.26777
                      -0.02477                       0.06418                      -0.31684
                      -0.02817                       0.06874                      -0.34482
                      -0.02904                       0.06989                      -0.35188
                       0.00683                       0.01050                       0.01611
        </DataArray>
        <DataArray type="Float32" Name="OrientationX" NumberOfComponents="3" format="ascii">
                       0.93742                      -0.00449                      -0.34817
                       0.93754                      -0.00254                      -0.34787
                       0.93772                       0.00052                      -0.34739
                       0.94242                       0.00219                      -0.33443
                       0.95244                       0.00167                      -0.30473
                       0.95787                       0.00427                      -0.28718
                       0.96307                       0.00793                      -0.26913
                       0.96822                       0.01275                      -0.24978
                       0.97304                       0.01907                      -0.22983
                       0.97727                       0.02715                      -0.21027
                       0.98097                       0.03681                      -0.19061
                       0.98401                       0.04785                      -0.17157
                       0.98599                       0.06006                      -0.15559
                       0.98736                       0.07213                      -0.14113
                       0.98848                       0.08239                      -0.12695
                       0.98955                       0.08896                      -0.11352
                       0.99035                       0.09016                      -0.10525
                       0.99068                       0.08917                      -0.10295
                       0.93738                      -0.00514                      -0.34827
        </DataArray>
        <DataArray type="Float32" Name="OrientationY" NumberOfComponents="3" format="ascii">
                       0.34268                      -0.16539                       0.92478
                       0.34266                      -0.16586                       0.92470
                       0.34262                      -0.16649                       0.92460
                       0.33006                      -0.16724                       0.92903
                       0.30066                      -0.16808                       0.93880
                       0.28374                      -0.16894                       0.94390
                       0.26652                      -0.16985                       0.94874
                       0.24824                      -0.17081                       0.95352
                       0.22964                      -0.17184                       0.95799
                       0.21177                      -0.17294                       0.96190
                       0.19412                      -0.17414                       0.96540
                       0.17738                      -0.17543                       0.96838
                       0.16391                      -0.17666                       0.97053
                       0.15197                      -0.17789                       0.97225
                       0.14000                      -0.17916                       0.97381
                       0.12809                      -0.18042                       0.97521
                       0.12023                      -0.18122                       0.97607
                       0.11779                      -0.18143                       0.97632
                       0.34270                      -0.16521                       0.92480
        </DataArray>
        <DataArray type="Float32" Name="OrientationZ" NumberOfComponents="3" format="ascii">
                      -0.06174                      -0.98622                      -0.15351
                      -0.06004                      -0.98615                      -0.15463
                      -0.05735                      -0.98604                      -0.15630
                      -0.05389                      -0.98591                      -0.15833
                      -0.04965                      -0.98577                      -0.16059
                      -0.04448                      -0.98562                      -0.16304
                      -0.03819                      -0.98544                      -0.16569
                      -0.03050                      -0.98522                      -0.16855
                      -0.02123                      -0.98494                      -0.17159
                      -0.01025                      -0.98456                      -0.17476
                       0.00234                      -0.98403                      -0.17797
                       0.01624                      -0.98333                      -0.18111
                       0.03080                      -0.98244                      -0.18403
                       0.04503                      -0.98140                      -0.18660
                       0.05749                      -0.98036                      -0.18863
                       0.06628                      -0.97956                      -0.18993
                       0.06893                      -0.97930                      -0.19031
                       0.06838                      -0.97935                      -0.19025
                      -0.06229                      -0.98624                      -0.15311
        </DataArray>
      </PointData>
      <Lines>
        <DataArray type="Int32" Name="connectivity" format="ascii">
      0      1
      1      2
      2      3
      3      4
      4      5
      5      6
      6      7
      7      8
      8      9
      9     10
     10     11
     11     12
     12     13
     13     14
     14     15
     15     16
     16     17
     18      0
        </DataArray>
        <DataArray type="Int32" Name="offsets" format="ascii">
      2
      4
      6
      8
     10
     12
     14
     16
     18
     20
     22
     24
     26
     28
     30
     32
     34
     36
        </DataArray>
      </Lines>
    </Piece>
  </PolyData>
</VTKFile>
