<?xml version="1.0"?>
<VTKFile type="PolyData" version="0.1" byte_order="LittleEndian">
  <PolyData>
    <Piece NumberOfPoints="     19" NumberOfVerts="  0" NumberOfLines="     18"
           NumberOfStrips="  0" NumberOfPolys="      0">
      <Points>
        <DataArray type="Float32" NumberOfComponents="3" format="ascii">
                       2.49893                       1.36598                      89.60513
                       2.38503                       2.64416                      89.13486
                       2.14618                       5.23309                      88.28493
                       1.90538                       7.83762                      87.47714
                       1.60880                      11.10304                      86.49160
                       1.30386                      14.97328                      85.16702
                       1.02776                      18.79862                      83.71572
                       0.77245                      22.62335                      82.25908
                       0.54635                      26.44705                      80.79497
                       0.35681                      30.27041                      79.32498
                       0.20678                      34.09455                      77.85269
                       0.11051                      37.91851                      76.37561
                       0.07591                      41.74135                      74.89305
                       0.10760                      45.56185                      73.40456
                       0.20663                      49.37882                      71.91001
                       0.33295                      52.55664                      70.66050
                       0.45533                      55.09423                      69.65146
                       0.57779                      57.61182                      68.59067
                       0.64319                      58.88530                      68.09906
        </DataArray>
      </Points>
      <PointData>
        <DataArray type="Float32" Name="Force" NumberOfComponents="3" format="ascii">
                      -0.03238                      -0.10790                      -0.28326
                      67.60314                      -2.69144                     -23.45670
                      80.19689                     -12.51160                     -52.65382
                      69.48324                     -19.76070                     -69.29589
                     783.71203                     145.43415                     216.84237
                    1055.15875                     175.14757                     248.52367
                    1205.10747                     166.13008                     209.84404
                    1519.09355                     174.04945                     196.52254
                    1644.47697                     151.81085                     151.36356
                    1883.46598                     135.60231                     123.62790
                    2302.79064                     117.39969                     102.25751
                    2633.29882                      79.56256                      78.73102
                    3048.48277                      34.19510                      74.95802
                    3330.57506                     -29.74318                      59.29900
                    3573.05233                     -99.07807                      40.77858
                    3704.17075                    -152.71267                      15.03960
                    3610.36577                    -179.24927                     -15.92900
                    2636.95928                    -141.99246                     -25.72036
                    1155.27729                    -100.32232                    -110.45785
        </DataArray>
        <DataArray type="Float32" Name="Moment" NumberOfComponents="3" format="ascii">
                       0.00000                       0.00000                       0.00000
                       0.00000                       0.00000                       0.00000
                       0.00000                       0.00000                       0.00000
                       0.00000                       0.00000                       0.00000
                      18.31215                    -221.18817                      82.16505
                      26.19337                    -334.18616                     124.30901
                      34.76022                    -476.32533                     177.47547
                      45.20056                    -682.02831                     254.64138
                      52.80292                    -912.56973                     341.59346
                      49.54397                   -1046.39166                     392.94321
                      37.88419                   -1106.44494                     417.15216
                      22.22812                   -1176.75524                     445.72511
                       2.00201                   -1078.86100                     410.74561
                     -16.99251                   -1079.25339                     413.06603
                     -33.70641                   -1049.43359                     403.61696
                     -42.77316                    -999.51902                     385.63909
                     -42.49522                    -886.35783                     342.50042
                     -22.13772                    -442.08530                     170.93535
                     -18.08790                    -362.68900                     140.22776
        </DataArray>
        <DataArray type="Float32" Name="TranslationalVelocity" NumberOfComponents="3" format="ascii">
                       0.05987                       0.47409                       1.29771
                       0.19623                       0.92197                       2.48202
                       0.47164                       1.73443                       4.87897
                       0.74702                       2.50645                       7.28452
                       1.08890                       3.44592                      10.28994
                       1.48834                       4.69344                      13.83528
                       1.87452                       6.04630                      17.31959
                       2.24997                       7.39343                      20.78325
                       2.61424                       8.73610                      24.22642
                       2.96815                      10.07268                      27.65084
                       3.31439                      11.40107                      31.06051
                       3.65468                      12.72225                      34.45412
                       3.99258                      14.03689                      37.83233
                       4.33202                      15.34559                      41.19567
                       4.67682                      16.64891                      44.54499
                       4.97024                      17.73156                      47.32701
                       5.20972                      18.60232                      49.54539
                       5.45254                      19.51741                      51.74500
                       5.57606                      19.94054                      52.85754
        </DataArray>
        <DataArray type="Float32" Name="RotationalVelocity" NumberOfComponents="3" format="ascii">
                       0.92764                      -0.00331                      -0.10565
                       0.92685                      -0.00331                      -0.10546
                       0.92491                      -0.00330                      -0.10496
                       0.92252                      -0.00326                      -0.10427
                       0.91888                      -0.00314                      -0.10308
                       0.91391                      -0.00286                      -0.10113
                       0.90870                      -0.00244                      -0.09874
                       0.90351                      -0.00192                      -0.09610
                       0.89852                      -0.00140                      -0.09348
                       0.89384                      -0.00095                      -0.09114
                       0.88957                      -0.00068                      -0.08940
                       0.88570                      -0.00066                      -0.08841
                       0.88223                      -0.00093                      -0.08829
                       0.87919                      -0.00148                      -0.08906
                       0.87667                      -0.00229                      -0.09062
                       0.87510                      -0.00308                      -0.09237
                       0.87430                      -0.00371                      -0.09389
                       0.87386                      -0.00432                      -0.09541
                       0.87379                      -0.00460                      -0.09615
        </DataArray>
        <DataArray type="Float32" Name="TranslationalAcceleration" NumberOfComponents="3" format="ascii">
                       1.20826                      -1.20384                       0.70981
                       1.22142                      -2.31612                       1.13206
                       1.24637                      -4.56657                       1.89455
                       1.27632                      -6.82271                       2.60200
                       1.32530                      -9.63634                       3.43085
                       1.41481                     -12.95231                       4.48350
                       1.53920                     -16.21316                       5.57034
                       1.67956                     -19.45630                       6.58619
                       1.80027                     -22.68562                       7.53220
                       1.84198                     -25.90602                       8.40965
                       1.74747                     -29.12132                       9.22762
                       1.41631                     -32.32873                       9.98857
                       0.75553                     -35.52041                      10.70322
                      -0.31315                     -38.68282                      11.38295
                      -1.83170                     -41.80021                      12.03813
                      -3.42077                     -44.35827                      12.57295
                      -4.87903                     -46.37820                      13.00400
                      -6.43295                     -48.38114                      13.48032
                      -7.22378                     -49.38642                      13.68633
        </DataArray>
        <DataArray type="Float32" Name="OrientationX" NumberOfComponents="3" format="ascii">
                       0.98868                       0.12113                       0.08858
                       0.98871                       0.12075                       0.08872
                       0.98881                       0.11965                       0.08913
                       0.98894                       0.11815                       0.08969
                       0.98915                       0.11565                       0.09061
                       0.99293                       0.10108                       0.06220
                       0.99517                       0.08855                       0.04241
                       0.99679                       0.07580                       0.02576
                       0.99810                       0.06107                       0.00863
                       0.99899                       0.04420                      -0.00836
                       0.99940                       0.02541                      -0.02336
                       0.99929                       0.00468                      -0.03741
                       0.99865                      -0.01687                      -0.04907
                       0.99772                      -0.03730                      -0.05632
                       0.99636                      -0.05654                      -0.06373
                       0.99503                      -0.06995                      -0.07092
                       0.99400                      -0.07749                      -0.07719
                       0.99344                      -0.08097                      -0.08075
                       0.99345                      -0.08079                      -0.08082
        </DataArray>
        <DataArray type="Float32" Name="OrientationY" NumberOfComponents="3" format="ascii">
                       0.12473                      -0.33508                      -0.93390
                       0.12474                      -0.33523                      -0.93384
                       0.12477                      -0.33561                      -0.93370
                       0.12481                      -0.33607                      -0.93353
                       0.12487                      -0.33677                      -0.93327
                       0.09333                      -0.34118                      -0.93535
                       0.07053                      -0.34436                      -0.93618
                       0.05059                      -0.34702                      -0.93649
                       0.02948                      -0.34946                      -0.93649
                       0.00772                      -0.35154                      -0.93614
                      -0.01288                      -0.35313                      -0.93549
                      -0.03333                      -0.35423                      -0.93456
                      -0.05187                      -0.35481                      -0.93350
                      -0.06591                      -0.35501                      -0.93253
                      -0.07972                      -0.35483                      -0.93153
                      -0.09124                      -0.35435                      -0.93065
                      -0.09980                      -0.35383                      -0.92997
                      -0.10438                      -0.35350                      -0.92959
                      -0.10438                      -0.35350                      -0.92959
        </DataArray>
        <DataArray type="Float32" Name="OrientationZ" NumberOfComponents="3" format="ascii">
                      -0.08344                       0.93437                      -0.34640
                      -0.08302                       0.93436                      -0.34651
                      -0.08181                       0.93437                      -0.34678
                      -0.08015                       0.93440                      -0.34709
                      -0.07742                       0.93446                      -0.34755
                      -0.07332                       0.93455                      -0.34820
                      -0.06829                       0.93465                      -0.34894
                      -0.06204                       0.93479                      -0.34975
                      -0.05417                       0.93496                      -0.35060
                      -0.04432                       0.93513                      -0.35153
                      -0.03202                       0.93523                      -0.35259
                      -0.01762                       0.93515                      -0.35382
                      -0.00167                       0.93479                      -0.35521
                       0.01479                       0.93412                      -0.35666
                       0.03005                       0.93322                      -0.35804
                       0.03997                       0.93249                      -0.35898
                       0.04475                       0.93210                      -0.35944
                       0.04672                       0.93192                      -0.35963
                       0.04654                       0.93194                      -0.35962
        </DataArray>
      </PointData>
      <Lines>
        <DataArray type="Int32" Name="connectivity" format="ascii">
      0      1
      1      2
      2      3
      3      4
      4      5
      5      6
      6      7
      7      8
      8      9
      9     10
     10     11
     11     12
     12     13
     13     14
     14     15
     15     16
     16     17
     17     18
        </DataArray>
        <DataArray type="Int32" Name="offsets" format="ascii">
      2
      4
      6
      8
     10
     12
     14
     16
     18
     20
     22
     24
     26
     28
     30
     32
     34
     36
        </DataArray>
      </Lines>
    </Piece>
  </PolyData>
</VTKFile>
