<?xml version="1.0"?>
<VTKFile type="PolyData" version="0.1" byte_order="LittleEndian">
  <PolyData>
    <Piece NumberOfPoints="     19" NumberOfVerts="  0" NumberOfLines="     18"
           NumberOfStrips="  0" NumberOfPolys="      0">
      <Points>
        <DataArray type="Float32" NumberOfComponents="3" format="ascii">
                       2.93919                       1.47654                      89.94284
                       2.85928                       2.83143                      89.78229
                       2.68963                       5.55216                      89.55647
                       2.51822                       8.27832                      89.37363
                       2.30777                      11.68978                      89.16785
                       2.10243                      15.76759                      88.76633
                       1.92150                      19.82917                      88.22508
                       1.75774                      23.88989                      87.67238
                       1.61824                      27.94956                      87.10609
                       1.50868                      32.00839                      86.52819
                       1.43110                      36.06678                      85.94333
                       1.39692                      40.12422                      85.34877
                       1.41220                      44.18016                      84.74428
                       1.48031                      48.23393                      84.12981
                       1.60223                      52.28485                      83.50577
                       1.73872                      55.65838                      82.97955
                       1.86449                      58.35471                      82.54768
                       1.98797                      61.04286                      82.06086
                       2.05433                      62.39278                      81.85843
        </DataArray>
      </Points>
      <PointData>
        <DataArray type="Float32" Name="Force" NumberOfComponents="3" format="ascii">
                      -0.03391                      -0.03553                      -0.27756
                      63.56557                       0.89823                     -23.42891
                      74.18599                      -2.35042                     -54.69178
                      62.85965                      -5.14534                     -71.48501
                     710.12005                      59.52164                     177.97753
                     987.92018                      78.90435                     245.27085
                    1099.51103                      73.38977                     194.62005
                    1348.17932                      74.28676                     169.99522
                    1381.73695                      58.84239                     108.92386
                    1488.23283                      44.38658                      63.41174
                    1693.78286                      25.41144                       9.82164
                    1721.44932                      -1.94198                     -47.45141
                    1781.48577                     -31.07796                     -92.76540
                    1604.08384                     -56.24873                    -133.18438
                    1377.17951                     -70.79274                    -152.96603
                    1106.37605                     -69.80613                    -151.62242
                    1299.30614                     -86.25369                    -171.63902
                    1097.06112                     -74.49332                    -144.25060
                    1200.40432                     -80.84491                    -154.55202
        </DataArray>
        <DataArray type="Float32" Name="Moment" NumberOfComponents="3" format="ascii">
                       0.00000                       0.00000                       0.00000
                       0.00000                       0.00000                       0.00000
                       0.00000                       0.00000                       0.00000
                       0.00000                       0.00000                       0.00000
                      10.27736                    -192.55469                      23.39067
                      16.74686                    -337.66633                      41.17401
                      22.15882                    -491.69570                      60.22798
                      27.59399                    -697.31446                      85.88234
                      31.32214                    -954.60146                     118.35854
                      26.31151                   -1073.99143                     134.25207
                      16.43135                   -1151.40663                     145.36789
                       2.91638                   -1219.21457                     155.69806
                     -10.81081                   -1009.23932                     130.49907
                     -23.41120                    -967.67324                     126.71810
                     -33.24348                    -906.07461                     120.03488
                     -37.73862                    -842.31928                     112.42361
                     -34.60271                    -710.66872                      95.18980
                     -18.49976                    -368.04257                      49.36790
                     -19.89011                    -397.15953                      53.26460
        </DataArray>
        <DataArray type="Float32" Name="TranslationalVelocity" NumberOfComponents="3" format="ascii">
                       0.40844                       0.13849                       1.42736
                       0.56166                       0.29649                       2.68445
                       0.87157                       0.52533                       5.20710
                       1.18742                       0.71482                       7.72909
                       1.59312                       0.93100                      10.87498
                       2.09367                       1.32750                      14.61873
                       2.61435                       1.84798                      18.32753
                       3.16695                       2.37507                      22.01491
                       3.76744                       2.90976                      25.68086
                       4.43947                       3.44918                      29.32581
                       5.20044                       3.98822                      32.95192
                       6.09095                       4.52545                      36.55551
                       7.14270                       5.05632                      40.13418
                       8.37964                       5.57513                      43.68553
                       9.80942                       6.07601                      47.20868
                      11.13279                       6.47838                      50.12515
                      12.26326                       6.79818                      52.44640
                      13.42315                       7.16388                      54.75627
                      14.00738                       7.30936                      55.91597
        </DataArray>
        <DataArray type="Float32" Name="RotationalVelocity" NumberOfComponents="3" format="ascii">
                       0.92801                       0.00952                      -0.11372
                       0.92726                       0.00942                      -0.11421
                       0.92544                       0.00912                      -0.11573
                       0.92324                       0.00874                      -0.11785
                       0.91992                       0.00813                      -0.12130
                       0.91536                       0.00725                      -0.12628
                       0.91048                       0.00619                      -0.13271
                       0.90556                       0.00479                      -0.14191
                       0.90072                       0.00285                      -0.15555
                       0.89588                       0.00019                      -0.17523
                       0.89081                      -0.00346                      -0.20295
                       0.88529                      -0.00804                      -0.23819
                       0.87918                      -0.01343                      -0.27983
                       0.87268                      -0.01929                      -0.32517
                       0.86627                      -0.02502                      -0.36952
                       0.86172                      -0.02901                      -0.40029
                       0.85927                      -0.03115                      -0.41684
                       0.85795                      -0.03234                      -0.42599
                       0.85779                      -0.03251                      -0.42738
        </DataArray>
        <DataArray type="Float32" Name="TranslationalAcceleration" NumberOfComponents="3" format="ascii">
                       0.74395                      -1.21127                       0.26275
                       0.76437                      -2.40841                       0.29441
                       0.79210                      -4.80153                       0.30107
                       0.78820                      -7.18775                       0.35030
                       0.72287                     -10.16181                       0.53368
                       0.55453                     -13.68647                       1.10473
                       0.26693                     -17.13210                       2.06218
                      -0.17872                     -20.51135                       3.30695
                      -0.84112                     -23.82629                       4.83523
                      -1.80648                     -27.08418                       6.63398
                      -3.13451                     -30.29875                       8.66052
                      -4.97650                     -33.47231                      10.92817
                      -7.44672                     -36.61076                      13.42040
                     -10.62960                     -39.71893                      16.11660
                     -14.54768                     -42.79999                      18.98711
                     -18.31044                     -45.35127                      21.48131
                     -21.58696                     -47.38007                      23.53351
                     -24.95575                     -49.37545                      25.64219
                     -26.66290                     -50.40115                      26.66836
        </DataArray>
        <DataArray type="Float32" Name="OrientationX" NumberOfComponents="3" format="ascii">
                       0.99209                       0.07111                       0.10346
                       0.99211                       0.07077                       0.10350
                       0.99216                       0.06980                       0.10362
                       0.99224                       0.06848                       0.10378
                       0.99236                       0.06627                       0.10406
                       0.99558                       0.05916                       0.07294
                       0.99735                       0.05223                       0.05069
                       0.99851                       0.04459                       0.03144
                       0.99931                       0.03542                       0.01124
                       0.99966                       0.02450                      -0.00935
                       0.99953                       0.01173                      -0.02848
                       0.99888                      -0.00273                      -0.04717
                       0.99780                      -0.01821                      -0.06374
                       0.99656                      -0.03347                      -0.07579
                       0.99500                      -0.04773                      -0.08769
                       0.99354                      -0.05736                      -0.09794
                       0.99242                      -0.06240                      -0.10586
                       0.99181                      -0.06460                      -0.11016
                       0.99182                      -0.06442                      -0.11019
        </DataArray>
        <DataArray type="Float32" Name="OrientationY" NumberOfComponents="3" format="ascii">
                       0.11105                      -0.11270                      -0.98740
                       0.11107                      -0.11306                      -0.98736
                       0.11113                      -0.11397                      -0.98725
                       0.11119                      -0.11508                      -0.98711
                       0.11128                      -0.11677                      -0.98691
                       0.07968                      -0.12106                      -0.98944
                       0.05688                      -0.12477                      -0.99055
                       0.03693                      -0.12818                      -0.99106
                       0.01580                      -0.13140                      -0.99120
                      -0.00598                      -0.13430                      -0.99092
                      -0.02661                      -0.13675                      -0.99025
                      -0.04709                      -0.13873                      -0.98921
                      -0.06567                      -0.14021                      -0.98794
                      -0.07978                      -0.14127                      -0.98675
                      -0.09366                      -0.14183                      -0.98545
                      -0.10522                      -0.14187                      -0.98428
                      -0.11380                      -0.14164                      -0.98336
                      -0.11838                      -0.14146                      -0.98284
                      -0.11838                      -0.14146                      -0.98284
        </DataArray>
        <DataArray type="Float32" Name="OrientationZ" NumberOfComponents="3" format="ascii">
                      -0.05856                       0.99108                      -0.11970
                      -0.05818                       0.99106                      -0.12003
                      -0.05711                       0.99103                      -0.12083
                      -0.05565                       0.99099                      -0.12180
                      -0.05326                       0.99095                      -0.12325
                      -0.04970                       0.99088                      -0.12524
                      -0.04541                       0.99081                      -0.12741
                      -0.04016                       0.99075                      -0.12964
                      -0.03363                       0.99070                      -0.13187
                      -0.02553                       0.99064                      -0.13410
                      -0.01551                       0.99054                      -0.13637
                      -0.00384                       0.99033                      -0.13871
                       0.00905                       0.98995                      -0.14110
                       0.02232                       0.98941                      -0.14345
                       0.03460                       0.98874                      -0.14559
                       0.04256                       0.98822                      -0.14699
                       0.04637                       0.98795                      -0.14767
                       0.04791                       0.98783                      -0.14795
                       0.04773                       0.98785                      -0.14793
        </DataArray>
      </PointData>
      <Lines>
        <DataArray type="Int32" Name="connectivity" format="ascii">
      0      1
      1      2
      2      3
      3      4
      4      5
      5      6
      6      7
      7      8
      8      9
      9     10
     10     11
     11     12
     12     13
     13     14
     14     15
     15     16
     16     17
     17     18
        </DataArray>
        <DataArray type="Int32" Name="offsets" format="ascii">
      2
      4
      6
      8
     10
     12
     14
     16
     18
     20
     22
     24
     26
     28
     30
     32
     34
     36
        </DataArray>
      </Lines>
    </Piece>
  </PolyData>
</VTKFile>
