<?xml version="1.0"?>
<VTKFile type="PolyData" version="0.1" byte_order="LittleEndian">
  <PolyData>
    <Piece NumberOfPoints="     19" NumberOfVerts="  0" NumberOfLines="     18"
           NumberOfStrips="  0" NumberOfPolys="      0">
      <Points>
        <DataArray type="Float32" NumberOfComponents="3" format="ascii">
                       2.86647                      -0.62477                      88.78237
                       2.65291                      -1.17505                      87.54971
                       2.20040                      -2.18833                      85.04964
                       1.74027                      -3.15940                      82.53193
                       1.16802                      -4.34651                      79.37224
                       0.55930                      -5.89896                      75.62508
                       0.00648                      -7.56609                      71.92024
                      -0.51685                      -9.23058                      68.20994
                      -1.00086                     -10.89361                      64.49363
                      -1.43750                     -12.55293                      60.76981
                      -1.82475                     -14.20550                      57.03755
                      -2.14656                     -15.85185                      53.29632
                      -2.39489                     -17.49208                      49.54679
                      -2.56576                     -19.12651                      45.79035
                      -2.65972                     -20.75564                      42.02881
                      -2.68901                     -22.11012                      38.89186
                      -2.68806                     -23.19954                      36.38466
                      -2.67935                     -24.33927                      33.89871
                      -2.67760                     -24.87079                      32.63959
        </DataArray>
      </Points>
      <PointData>
        <DataArray type="Float32" Name="Force" NumberOfComponents="3" format="ascii">
                       0.17900                      -3.26430                       1.43674
                      55.64063                     -25.74756                       1.97026
                      79.20306                     -60.91675                      13.85625
                      76.43656                     -79.01658                      22.64821
                     663.46822                     243.70017                    -218.25827
                     865.25522                     266.11287                    -255.78760
                    1001.86787                     253.44030                    -263.67856
                    1275.28802                     272.22207                    -300.76351
                    1364.22616                     239.29756                    -282.53698
                    1546.44285                     232.77208                    -281.26461
                    1884.94270                     240.46421                    -291.64920
                    2117.66017                     236.01763                    -271.84322
                    2426.84529                     258.40707                    -255.97549
                    2614.91187                     253.23057                    -210.24043
                    2802.27178                     258.24641                    -166.73753
                    3017.23032                     271.50431                    -140.86153
                    3104.31458                     280.03650                    -128.57890
                    2459.26942                     259.98559                    -114.32390
                    1146.22800                      38.97931                     -17.82016
        </DataArray>
        <DataArray type="Float32" Name="Moment" NumberOfComponents="3" format="ascii">
                       0.00000                       0.00000                       0.00000
                       0.00000                       0.00000                       0.00000
                       0.00000                       0.00000                       0.00000
                       0.00000                       0.00000                       0.00000
                      29.26743                      80.15376                     178.46515
                      61.93991                     176.38114                     393.02578
                      77.71469                     232.64614                     518.89606
                     102.23381                     326.44517                     728.95523
                     128.06397                     445.10915                     995.34494
                     128.05425                     498.47752                    1116.60058
                     118.59014                     539.69797                    1211.43372
                     102.05609                     575.38368                    1294.57264
                      65.68636                     499.74412                    1127.24876
                      42.66744                     502.08713                    1135.44006
                      20.87738                     488.76172                    1107.87918
                       7.43475                     464.85829                    1055.24474
                       1.58901                     409.82743                     930.94141
                      -0.01937                     200.86010                     456.36217
                       0.20623                     156.99624                     356.67415
        </DataArray>
        <DataArray type="Float32" Name="TranslationalVelocity" NumberOfComponents="3" format="ascii">
                       0.24217                       1.25165                      -0.49552
                       0.16508                       2.40447                      -0.99680
                       0.02089                       4.74258                      -1.91852
                      -0.11726                       7.09055                      -2.79952
                      -0.28471                      10.02371                      -3.87302
                      -0.49554                      13.47390                      -5.27174
                      -0.71450                      16.85530                      -6.76474
                      -0.93113                      20.21328                      -8.24455
                      -1.14934                      23.54724                      -9.71168
                      -1.37449                      26.85815                     -11.16385
                      -1.61135                      30.14981                     -12.59954
                      -1.86867                      33.41953                     -14.01863
                      -2.15420                      36.66727                     -15.42235
                      -2.47419                      39.89315                     -16.81282
                      -2.83157                      43.09816                     -18.19292
                      -3.15576                      45.75555                     -19.33764
                      -3.43064                      47.87198                     -20.25735
                      -3.71733                      49.96800                     -21.21916
                      -3.85768                      51.02985                     -21.66743
        </DataArray>
        <DataArray type="Float32" Name="RotationalVelocity" NumberOfComponents="3" format="ascii">
                       0.91650                       0.01201                      -0.11376
                       0.91555                       0.01186                      -0.11353
                       0.91321                       0.01153                      -0.11297
                       0.91033                       0.01115                      -0.11231
                       0.90595                       0.01062                      -0.11131
                       0.89996                       0.00999                      -0.10999
                       0.89356                       0.00968                      -0.10874
                       0.88700                       0.01000                      -0.10775
                       0.88044                       0.01129                      -0.10719
                       0.87399                       0.01389                      -0.10724
                       0.86781                       0.01822                      -0.10812
                       0.86197                       0.02418                      -0.10978
                       0.85663                       0.03156                      -0.11218
                       0.85195                       0.03984                      -0.11509
                       0.84814                       0.04812                      -0.11815
                       0.84590                       0.05400                      -0.12041
                       0.84484                       0.05725                      -0.12168
                       0.84438                       0.05915                      -0.12246
                       0.84437                       0.05951                      -0.12262
        </DataArray>
        <DataArray type="Float32" Name="TranslationalAcceleration" NumberOfComponents="3" format="ascii">
                       0.16410                       0.37328                       1.46274
                       0.23606                       0.68346                       2.59862
                       0.36886                       1.23486                       4.88705
                       0.45641                       1.78048                       7.17006
                       0.47522                       2.49557                      10.00564
                       0.33298                       3.55041                      13.32425
                      -0.02521                       4.79911                      16.54158
                      -0.62050                       6.14229                      19.68888
                      -1.47323                       7.57674                      22.76287
                      -2.59828                       9.09415                      25.76152
                      -3.97582                      10.67727                      28.69022
                      -5.63741                      12.32737                      31.53482
                      -7.57603                      14.03678                      34.28807
                      -9.76997                      15.79805                      36.94442
                     -12.17714                      17.60279                      39.50338
                     -14.29629                      19.13335                      41.57149
                     -16.03196                      20.37597                      43.18968
                     -17.75544                      21.65832                      44.77274
                     -18.60563                      22.27598                      45.58310
        </DataArray>
        <DataArray type="Float32" Name="OrientationX" NumberOfComponents="3" format="ascii">
                       0.94844                       0.19324                      -0.25125
                       0.94853                       0.19348                      -0.25071
                       0.94879                       0.19417                      -0.24917
                       0.94915                       0.19511                      -0.24708
                       0.94973                       0.19667                      -0.24359
                       0.95889                       0.17042                      -0.22690
                       0.96527                       0.15254                      -0.21208
                       0.97070                       0.13784                      -0.19684
                       0.97609                       0.12278                      -0.17938
                       0.98126                       0.10797                      -0.15960
                       0.98587                       0.09521                      -0.13784
                       0.98996                       0.08338                      -0.11414
                       0.99322                       0.07382                      -0.08982
                       0.99540                       0.06840                      -0.06703
                       0.99699                       0.06247                      -0.04592
                       0.99793                       0.05611                      -0.03150
                       0.99846                       0.05013                      -0.02367
                       0.99871                       0.04653                      -0.02040
                       0.99871                       0.04630                      -0.02093
        </DataArray>
        <DataArray type="Float32" Name="OrientationY" NumberOfComponents="3" format="ascii">
                       0.27585                      -0.89364                       0.35401
                       0.27585                      -0.89364                       0.35401
                       0.27585                      -0.89363                       0.35401
                       0.27585                      -0.89363                       0.35401
                       0.27585                      -0.89363                       0.35403
                       0.24541                      -0.89948                       0.36155
                       0.22328                      -0.90319                       0.36660
                       0.20384                      -0.90610                       0.37072
                       0.18319                      -0.90886                       0.37472
                       0.16183                      -0.91137                       0.37843
                       0.14156                      -0.91345                       0.38153
                       0.12138                      -0.91526                       0.38414
                       0.10304                      -0.91671                       0.38604
                       0.08913                      -0.91770                       0.38714
                       0.07543                      -0.91861                       0.38791
                       0.06395                      -0.91930                       0.38833
                       0.05539                      -0.91977                       0.38854
                       0.05080                      -0.91999                       0.38863
                       0.05079                      -0.91999                       0.38863
        </DataArray>
        <DataArray type="Float32" Name="OrientationZ" NumberOfComponents="3" format="ascii">
                      -0.15612                      -0.40506                      -0.90086
                      -0.15555                      -0.40495                      -0.90101
                      -0.15393                      -0.40462                      -0.90144
                      -0.15172                      -0.40417                      -0.90201
                      -0.14805                      -0.40342                      -0.90296
                      -0.14248                      -0.40237                      -0.90432
                      -0.13563                      -0.40122                      -0.90588
                      -0.12726                      -0.39998                      -0.90764
                      -0.11702                      -0.39862                      -0.90962
                      -0.10460                      -0.39716                      -0.91177
                      -0.08959                      -0.39565                      -0.91402
                      -0.07244                      -0.39413                      -0.91619
                      -0.05384                      -0.39268                      -0.91810
                      -0.03503                      -0.39133                      -0.91958
                      -0.01795                      -0.39020                      -0.92055
                      -0.00717                      -0.38954                      -0.92098
                      -0.00229                      -0.38925                      -0.92113
                      -0.00069                      -0.38916                      -0.92117
                      -0.00126                      -0.38919                      -0.92116
        </DataArray>
      </PointData>
      <Lines>
        <DataArray type="Int32" Name="connectivity" format="ascii">
      0      1
      1      2
      2      3
      3      4
      4      5
      5      6
      6      7
      7      8
      8      9
      9     10
     10     11
     11     12
     12     13
     13     14
     14     15
     15     16
     16     17
     17     18
        </DataArray>
        <DataArray type="Int32" Name="offsets" format="ascii">
      2
      4
      6
      8
     10
     12
     14
     16
     18
     20
     22
     24
     26
     28
     30
     32
     34
     36
        </DataArray>
      </Lines>
    </Piece>
  </PolyData>
</VTKFile>
