
FAST Summary File

Predictions were generated on 12-Jan-2021 at 14:16:45 using OpenFAST, compiled as a 64-bit application using double precision at commit v2.4.0-138-g9a6c1967
  compiled with
    NWTC Subroutine Library
    ElastoDyn
    BeamDyn (unknown version, unknown date) [not called]
    InflowWind
    AeroDyn14 (unknown version, unknown date) [not called]
    AeroDyn
    ServoDyn (unknown version, unknown date) [not called]
    HydroDyn (unknown version, unknown date) [not called]
    SubDyn (unknown version, unknown date) [not called]
    ExtPtfm_MCKF (unknown version, unknown date) [not called]
    MAP (unknown version, unknown date) [not called]
    FEAMooring (unknown version, unknown date) [not called]
    MoorDyn (unknown version, unknown date) [not called]
    OrcaFlexInterface (unknown version, unknown date) [not called]
    IceFloe (unknown version, unknown date) [not called]
    IceDyn (unknown version, unknown date) [not called]


Modeling a land-based turbine
Description from the FAST input file: 
  IEA task 37 RWT turbine -- https://github.com/IEAWindTask37/IEA-3.4-130-RWT

Interpolation order for input/output time histories: 2 (quadratic)
Number of correction iterations:  0


   Requested Time Steps  
  -------------------------------------------------
  Component          Time Step (s)    Subcycles (-)
  -----------------  ---------------  -------------
  FAST (glue code)    6.250E-03
  InflowWind          6.250E-03              1
  ElastoDyn           6.250E-03              1
  AeroDyn             6.250E-03              1
  FAST output files   6.250E-03              1


   Requested Channels in FAST Output File(s)  
  --------------------------------------------
  Number  Name                  Units                 Generated by
  ------  --------------------  --------------------  ------------
       1  Time                  (s)                   OpenFAST
       2  Azimuth               (deg)                 ElastoDyn
       3  BldPitch1             (deg)                 ElastoDyn
       4  GenSpeed              (rpm)                 ElastoDyn
       5  IPDefl1               (m)                   ElastoDyn
       6  LSSGagMya             (kN-m)                ElastoDyn
       7  LSSGagMza             (kN-m)                ElastoDyn
       8  OoPDefl1              (m)                   ElastoDyn
       9  RootFxb1              (kN)                  ElastoDyn
      10  RootFyb1              (kN)                  ElastoDyn
      11  RootFzb1              (kN)                  ElastoDyn
      12  RootMxb1              (kN-m)                ElastoDyn
      13  RootMyb1              (kN-m)                ElastoDyn
      14  RootMzb1              (kN-m)                ElastoDyn
      15  RotSpeed              (rpm)                 ElastoDyn
      16  RotTorq               (kN-m)                ElastoDyn
      17  YawPzn                (deg)                 ElastoDyn
