
FAST Summary File

Predictions were generated on 14-Jan-2021 at 17:43:19 using OpenFAST, compiled as a 64-bit application using double precision at commit v2.5.0-10-gb4fd3acc
  compiled with
    NWTC Subroutine Library
    ElastoDyn
    BeamDyn (unknown version, unknown date) [not called]
    InflowWind
    AeroDyn14 (unknown version, unknown date) [not called]
    AeroDyn
    ServoDyn (unknown version, unknown date) [not called]
    HydroDyn (unknown version, unknown date) [not called]
    SubDyn (unknown version, unknown date) [not called]
    ExtPtfm_MCKF (unknown version, unknown date) [not called]
    MAP (unknown version, unknown date) [not called]
    FEAMooring (unknown version, unknown date) [not called]
    MoorDyn (unknown version, unknown date) [not called]
    OrcaFlexInterface (unknown version, unknown date) [not called]
    IceFloe (unknown version, unknown date) [not called]
    IceDyn (unknown version, unknown date) [not called]


Modeling a land-based turbine
Description from the FAST input file: 
  Helical wake test case for OLAF free wake vortex in AD15

Interpolation order for input/output time histories: 1 (linear)
Number of correction iterations:  0


   Requested Time Steps  
  -------------------------------------------------
  Component          Time Step (s)    Subcycles (-)
  -----------------  ---------------  -------------
  FAST (glue code)    1.000E-01
  InflowWind          1.000E-01              1
  ElastoDyn           1.000E-01              1
  AeroDyn             1.000E-01              1
  FAST output files   1.000E-01              1


   Requested Channels in FAST Output File(s)  
  --------------------------------------------
  Number  Name                  Units                 Generated by
  ------  --------------------  --------------------  ------------
       1  Time                  (s)                   OpenFAST
       2  Wind1VelX             (m/s)                 InflowWind
       3  Wind1VelY             (m/s)                 InflowWind
       4  Wind1VelZ             (m/s)                 InflowWind
       5  Wind2VelX             (m/s)                 InflowWind
       6  Wind2VelY             (m/s)                 InflowWind
       7  Wind2VelZ             (m/s)                 InflowWind
       8  OoPDefl1              (m)                   ElastoDyn
       9  IPDefl1               (m)                   ElastoDyn
      10  TwstDefl1             (deg)                 ElastoDyn
      11  BldPitch1             (deg)                 ElastoDyn
      12  Azimuth               (deg)                 ElastoDyn
      13  RotSpeed              (rpm)                 ElastoDyn
      14  GenSpeed              (rpm)                 ElastoDyn
      15  TTDspFA               (m)                   ElastoDyn
      16  TTDspSS               (m)                   ElastoDyn
      17  TTDspTwst             (deg)                 ElastoDyn
      18  Spn2MLxb1             (kN-m)                ElastoDyn
      19  Spn2MLyb1             (kN-m)                ElastoDyn
      20  RootFxb1              (kN)                  ElastoDyn
      21  RootFyb1              (kN)                  ElastoDyn
      22  RootFzb1              (kN)                  ElastoDyn
      23  RootMxb1              (kN-m)                ElastoDyn
      24  RootMyb1              (kN-m)                ElastoDyn
      25  RootMzb1              (kN-m)                ElastoDyn
      26  RotTorq               (kN-m)                ElastoDyn
      27  LSSGagMya             (kN-m)                ElastoDyn
      28  LSSGagMza             (kN-m)                ElastoDyn
      29  YawBrFxp              (kN)                  ElastoDyn
      30  YawBrFyp              (kN)                  ElastoDyn
      31  YawBrFzp              (kN)                  ElastoDyn
      32  YawBrMxp              (kN-m)                ElastoDyn
      33  YawBrMyp              (kN-m)                ElastoDyn
      34  YawBrMzp              (kN-m)                ElastoDyn
      35  TwrBsFxt              (kN)                  ElastoDyn
      36  TwrBsFyt              (kN)                  ElastoDyn
      37  TwrBsFzt              (kN)                  ElastoDyn
      38  TwrBsMxt              (kN-m)                ElastoDyn
      39  TwrBsMyt              (kN-m)                ElastoDyn
      40  TwrBsMzt              (kN-m)                ElastoDyn
      41  RtTSR                 (-)                   AeroDyn
      42  RtVAvgxh              (m/s)                 AeroDyn
      43  RtVAvgyh              (m/s)                 AeroDyn
      44  RtVAvgzh              (m/s)                 AeroDyn
      45  RtSkew                (deg)                 AeroDyn
      46  RtAeroFxh             (N)                   AeroDyn
      47  RtAeroFyh             (N)                   AeroDyn
      48  RtAeroFzh             (N)                   AeroDyn
      49  RtAeroMxh             (N-m)                 AeroDyn
      50  RtAeroMyh             (N-m)                 AeroDyn
      51  RtAeroMzh             (N-m)                 AeroDyn
      52  RtAeroPwr             (W)                   AeroDyn
      53  RtAeroCp              (-)                   AeroDyn
      54  RtAeroCq              (-)                   AeroDyn
      55  RtAeroCt              (-)                   AeroDyn
      56  B1N9Clrnc             INVALID               AeroDyn
      57  B1N1Alpha             (deg)                 AeroDyn
      58  B1N1Cl                (-)                   AeroDyn
      59  B1N1Cd                (-)                   AeroDyn
      60  B1N1Cm                (-)                   AeroDyn
      61  B1N1Fl                (N/m)                 AeroDyn
      62  B1N1Fd                (N/m)                 AeroDyn
      63  B1N1Fn                (N/m)                 AeroDyn
      64  B1N1Ft                (N/m)                 AeroDyn
      65  B1N1Vrel              (m/s)                 AeroDyn
      66  B1N1AxInd             (-)                   AeroDyn
      67  B1N1TnInd             (-)                   AeroDyn
      68  B1N1Fx                (N/m)                 AeroDyn
      69  B1N1Fy                (N/m)                 AeroDyn
      70  B1N1Mm                (N-m/m)               AeroDyn
      71  B1N2Alpha             (deg)                 AeroDyn
      72  B1N2Cl                (-)                   AeroDyn
      73  B1N2Cd                (-)                   AeroDyn
      74  B1N2Cm                (-)                   AeroDyn
      75  B1N2Fl                (N/m)                 AeroDyn
      76  B1N2Fd                (N/m)                 AeroDyn
      77  B1N2Fn                (N/m)                 AeroDyn
      78  B1N2Ft                (N/m)                 AeroDyn
      79  B1N2Vrel              (m/s)                 AeroDyn
      80  B1N2AxInd             (-)                   AeroDyn
      81  B1N2TnInd             (-)                   AeroDyn
      82  B1N2Fx                (N/m)                 AeroDyn
      83  B1N2Fy                (N/m)                 AeroDyn
      84  B1N2Mm                (N-m/m)               AeroDyn
      85  B1N3Alpha             (deg)                 AeroDyn
      86  B1N3Cl                (-)                   AeroDyn
      87  B1N3Cd                (-)                   AeroDyn
      88  B1N3Cm                (-)                   AeroDyn
      89  B1N3Fl                (N/m)                 AeroDyn
      90  B1N3Fd                (N/m)                 AeroDyn
      91  B1N3Fn                (N/m)                 AeroDyn
      92  B1N3Ft                (N/m)                 AeroDyn
      93  B1N3Vrel              (m/s)                 AeroDyn
      94  B1N3AxInd             (-)                   AeroDyn
      95  B1N3TnInd             (-)                   AeroDyn
      96  B1N3Fx                (N/m)                 AeroDyn
      97  B1N3Fy                (N/m)                 AeroDyn
      98  B1N3Mm                (N-m/m)               AeroDyn
      99  B1N4Alpha             (deg)                 AeroDyn
     100  B1N4Cl                (-)                   AeroDyn
     101  B1N4Cd                (-)                   AeroDyn
     102  B1N4Cm                (-)                   AeroDyn
     103  B1N4Fl                (N/m)                 AeroDyn
     104  B1N4Fd                (N/m)                 AeroDyn
     105  B1N4Fn                (N/m)                 AeroDyn
     106  B1N4Ft                (N/m)                 AeroDyn
     107  B1N4Vrel              (m/s)                 AeroDyn
     108  B1N4AxInd             (-)                   AeroDyn
     109  B1N4TnInd             (-)                   AeroDyn
     110  B1N4Fx                (N/m)                 AeroDyn
     111  B1N4Fy                (N/m)                 AeroDyn
     112  B1N4Mm                (N-m/m)               AeroDyn
     113  B1N5Alpha             (deg)                 AeroDyn
     114  B1N5Cl                (-)                   AeroDyn
     115  B1N5Cd                (-)                   AeroDyn
     116  B1N5Cm                (-)                   AeroDyn
     117  B1N5Fl                (N/m)                 AeroDyn
     118  B1N5Fd                (N/m)                 AeroDyn
     119  B1N5Fn                (N/m)                 AeroDyn
     120  B1N5Ft                (N/m)                 AeroDyn
     121  B1N5Vrel              (m/s)                 AeroDyn
     122  B1N5AxInd             (-)                   AeroDyn
     123  B1N5TnInd             (-)                   AeroDyn
     124  B1N5Fx                (N/m)                 AeroDyn
     125  B1N5Fy                (N/m)                 AeroDyn
     126  B1N5Mm                (N-m/m)               AeroDyn
     127  B1N6Alpha             (deg)                 AeroDyn
     128  B1N6Cl                (-)                   AeroDyn
     129  B1N6Cd                (-)                   AeroDyn
     130  B1N6Cm                (-)                   AeroDyn
     131  B1N6Fl                (N/m)                 AeroDyn
     132  B1N6Fd                (N/m)                 AeroDyn
     133  B1N6Fn                (N/m)                 AeroDyn
     134  B1N6Ft                (N/m)                 AeroDyn
     135  B1N6Vrel              (m/s)                 AeroDyn
     136  B1N6AxInd             (-)                   AeroDyn
     137  B1N6TnInd             (-)                   AeroDyn
     138  B1N6Fx                (N/m)                 AeroDyn
     139  B1N6Fy                (N/m)                 AeroDyn
     140  B1N6Mm                (N-m/m)               AeroDyn
     141  B1N7Alpha             (deg)                 AeroDyn
     142  B1N7Cl                (-)                   AeroDyn
     143  B1N7Cd                (-)                   AeroDyn
     144  B1N7Cm                (-)                   AeroDyn
     145  B1N7Fl                (N/m)                 AeroDyn
     146  B1N7Fd                (N/m)                 AeroDyn
     147  B1N7Fn                (N/m)                 AeroDyn
     148  B1N7Ft                (N/m)                 AeroDyn
     149  B1N7Vrel              (m/s)                 AeroDyn
     150  B1N7AxInd             (-)                   AeroDyn
     151  B1N7TnInd             (-)                   AeroDyn
     152  B1N7Fx                (N/m)                 AeroDyn
     153  B1N7Fy                (N/m)                 AeroDyn
     154  B1N7Mm                (N-m/m)               AeroDyn
     155  B1N8Alpha             (deg)                 AeroDyn
     156  B1N8Cl                (-)                   AeroDyn
     157  B1N8Cd                (-)                   AeroDyn
     158  B1N8Cm                (-)                   AeroDyn
     159  B1N8Fl                (N/m)                 AeroDyn
     160  B1N8Fd                (N/m)                 AeroDyn
     161  B1N8Fn                (N/m)                 AeroDyn
     162  B1N8Ft                (N/m)                 AeroDyn
     163  B1N8Vrel              (m/s)                 AeroDyn
     164  B1N8AxInd             (-)                   AeroDyn
     165  B1N8TnInd             (-)                   AeroDyn
     166  B1N8Fx                (N/m)                 AeroDyn
     167  B1N8Fy                (N/m)                 AeroDyn
     168  B1N8Mm                (N-m/m)               AeroDyn
     169  B1N9Alpha             (deg)                 AeroDyn
     170  B1N9Cl                (-)                   AeroDyn
     171  B1N9Cd                (-)                   AeroDyn
     172  B1N9Cm                (-)                   AeroDyn
     173  B1N9Fl                (N/m)                 AeroDyn
     174  B1N9Fd                (N/m)                 AeroDyn
     175  B1N9Fn                (N/m)                 AeroDyn
     176  B1N9Ft                (N/m)                 AeroDyn
     177  B1N9Vrel              (m/s)                 AeroDyn
     178  B1N9AxInd             (-)                   AeroDyn
     179  B1N9TnInd             (-)                   AeroDyn
     180  B1N9Fx                (N/m)                 AeroDyn
     181  B1N9Fy                (N/m)                 AeroDyn
     182  B1N9Mm                (N-m/m)               AeroDyn
     183  B1N1Gam               (m^2/s)               AeroDyn
     184  B1N2Gam               (m^2/s)               AeroDyn
     185  B1N3Gam               (m^2/s)               AeroDyn
     186  B1N4Gam               (m^2/s)               AeroDyn
     187  B1N5Gam               (m^2/s)               AeroDyn
     188  B1N6Gam               (m^2/s)               AeroDyn
     189  B1N7Gam               (m^2/s)               AeroDyn
     190  B1N8Gam               (m^2/s)               AeroDyn
     191  B1N9Gam               (m^2/s)               AeroDyn
     192  B2N1Gam               (m^2/s)               AeroDyn
     193  B2N2Gam               (m^2/s)               AeroDyn
     194  B2N3Gam               (m^2/s)               AeroDyn
     195  B2N4Gam               (m^2/s)               AeroDyn
     196  B2N5Gam               (m^2/s)               AeroDyn
     197  B2N6Gam               (m^2/s)               AeroDyn
     198  B2N7Gam               (m^2/s)               AeroDyn
     199  B2N8Gam               (m^2/s)               AeroDyn
     200  B2N9Gam               (m^2/s)               AeroDyn
     201  B3N1Gam               (m^2/s)               AeroDyn
     202  B3N2Gam               (m^2/s)               AeroDyn
     203  B3N3Gam               (m^2/s)               AeroDyn
     204  B3N4Gam               (m^2/s)               AeroDyn
     205  B3N5Gam               (m^2/s)               AeroDyn
     206  B3N6Gam               (m^2/s)               AeroDyn
     207  B3N7Gam               (m^2/s)               AeroDyn
     208  B3N8Gam               (m^2/s)               AeroDyn
     209  B3N9Gam               (m^2/s)               AeroDyn
