
FAST Summary File

Predictions were generated on 10-Jun-2020 at 11:37:32 using OpenFAST, compiled as a 64-bit application using double precision at commit v2.3.0-85-g8fae6c20
  compiled with
    NWTC Subroutine Library
    ElastoDyn
    BeamDyn [not called]
    InflowWind
    AeroDyn14 [not called]
    AeroDyn
    ServoDyn
    HydroDyn [not called]
    SubDyn [not called]
    ExtPtfm_MCKF [not called]
    MAP [not called]
    FEAMooring [not called]
    MoorDyn [not called]
    OrcaFlexInterface [not called]
    IceFloe [not called]
    IceDyn [not called]


Modeling a land-based turbine
Description from the FAST input file: 
  FAST Certification Test #18: NREL 5.0 MW Baseline Wind Turbine (Onshore)

Interpolation order for input/output time histories: 2 (quadratic)
Number of correction iterations:  0


   Requested Time Steps  
  -------------------------------------------------
  Component          Time Step (s)    Subcycles (-)
  -----------------  ---------------  -------------
  FAST (glue code)    6.250E-03
  InflowWind          6.250E-03              1
  ElastoDyn           6.250E-03              1
  AeroDyn             6.250E-03              1
  ServoDyn            6.250E-03              1
  FAST output files   6.250E-03              1


   Requested Channels in FAST Output File(s)  
  --------------------------------------------
  Number  Name        Units       Generated by
  ------  ----------  ----------  ------------
       1  Time        (s)         OpenFAST
       2  Wind1VelX   (m/s)       InflowWind
       3  Wind1VelY   (m/s)       InflowWind
       4  Wind1VelZ   (m/s)       InflowWind
       5  OoPDefl1    (m)         ElastoDyn
       6  IPDefl1     (m)         ElastoDyn
       7  TwstDefl1   (deg)       ElastoDyn
       8  BldPitch1   (deg)       ElastoDyn
       9  Azimuth     (deg)       ElastoDyn
      10  RotSpeed    (rpm)       ElastoDyn
      11  GenSpeed    (rpm)       ElastoDyn
      12  TTDspFA     (m)         ElastoDyn
      13  TTDspSS     (m)         ElastoDyn
      14  TTDspTwst   (deg)       ElastoDyn
      15  Spn2MLxb1   (kN-m)      ElastoDyn
      16  Spn2MLyb1   (kN-m)      ElastoDyn
      17  RootFxb1    (kN)        ElastoDyn
      18  RootFyb1    (kN)        ElastoDyn
      19  RootFzb1    (kN)        ElastoDyn
      20  RootMxb1    (kN-m)      ElastoDyn
      21  RootMyb1    (kN-m)      ElastoDyn
      22  RootMzb1    (kN-m)      ElastoDyn
      23  RotTorq     (kN-m)      ElastoDyn
      24  LSSGagMya   (kN-m)      ElastoDyn
      25  LSSGagMza   (kN-m)      ElastoDyn
      26  YawBrFxp    (kN)        ElastoDyn
      27  YawBrFyp    (kN)        ElastoDyn
      28  YawBrFzp    (kN)        ElastoDyn
      29  YawBrMxp    (kN-m)      ElastoDyn
      30  YawBrMyp    (kN-m)      ElastoDyn
      31  YawBrMzp    (kN-m)      ElastoDyn
      32  TwrBsFxt    (kN)        ElastoDyn
      33  TwrBsFyt    (kN)        ElastoDyn
      34  TwrBsFzt    (kN)        ElastoDyn
      35  TwrBsMxt    (kN-m)      ElastoDyn
      36  TwrBsMyt    (kN-m)      ElastoDyn
      37  TwrBsMzt    (kN-m)      ElastoDyn
      38  GenPwr      (kW)        ServoDyn
      39  GenTq       (kN-m)      ServoDyn
