
Predictions were generated on 15-Jun-2020 at 13:39:51 using OpenFAST, compiled as a 64-bit application using double precision at commit v2.3.0-261-g1b229cc0
 linked with  NWTC Subroutine Library; ElastoDyn; InflowWind; AeroDyn

Description from the FAST input file: AeroElasticSE FAST driver

Time      	Wind1VelX 	Wind1VelY 	Wind1VelZ 	Azimuth   	BldPitch1 	GenSpeed  	IPDefl1   	LSSGagMya 	LSSGagMza 	OoPDefl1  	RootFxb1  	RootFyb1  	RootFzb1  	RootMxb1  	RootMyb1  	RootMzb1  	RotSpeed  	RotTorq   	Spn2MLxb1 	Spn2MLyb1 	TTDspFA   	TTDspSS   	TTDspTwst 	TwrBsFxt  	TwrBsFyt  	TwrBsFzt  	TwrBsMxt  	TwrBsMyt  	TwrBsMzt  	TwstDefl1 	YawBrFxp  	YawBrFyp  	YawBrFzp  	YawBrMxp  	YawBrMyp  	YawBrMzp  	RtTSR     	RtVAvgxh  	RtVAvgyh  	RtVAvgzh  	RtSkew    	RtAeroFxh 	RtAeroFyh 	RtAeroFzh 	RtAeroMxh 	RtAeroMyh 	RtAeroMzh 	RtAeroPwr 	RtAeroCp  	RtAeroCq  	RtAeroCt  	B1N9Clrnc 	B1N1Alpha 	B1N1Cl    	B1N1Cd    	B1N1Cm    	B1N1Fl    	B1N1Fd    	B1N1Fn    	B1N1Ft    	B1N1Vrel  	B1N1AxInd 	B1N1Fx    	B1N1Fy    	B1N1Ft    	B1N1Fn    	B1N1Mm    	B1N2Alpha 	B1N2Cl    	B1N2Cd    	B1N2Cm    	B1N2Fl    	B1N2Fd    	B1N2Fn    	B1N2Ft    	B1N2Vrel  	B1N2AxInd 	B1N2Fx    	B1N2Fy    	B1N2Ft    	B1N2Fn    	B1N2Mm    	B1N3Alpha 	B1N3Cl    	B1N3Cd    	B1N3Cm    	B1N3Fl    	B1N3Fd    	B1N3Fn    	B1N3Ft    	B1N3Vrel  	B1N3AxInd 	B1N3Fx    	B1N3Fy    	B1N3Ft    	B1N3Fn    	B1N3Mm    	B1N4Alpha 	B1N4Cl    	B1N4Cd    	B1N4Cm    	B1N4Fl    	B1N4Fd    	B1N4Fn    	B1N4Ft    	B1N4Vrel  	B1N4AxInd 	B1N4Fx    	B1N4Fy    	B1N4Ft    	B1N4Fn    	B1N4Mm    	B1N5Alpha 	B1N5Cl    	B1N5Cd    	B1N5Cm    	B1N5Fl    	B1N5Fd    	B1N5Fn    	B1N5Ft    	B1N5Vrel  	B1N5AxInd 	B1N5Fx    	B1N5Fy    	B1N5Ft    	B1N5Fn    	B1N5Mm    	B1N6Alpha 	B1N6Cl    	B1N6Cd    	B1N6Cm    	B1N6Fl    	B1N6Fd    	B1N6Fn    	B1N6Ft    	B1N6Vrel  	B1N6AxInd 	B1N6Fx    	B1N6Fy    	B1N6Ft    	B1N6Fn    	B1N6Mm    	B1N7Alpha 	B1N7Cl    	B1N7Cd    	B1N7Cm    	B1N7Fl    	B1N7Fd    	B1N7Fn    	B1N7Ft    	B1N7Vrel  	B1N7AxInd 	B1N7Fx    	B1N7Fy    	B1N7Ft    	B1N7Fn    	B1N7Mm    	B1N8Alpha 	B1N8Cl    	B1N8Cd    	B1N8Cm    	B1N8Fl    	B1N8Fd    	B1N8Fn    	B1N8Ft    	B1N8Vrel  	B1N8AxInd 	B1N8Fx    	B1N8Fy    	B1N8Ft    	B1N8Fn    	B1N8Mm    	B1N9Alpha 	B1N9Cl    	B1N9Cd    	B1N9Cm    	B1N9Fl    	B1N9Fd    	B1N9Fn    	B1N9Ft    	B1N9Vrel  	B1N9AxInd 	B1N9Fx    	B1N9Fy    	B1N9Ft    	B1N9Fn    	B1N9Mm    
(s)       	(m/s)     	(m/s)     	(m/s)     	(deg)     	(deg)     	(rpm)     	(m)       	(kN-m)    	(kN-m)    	(m)       	(kN)      	(kN)      	(kN)      	(kN-m)    	(kN-m)    	(kN-m)    	(rpm)     	(kN-m)    	(kN-m)    	(kN-m)    	(m)       	(m)       	(deg)     	(kN)      	(kN)      	(kN)      	(kN-m)    	(kN-m)    	(kN-m)    	(deg)     	(kN)      	(kN)      	(kN)      	(kN-m)    	(kN-m)    	(kN-m)    	(-)       	(m/s)     	(m/s)     	(m/s)     	(deg)     	(N)       	(N)       	(N)       	(N-m)     	(N-m)     	(N-m)     	(W)       	(-)       	(-)       	(-)       	INVALID   	INVALID   	INVALID   	INVALID   	INVALID   	INVALID   	INVALID   	INVALID   	INVALID   	INVALID   	INVALID   	INVALID   	INVALID   	INVALID   	INVALID   	INVALID   	INVALID   	INVALID   	INVALID   	INVALID   	INVALID   	INVALID   	INVALID   	INVALID   	INVALID   	INVALID   	INVALID   	INVALID   	INVALID   	INVALID   	INVALID   	INVALID   	INVALID   	INVALID   	INVALID   	INVALID   	INVALID   	INVALID   	INVALID   	INVALID   	INVALID   	INVALID   	INVALID   	INVALID   	INVALID   	INVALID   	INVALID   	INVALID   	INVALID   	INVALID   	INVALID   	INVALID   	INVALID   	INVALID   	INVALID   	INVALID   	INVALID   	INVALID   	INVALID   	INVALID   	INVALID   	INVALID   	INVALID   	INVALID   	INVALID   	INVALID   	INVALID   	INVALID   	INVALID   	INVALID   	INVALID   	INVALID   	INVALID   	INVALID   	INVALID   	INVALID   	INVALID   	INVALID   	INVALID   	INVALID   	INVALID   	INVALID   	INVALID   	INVALID   	INVALID   	INVALID   	INVALID   	INVALID   	INVALID   	INVALID   	INVALID   	INVALID   	INVALID   	INVALID   	INVALID   	INVALID   	INVALID   	INVALID   	INVALID   	INVALID   	INVALID   	INVALID   	INVALID   	INVALID   	INVALID   	INVALID   	INVALID   	INVALID   	INVALID   	INVALID   	INVALID   	INVALID   	INVALID   	INVALID   	INVALID   	INVALID   	INVALID   	INVALID   	INVALID   	INVALID   	INVALID   	INVALID   	INVALID   	INVALID   	INVALID   	INVALID   	INVALID   	INVALID   	INVALID   	INVALID   	INVALID   	INVALID   	INVALID   	INVALID   	INVALID   	INVALID   
    0.0000	 1.000E+00	-0.000E+00	 1.000E-01	 2.700E+02	 0.000E+00	 0.000E+00	 0.000E+00	 0.000E+00	 0.000E+00	 0.000E+00	 0.000E+00	 4.903E-02	 6.005E-18	-1.226E-01	 0.000E+00	 0.000E+00	 0.000E+00	 7.026E-18	-1.877E-18	-3.065E-02	 0.000E+00	-0.000E+00	 0.000E+00	 0.000E+00	-0.000E+00	-5.884E+03	 7.026E-18	-0.000E+00	 0.000E+00	 0.000E+00	 0.000E+00	-0.000E+00	-9.807E-02	 7.026E-18	-0.000E+00	 0.000E+00	 0.000E+00	 1.000E+00	-1.000E-01	-1.225E-17	 5.711E+00	-1.512E-01	-1.512E+00	-2.120E-19	 3.780E+00	-3.780E-01	-4.630E-17	 0.000E+00	 0.000E+00	 1.572E-02	-3.143E-03	 0.000E+00	 0.000E+00	 0.000E+00	 0.000E+00	 0.000E+00	 0.000E+00	 0.000E+00	 0.000E+00	 0.000E+00	 0.000E+00	 0.000E+00	 0.000E+00	 0.000E+00	 0.000E+00	 0.000E+00	 0.000E+00	 0.000E+00	 0.000E+00	 0.000E+00	 0.000E+00	 0.000E+00	 0.000E+00	 0.000E+00	 0.000E+00	 0.000E+00	 0.000E+00	 0.000E+00	 0.000E+00	 0.000E+00	 0.000E+00	 0.000E+00	 0.000E+00	 0.000E+00	 0.000E+00	 0.000E+00	 0.000E+00	 0.000E+00	 0.000E+00	 0.000E+00	 0.000E+00	 0.000E+00	 0.000E+00	 0.000E+00	 0.000E+00	 0.000E+00	 0.000E+00	 0.000E+00	 0.000E+00	 0.000E+00	 0.000E+00	 0.000E+00	 0.000E+00	 0.000E+00	 0.000E+00	 0.000E+00	 0.000E+00	 0.000E+00	 0.000E+00	 0.000E+00	 0.000E+00	 0.000E+00	 0.000E+00	 0.000E+00	 0.000E+00	 0.000E+00	 0.000E+00	 0.000E+00	 0.000E+00	 0.000E+00	 0.000E+00	 0.000E+00	 0.000E+00	 0.000E+00	 0.000E+00	 0.000E+00	 0.000E+00	 0.000E+00	 0.000E+00	 0.000E+00	 0.000E+00	 0.000E+00	 0.000E+00	 0.000E+00	 0.000E+00	 0.000E+00	 0.000E+00	 0.000E+00	 0.000E+00	 0.000E+00	 0.000E+00	 0.000E+00	 0.000E+00	 0.000E+00	 0.000E+00	 0.000E+00	 0.000E+00	 0.000E+00	 0.000E+00	 0.000E+00	 0.000E+00	 0.000E+00	 0.000E+00	 0.000E+00	 0.000E+00	 0.000E+00	 0.000E+00	 0.000E+00	 0.000E+00	 0.000E+00	 0.000E+00	 0.000E+00	 0.000E+00	 0.000E+00	 0.000E+00	 0.000E+00	 0.000E+00	 0.000E+00	 0.000E+00	 0.000E+00	 0.000E+00	 0.000E+00	 0.000E+00	 0.000E+00	 0.000E+00	 0.000E+00	 0.000E+00	 0.000E+00	 0.000E+00	 0.000E+00	 0.000E+00	 0.000E+00	 0.000E+00	 0.000E+00	 0.000E+00	 0.000E+00	 0.000E+00
  100.0000	 1.000E+00	-0.000E+00	 1.000E-01	 2.700E+02	 0.000E+00	 0.000E+00	 0.000E+00	-3.780E-04	 8.712E-21	 0.000E+00	-1.512E-04	 4.752E-02	 6.005E-18	-1.188E-01	-3.780E-04	 8.712E-21	 0.000E+00	 3.780E-03	 7.993E-05	-2.985E-02	 0.000E+00	-0.000E+00	 0.000E+00	-1.512E-04	 1.850E-19	-5.884E+03	 3.780E-03	-1.512E-02	 3.780E-04	 0.000E+00	-1.512E-04	 1.850E-19	-9.655E-02	 3.780E-03	 5.501E-20	 3.780E-04	 0.000E+00	 1.000E+00	-1.000E-01	-1.225E-17	 5.711E+00	-8.757E-02	-1.152E+00	-1.227E-19	 2.880E+00	-2.189E-01	-2.681E-17	 0.000E+00	 0.000E+00	 1.197E-02	-1.820E-03	 0.000E+00	 0.000E+00	 0.000E+00	 0.000E+00	 0.000E+00	 0.000E+00	 0.000E+00	 0.000E+00	 0.000E+00	 0.000E+00	 0.000E+00	 0.000E+00	 0.000E+00	 0.000E+00	 0.000E+00	 0.000E+00	 0.000E+00	 0.000E+00	 0.000E+00	 0.000E+00	 0.000E+00	 0.000E+00	 0.000E+00	 0.000E+00	 0.000E+00	 0.000E+00	 0.000E+00	 0.000E+00	 0.000E+00	 0.000E+00	 0.000E+00	 0.000E+00	 0.000E+00	 0.000E+00	 0.000E+00	 0.000E+00	 0.000E+00	 0.000E+00	 0.000E+00	 0.000E+00	 0.000E+00	 0.000E+00	 0.000E+00	 0.000E+00	 0.000E+00	 0.000E+00	 0.000E+00	 0.000E+00	 0.000E+00	 0.000E+00	 0.000E+00	 0.000E+00	 0.000E+00	 0.000E+00	 0.000E+00	 0.000E+00	 0.000E+00	 0.000E+00	 0.000E+00	 0.000E+00	 0.000E+00	 0.000E+00	 0.000E+00	 0.000E+00	 0.000E+00	 0.000E+00	 0.000E+00	 0.000E+00	 0.000E+00	 0.000E+00	 0.000E+00	 0.000E+00	 0.000E+00	 0.000E+00	 0.000E+00	 0.000E+00	 0.000E+00	 0.000E+00	 0.000E+00	 0.000E+00	 0.000E+00	 0.000E+00	 0.000E+00	 0.000E+00	 0.000E+00	 0.000E+00	 0.000E+00	 0.000E+00	 0.000E+00	 0.000E+00	 0.000E+00	 0.000E+00	 0.000E+00	 0.000E+00	 0.000E+00	 0.000E+00	 0.000E+00	 0.000E+00	 0.000E+00	 0.000E+00	 0.000E+00	 0.000E+00	 0.000E+00	 0.000E+00	 0.000E+00	 0.000E+00	 0.000E+00	 0.000E+00	 0.000E+00	 0.000E+00	 0.000E+00	 0.000E+00	 0.000E+00	 0.000E+00	 0.000E+00	 0.000E+00	 0.000E+00	 0.000E+00	 0.000E+00	 0.000E+00	 0.000E+00	 0.000E+00	 0.000E+00	 0.000E+00	 0.000E+00	 0.000E+00	 0.000E+00	 0.000E+00	 0.000E+00	 0.000E+00	 0.000E+00	 0.000E+00	 0.000E+00	 0.000E+00	 0.000E+00	 0.000E+00
  200.0000	 1.000E+00	-0.000E+00	 1.000E-01	 2.700E+02	 0.000E+00	 0.000E+00	 0.000E+00	-5.984E-05	 1.383E-21	 0.000E+00	-2.393E-05	 4.824E-02	 6.005E-18	-1.206E-01	-5.984E-05	 1.383E-21	 0.000E+00	 1.980E-03	 1.262E-05	-3.023E-02	 0.000E+00	-0.000E+00	 0.000E+00	-2.393E-05	 9.697E-20	-5.884E+03	 1.980E-03	-2.393E-03	 5.984E-05	 0.000E+00	-2.393E-05	 9.697E-20	-9.727E-02	 1.980E-03	 8.711E-21	 5.984E-05	 0.000E+00	 1.000E+00	-1.000E-01	-1.225E-17	 5.711E+00	-8.758E-02	-1.152E+00	-1.227E-19	 2.880E+00	-2.189E-01	-2.681E-17	 0.000E+00	 0.000E+00	 1.197E-02	-1.821E-03	 0.000E+00	 0.000E+00	 0.000E+00	 0.000E+00	 0.000E+00	 0.000E+00	 0.000E+00	 0.000E+00	 0.000E+00	 0.000E+00	 0.000E+00	 0.000E+00	 0.000E+00	 0.000E+00	 0.000E+00	 0.000E+00	 0.000E+00	 0.000E+00	 0.000E+00	 0.000E+00	 0.000E+00	 0.000E+00	 0.000E+00	 0.000E+00	 0.000E+00	 0.000E+00	 0.000E+00	 0.000E+00	 0.000E+00	 0.000E+00	 0.000E+00	 0.000E+00	 0.000E+00	 0.000E+00	 0.000E+00	 0.000E+00	 0.000E+00	 0.000E+00	 0.000E+00	 0.000E+00	 0.000E+00	 0.000E+00	 0.000E+00	 0.000E+00	 0.000E+00	 0.000E+00	 0.000E+00	 0.000E+00	 0.000E+00	 0.000E+00	 0.000E+00	 0.000E+00	 0.000E+00	 0.000E+00	 0.000E+00	 0.000E+00	 0.000E+00	 0.000E+00	 0.000E+00	 0.000E+00	 0.000E+00	 0.000E+00	 0.000E+00	 0.000E+00	 0.000E+00	 0.000E+00	 0.000E+00	 0.000E+00	 0.000E+00	 0.000E+00	 0.000E+00	 0.000E+00	 0.000E+00	 0.000E+00	 0.000E+00	 0.000E+00	 0.000E+00	 0.000E+00	 0.000E+00	 0.000E+00	 0.000E+00	 0.000E+00	 0.000E+00	 0.000E+00	 0.000E+00	 0.000E+00	 0.000E+00	 0.000E+00	 0.000E+00	 0.000E+00	 0.000E+00	 0.000E+00	 0.000E+00	 0.000E+00	 0.000E+00	 0.000E+00	 0.000E+00	 0.000E+00	 0.000E+00	 0.000E+00	 0.000E+00	 0.000E+00	 0.000E+00	 0.000E+00	 0.000E+00	 0.000E+00	 0.000E+00	 0.000E+00	 0.000E+00	 0.000E+00	 0.000E+00	 0.000E+00	 0.000E+00	 0.000E+00	 0.000E+00	 0.000E+00	 0.000E+00	 0.000E+00	 0.000E+00	 0.000E+00	 0.000E+00	 0.000E+00	 0.000E+00	 0.000E+00	 0.000E+00	 0.000E+00	 0.000E+00	 0.000E+00	 0.000E+00	 0.000E+00	 0.000E+00	 0.000E+00	 0.000E+00	 0.000E+00	 0.000E+00	 0.000E+00
  300.0000	 1.000E+00	-0.000E+00	 1.000E-01	 2.700E+02	 0.000E+00	 0.000E+00	 0.000E+00	-2.190E-04	 5.048E-21	 0.000E+00	-8.758E-05	 4.788E-02	 6.005E-18	-1.197E-01	-2.190E-04	 5.048E-21	 0.000E+00	 2.880E-03	 4.628E-05	-3.004E-02	 0.000E+00	-0.000E+00	 0.000E+00	-8.758E-05	 1.410E-19	-5.884E+03	 2.880E-03	-8.758E-03	 2.190E-04	 0.000E+00	-8.758E-05	 1.410E-19	-9.691E-02	 2.880E-03	 3.186E-20	 2.190E-04	 0.000E+00	 1.000E+00	-1.000E-01	-1.225E-17	 5.711E+00	-8.758E-02	-1.152E+00	-1.227E-19	 2.880E+00	-2.190E-01	-2.681E-17	 0.000E+00	 0.000E+00	 1.198E-02	-1.821E-03	 0.000E+00	 0.000E+00	 0.000E+00	 0.000E+00	 0.000E+00	 0.000E+00	 0.000E+00	 0.000E+00	 0.000E+00	 0.000E+00	 0.000E+00	 0.000E+00	 0.000E+00	 0.000E+00	 0.000E+00	 0.000E+00	 0.000E+00	 0.000E+00	 0.000E+00	 0.000E+00	 0.000E+00	 0.000E+00	 0.000E+00	 0.000E+00	 0.000E+00	 0.000E+00	 0.000E+00	 0.000E+00	 0.000E+00	 0.000E+00	 0.000E+00	 0.000E+00	 0.000E+00	 0.000E+00	 0.000E+00	 0.000E+00	 0.000E+00	 0.000E+00	 0.000E+00	 0.000E+00	 0.000E+00	 0.000E+00	 0.000E+00	 0.000E+00	 0.000E+00	 0.000E+00	 0.000E+00	 0.000E+00	 0.000E+00	 0.000E+00	 0.000E+00	 0.000E+00	 0.000E+00	 0.000E+00	 0.000E+00	 0.000E+00	 0.000E+00	 0.000E+00	 0.000E+00	 0.000E+00	 0.000E+00	 0.000E+00	 0.000E+00	 0.000E+00	 0.000E+00	 0.000E+00	 0.000E+00	 0.000E+00	 0.000E+00	 0.000E+00	 0.000E+00	 0.000E+00	 0.000E+00	 0.000E+00	 0.000E+00	 0.000E+00	 0.000E+00	 0.000E+00	 0.000E+00	 0.000E+00	 0.000E+00	 0.000E+00	 0.000E+00	 0.000E+00	 0.000E+00	 0.000E+00	 0.000E+00	 0.000E+00	 0.000E+00	 0.000E+00	 0.000E+00	 0.000E+00	 0.000E+00	 0.000E+00	 0.000E+00	 0.000E+00	 0.000E+00	 0.000E+00	 0.000E+00	 0.000E+00	 0.000E+00	 0.000E+00	 0.000E+00	 0.000E+00	 0.000E+00	 0.000E+00	 0.000E+00	 0.000E+00	 0.000E+00	 0.000E+00	 0.000E+00	 0.000E+00	 0.000E+00	 0.000E+00	 0.000E+00	 0.000E+00	 0.000E+00	 0.000E+00	 0.000E+00	 0.000E+00	 0.000E+00	 0.000E+00	 0.000E+00	 0.000E+00	 0.000E+00	 0.000E+00	 0.000E+00	 0.000E+00	 0.000E+00	 0.000E+00	 0.000E+00	 0.000E+00	 0.000E+00	 0.000E+00	 0.000E+00	 0.000E+00
  400.0000	 1.000E+00	-0.000E+00	 1.000E-01	 2.700E+02	 0.000E+00	 0.000E+00	 0.000E+00	-2.190E-04	 5.048E-21	 0.000E+00	-8.758E-05	 4.788E-02	 6.005E-18	-1.197E-01	-2.190E-04	 5.048E-21	 0.000E+00	 2.880E-03	 4.628E-05	-3.004E-02	 0.000E+00	-0.000E+00	 0.000E+00	-8.758E-05	 1.410E-19	-5.884E+03	 2.880E-03	-8.758E-03	 2.190E-04	 0.000E+00	-8.758E-05	 1.410E-19	-9.691E-02	 2.880E-03	 3.186E-20	 2.190E-04	 0.000E+00	 1.000E+00	-1.000E-01	-1.225E-17	 5.711E+00	-8.758E-02	-1.152E+00	-1.227E-19	 2.880E+00	-2.190E-01	-2.681E-17	 0.000E+00	 0.000E+00	 1.198E-02	-1.821E-03	 0.000E+00	 0.000E+00	 0.000E+00	 0.000E+00	 0.000E+00	 0.000E+00	 0.000E+00	 0.000E+00	 0.000E+00	 0.000E+00	 0.000E+00	 0.000E+00	 0.000E+00	 0.000E+00	 0.000E+00	 0.000E+00	 0.000E+00	 0.000E+00	 0.000E+00	 0.000E+00	 0.000E+00	 0.000E+00	 0.000E+00	 0.000E+00	 0.000E+00	 0.000E+00	 0.000E+00	 0.000E+00	 0.000E+00	 0.000E+00	 0.000E+00	 0.000E+00	 0.000E+00	 0.000E+00	 0.000E+00	 0.000E+00	 0.000E+00	 0.000E+00	 0.000E+00	 0.000E+00	 0.000E+00	 0.000E+00	 0.000E+00	 0.000E+00	 0.000E+00	 0.000E+00	 0.000E+00	 0.000E+00	 0.000E+00	 0.000E+00	 0.000E+00	 0.000E+00	 0.000E+00	 0.000E+00	 0.000E+00	 0.000E+00	 0.000E+00	 0.000E+00	 0.000E+00	 0.000E+00	 0.000E+00	 0.000E+00	 0.000E+00	 0.000E+00	 0.000E+00	 0.000E+00	 0.000E+00	 0.000E+00	 0.000E+00	 0.000E+00	 0.000E+00	 0.000E+00	 0.000E+00	 0.000E+00	 0.000E+00	 0.000E+00	 0.000E+00	 0.000E+00	 0.000E+00	 0.000E+00	 0.000E+00	 0.000E+00	 0.000E+00	 0.000E+00	 0.000E+00	 0.000E+00	 0.000E+00	 0.000E+00	 0.000E+00	 0.000E+00	 0.000E+00	 0.000E+00	 0.000E+00	 0.000E+00	 0.000E+00	 0.000E+00	 0.000E+00	 0.000E+00	 0.000E+00	 0.000E+00	 0.000E+00	 0.000E+00	 0.000E+00	 0.000E+00	 0.000E+00	 0.000E+00	 0.000E+00	 0.000E+00	 0.000E+00	 0.000E+00	 0.000E+00	 0.000E+00	 0.000E+00	 0.000E+00	 0.000E+00	 0.000E+00	 0.000E+00	 0.000E+00	 0.000E+00	 0.000E+00	 0.000E+00	 0.000E+00	 0.000E+00	 0.000E+00	 0.000E+00	 0.000E+00	 0.000E+00	 0.000E+00	 0.000E+00	 0.000E+00	 0.000E+00	 0.000E+00	 0.000E+00	 0.000E+00	 0.000E+00	 0.000E+00
  500.0000	 1.000E+00	-0.000E+00	 1.000E-01	 2.700E+02	 0.000E+00	 0.000E+00	 0.000E+00	-2.190E-04	 5.048E-21	 0.000E+00	-8.758E-05	 4.788E-02	 6.005E-18	-1.197E-01	-2.190E-04	 5.048E-21	 0.000E+00	 2.880E-03	 4.628E-05	-3.004E-02	 0.000E+00	-0.000E+00	 0.000E+00	-8.758E-05	 1.410E-19	-5.884E+03	 2.880E-03	-8.758E-03	 2.190E-04	 0.000E+00	-8.758E-05	 1.410E-19	-9.691E-02	 2.880E-03	 3.186E-20	 2.190E-04	 0.000E+00	 1.000E+00	-1.000E-01	-1.225E-17	 5.711E+00	-8.758E-02	-1.152E+00	-1.227E-19	 2.880E+00	-2.190E-01	-2.681E-17	 0.000E+00	 0.000E+00	 1.198E-02	-1.821E-03	 0.000E+00	 0.000E+00	 0.000E+00	 0.000E+00	 0.000E+00	 0.000E+00	 0.000E+00	 0.000E+00	 0.000E+00	 0.000E+00	 0.000E+00	 0.000E+00	 0.000E+00	 0.000E+00	 0.000E+00	 0.000E+00	 0.000E+00	 0.000E+00	 0.000E+00	 0.000E+00	 0.000E+00	 0.000E+00	 0.000E+00	 0.000E+00	 0.000E+00	 0.000E+00	 0.000E+00	 0.000E+00	 0.000E+00	 0.000E+00	 0.000E+00	 0.000E+00	 0.000E+00	 0.000E+00	 0.000E+00	 0.000E+00	 0.000E+00	 0.000E+00	 0.000E+00	 0.000E+00	 0.000E+00	 0.000E+00	 0.000E+00	 0.000E+00	 0.000E+00	 0.000E+00	 0.000E+00	 0.000E+00	 0.000E+00	 0.000E+00	 0.000E+00	 0.000E+00	 0.000E+00	 0.000E+00	 0.000E+00	 0.000E+00	 0.000E+00	 0.000E+00	 0.000E+00	 0.000E+00	 0.000E+00	 0.000E+00	 0.000E+00	 0.000E+00	 0.000E+00	 0.000E+00	 0.000E+00	 0.000E+00	 0.000E+00	 0.000E+00	 0.000E+00	 0.000E+00	 0.000E+00	 0.000E+00	 0.000E+00	 0.000E+00	 0.000E+00	 0.000E+00	 0.000E+00	 0.000E+00	 0.000E+00	 0.000E+00	 0.000E+00	 0.000E+00	 0.000E+00	 0.000E+00	 0.000E+00	 0.000E+00	 0.000E+00	 0.000E+00	 0.000E+00	 0.000E+00	 0.000E+00	 0.000E+00	 0.000E+00	 0.000E+00	 0.000E+00	 0.000E+00	 0.000E+00	 0.000E+00	 0.000E+00	 0.000E+00	 0.000E+00	 0.000E+00	 0.000E+00	 0.000E+00	 0.000E+00	 0.000E+00	 0.000E+00	 0.000E+00	 0.000E+00	 0.000E+00	 0.000E+00	 0.000E+00	 0.000E+00	 0.000E+00	 0.000E+00	 0.000E+00	 0.000E+00	 0.000E+00	 0.000E+00	 0.000E+00	 0.000E+00	 0.000E+00	 0.000E+00	 0.000E+00	 0.000E+00	 0.000E+00	 0.000E+00	 0.000E+00	 0.000E+00	 0.000E+00	 0.000E+00	 0.000E+00	 0.000E+00	 0.000E+00
  600.0000	 1.000E+00	-0.000E+00	 1.000E-01	 2.700E+02	 0.000E+00	 0.000E+00	 0.000E+00	-2.190E-04	 5.048E-21	 0.000E+00	-8.758E-05	 4.788E-02	 6.005E-18	-1.197E-01	-2.190E-04	 5.048E-21	 0.000E+00	 2.880E-03	 4.628E-05	-3.004E-02	 0.000E+00	-0.000E+00	 0.000E+00	-8.758E-05	 1.410E-19	-5.884E+03	 2.880E-03	-8.758E-03	 2.190E-04	 0.000E+00	-8.758E-05	 1.410E-19	-9.691E-02	 2.880E-03	 3.186E-20	 2.190E-04	 0.000E+00	 1.000E+00	-1.000E-01	-1.225E-17	 5.711E+00	-8.758E-02	-1.152E+00	-1.227E-19	 2.880E+00	-2.190E-01	-2.681E-17	 0.000E+00	 0.000E+00	 1.198E-02	-1.821E-03	 0.000E+00	 0.000E+00	 0.000E+00	 0.000E+00	 0.000E+00	 0.000E+00	 0.000E+00	 0.000E+00	 0.000E+00	 0.000E+00	 0.000E+00	 0.000E+00	 0.000E+00	 0.000E+00	 0.000E+00	 0.000E+00	 0.000E+00	 0.000E+00	 0.000E+00	 0.000E+00	 0.000E+00	 0.000E+00	 0.000E+00	 0.000E+00	 0.000E+00	 0.000E+00	 0.000E+00	 0.000E+00	 0.000E+00	 0.000E+00	 0.000E+00	 0.000E+00	 0.000E+00	 0.000E+00	 0.000E+00	 0.000E+00	 0.000E+00	 0.000E+00	 0.000E+00	 0.000E+00	 0.000E+00	 0.000E+00	 0.000E+00	 0.000E+00	 0.000E+00	 0.000E+00	 0.000E+00	 0.000E+00	 0.000E+00	 0.000E+00	 0.000E+00	 0.000E+00	 0.000E+00	 0.000E+00	 0.000E+00	 0.000E+00	 0.000E+00	 0.000E+00	 0.000E+00	 0.000E+00	 0.000E+00	 0.000E+00	 0.000E+00	 0.000E+00	 0.000E+00	 0.000E+00	 0.000E+00	 0.000E+00	 0.000E+00	 0.000E+00	 0.000E+00	 0.000E+00	 0.000E+00	 0.000E+00	 0.000E+00	 0.000E+00	 0.000E+00	 0.000E+00	 0.000E+00	 0.000E+00	 0.000E+00	 0.000E+00	 0.000E+00	 0.000E+00	 0.000E+00	 0.000E+00	 0.000E+00	 0.000E+00	 0.000E+00	 0.000E+00	 0.000E+00	 0.000E+00	 0.000E+00	 0.000E+00	 0.000E+00	 0.000E+00	 0.000E+00	 0.000E+00	 0.000E+00	 0.000E+00	 0.000E+00	 0.000E+00	 0.000E+00	 0.000E+00	 0.000E+00	 0.000E+00	 0.000E+00	 0.000E+00	 0.000E+00	 0.000E+00	 0.000E+00	 0.000E+00	 0.000E+00	 0.000E+00	 0.000E+00	 0.000E+00	 0.000E+00	 0.000E+00	 0.000E+00	 0.000E+00	 0.000E+00	 0.000E+00	 0.000E+00	 0.000E+00	 0.000E+00	 0.000E+00	 0.000E+00	 0.000E+00	 0.000E+00	 0.000E+00	 0.000E+00	 0.000E+00	 0.000E+00	 0.000E+00	 0.000E+00	 0.000E+00
  700.0000	 1.000E+00	-0.000E+00	 1.000E-01	 2.700E+02	 0.000E+00	 0.000E+00	 0.000E+00	-2.190E-04	 5.048E-21	 0.000E+00	-8.758E-05	 4.788E-02	 6.005E-18	-1.197E-01	-2.190E-04	 5.048E-21	 0.000E+00	 2.880E-03	 4.628E-05	-3.004E-02	 0.000E+00	-0.000E+00	 0.000E+00	-8.758E-05	 1.410E-19	-5.884E+03	 2.880E-03	-8.758E-03	 2.190E-04	 0.000E+00	-8.758E-05	 1.410E-19	-9.691E-02	 2.880E-03	 3.186E-20	 2.190E-04	 0.000E+00	 1.000E+00	-1.000E-01	-1.225E-17	 5.711E+00	-8.758E-02	-1.152E+00	-1.227E-19	 2.880E+00	-2.190E-01	-2.681E-17	 0.000E+00	 0.000E+00	 1.198E-02	-1.821E-03	 0.000E+00	 0.000E+00	 0.000E+00	 0.000E+00	 0.000E+00	 0.000E+00	 0.000E+00	 0.000E+00	 0.000E+00	 0.000E+00	 0.000E+00	 0.000E+00	 0.000E+00	 0.000E+00	 0.000E+00	 0.000E+00	 0.000E+00	 0.000E+00	 0.000E+00	 0.000E+00	 0.000E+00	 0.000E+00	 0.000E+00	 0.000E+00	 0.000E+00	 0.000E+00	 0.000E+00	 0.000E+00	 0.000E+00	 0.000E+00	 0.000E+00	 0.000E+00	 0.000E+00	 0.000E+00	 0.000E+00	 0.000E+00	 0.000E+00	 0.000E+00	 0.000E+00	 0.000E+00	 0.000E+00	 0.000E+00	 0.000E+00	 0.000E+00	 0.000E+00	 0.000E+00	 0.000E+00	 0.000E+00	 0.000E+00	 0.000E+00	 0.000E+00	 0.000E+00	 0.000E+00	 0.000E+00	 0.000E+00	 0.000E+00	 0.000E+00	 0.000E+00	 0.000E+00	 0.000E+00	 0.000E+00	 0.000E+00	 0.000E+00	 0.000E+00	 0.000E+00	 0.000E+00	 0.000E+00	 0.000E+00	 0.000E+00	 0.000E+00	 0.000E+00	 0.000E+00	 0.000E+00	 0.000E+00	 0.000E+00	 0.000E+00	 0.000E+00	 0.000E+00	 0.000E+00	 0.000E+00	 0.000E+00	 0.000E+00	 0.000E+00	 0.000E+00	 0.000E+00	 0.000E+00	 0.000E+00	 0.000E+00	 0.000E+00	 0.000E+00	 0.000E+00	 0.000E+00	 0.000E+00	 0.000E+00	 0.000E+00	 0.000E+00	 0.000E+00	 0.000E+00	 0.000E+00	 0.000E+00	 0.000E+00	 0.000E+00	 0.000E+00	 0.000E+00	 0.000E+00	 0.000E+00	 0.000E+00	 0.000E+00	 0.000E+00	 0.000E+00	 0.000E+00	 0.000E+00	 0.000E+00	 0.000E+00	 0.000E+00	 0.000E+00	 0.000E+00	 0.000E+00	 0.000E+00	 0.000E+00	 0.000E+00	 0.000E+00	 0.000E+00	 0.000E+00	 0.000E+00	 0.000E+00	 0.000E+00	 0.000E+00	 0.000E+00	 0.000E+00	 0.000E+00	 0.000E+00	 0.000E+00	 0.000E+00	 0.000E+00	 0.000E+00
  800.0000	 1.000E+00	-0.000E+00	 1.000E-01	 2.700E+02	 0.000E+00	 0.000E+00	 0.000E+00	-2.190E-04	 5.048E-21	 0.000E+00	-8.758E-05	 4.788E-02	 6.005E-18	-1.197E-01	-2.190E-04	 5.048E-21	 0.000E+00	 2.880E-03	 4.628E-05	-3.004E-02	 0.000E+00	-0.000E+00	 0.000E+00	-8.758E-05	 1.410E-19	-5.884E+03	 2.880E-03	-8.758E-03	 2.190E-04	 0.000E+00	-8.758E-05	 1.410E-19	-9.691E-02	 2.880E-03	 3.186E-20	 2.190E-04	 0.000E+00	 1.000E+00	-1.000E-01	-1.225E-17	 5.711E+00	-8.758E-02	-1.152E+00	-1.227E-19	 2.880E+00	-2.190E-01	-2.681E-17	 0.000E+00	 0.000E+00	 1.198E-02	-1.821E-03	 0.000E+00	 0.000E+00	 0.000E+00	 0.000E+00	 0.000E+00	 0.000E+00	 0.000E+00	 0.000E+00	 0.000E+00	 0.000E+00	 0.000E+00	 0.000E+00	 0.000E+00	 0.000E+00	 0.000E+00	 0.000E+00	 0.000E+00	 0.000E+00	 0.000E+00	 0.000E+00	 0.000E+00	 0.000E+00	 0.000E+00	 0.000E+00	 0.000E+00	 0.000E+00	 0.000E+00	 0.000E+00	 0.000E+00	 0.000E+00	 0.000E+00	 0.000E+00	 0.000E+00	 0.000E+00	 0.000E+00	 0.000E+00	 0.000E+00	 0.000E+00	 0.000E+00	 0.000E+00	 0.000E+00	 0.000E+00	 0.000E+00	 0.000E+00	 0.000E+00	 0.000E+00	 0.000E+00	 0.000E+00	 0.000E+00	 0.000E+00	 0.000E+00	 0.000E+00	 0.000E+00	 0.000E+00	 0.000E+00	 0.000E+00	 0.000E+00	 0.000E+00	 0.000E+00	 0.000E+00	 0.000E+00	 0.000E+00	 0.000E+00	 0.000E+00	 0.000E+00	 0.000E+00	 0.000E+00	 0.000E+00	 0.000E+00	 0.000E+00	 0.000E+00	 0.000E+00	 0.000E+00	 0.000E+00	 0.000E+00	 0.000E+00	 0.000E+00	 0.000E+00	 0.000E+00	 0.000E+00	 0.000E+00	 0.000E+00	 0.000E+00	 0.000E+00	 0.000E+00	 0.000E+00	 0.000E+00	 0.000E+00	 0.000E+00	 0.000E+00	 0.000E+00	 0.000E+00	 0.000E+00	 0.000E+00	 0.000E+00	 0.000E+00	 0.000E+00	 0.000E+00	 0.000E+00	 0.000E+00	 0.000E+00	 0.000E+00	 0.000E+00	 0.000E+00	 0.000E+00	 0.000E+00	 0.000E+00	 0.000E+00	 0.000E+00	 0.000E+00	 0.000E+00	 0.000E+00	 0.000E+00	 0.000E+00	 0.000E+00	 0.000E+00	 0.000E+00	 0.000E+00	 0.000E+00	 0.000E+00	 0.000E+00	 0.000E+00	 0.000E+00	 0.000E+00	 0.000E+00	 0.000E+00	 0.000E+00	 0.000E+00	 0.000E+00	 0.000E+00	 0.000E+00	 0.000E+00	 0.000E+00	 0.000E+00	 0.000E+00	 0.000E+00
  900.0000	 1.000E+00	-0.000E+00	 1.000E-01	 2.700E+02	 0.000E+00	 0.000E+00	 0.000E+00	-2.190E-04	 5.049E-21	 0.000E+00	-8.758E-05	 4.788E-02	 6.005E-18	-1.197E-01	-2.190E-04	 5.049E-21	 0.000E+00	 2.880E-03	 4.628E-05	-3.004E-02	 0.000E+00	-0.000E+00	 0.000E+00	-8.758E-05	 1.410E-19	-5.884E+03	 2.880E-03	-8.758E-03	 2.190E-04	 0.000E+00	-8.758E-05	 1.410E-19	-9.691E-02	 2.880E-03	 3.186E-20	 2.190E-04	 0.000E+00	 1.000E+00	-1.000E-01	-1.225E-17	 5.711E+00	-8.758E-02	-1.152E+00	-1.227E-19	 2.880E+00	-2.190E-01	-2.681E-17	 0.000E+00	 0.000E+00	 1.198E-02	-1.821E-03	 0.000E+00	 0.000E+00	 0.000E+00	 0.000E+00	 0.000E+00	 0.000E+00	 0.000E+00	 0.000E+00	 0.000E+00	 0.000E+00	 0.000E+00	 0.000E+00	 0.000E+00	 0.000E+00	 0.000E+00	 0.000E+00	 0.000E+00	 0.000E+00	 0.000E+00	 0.000E+00	 0.000E+00	 0.000E+00	 0.000E+00	 0.000E+00	 0.000E+00	 0.000E+00	 0.000E+00	 0.000E+00	 0.000E+00	 0.000E+00	 0.000E+00	 0.000E+00	 0.000E+00	 0.000E+00	 0.000E+00	 0.000E+00	 0.000E+00	 0.000E+00	 0.000E+00	 0.000E+00	 0.000E+00	 0.000E+00	 0.000E+00	 0.000E+00	 0.000E+00	 0.000E+00	 0.000E+00	 0.000E+00	 0.000E+00	 0.000E+00	 0.000E+00	 0.000E+00	 0.000E+00	 0.000E+00	 0.000E+00	 0.000E+00	 0.000E+00	 0.000E+00	 0.000E+00	 0.000E+00	 0.000E+00	 0.000E+00	 0.000E+00	 0.000E+00	 0.000E+00	 0.000E+00	 0.000E+00	 0.000E+00	 0.000E+00	 0.000E+00	 0.000E+00	 0.000E+00	 0.000E+00	 0.000E+00	 0.000E+00	 0.000E+00	 0.000E+00	 0.000E+00	 0.000E+00	 0.000E+00	 0.000E+00	 0.000E+00	 0.000E+00	 0.000E+00	 0.000E+00	 0.000E+00	 0.000E+00	 0.000E+00	 0.000E+00	 0.000E+00	 0.000E+00	 0.000E+00	 0.000E+00	 0.000E+00	 0.000E+00	 0.000E+00	 0.000E+00	 0.000E+00	 0.000E+00	 0.000E+00	 0.000E+00	 0.000E+00	 0.000E+00	 0.000E+00	 0.000E+00	 0.000E+00	 0.000E+00	 0.000E+00	 0.000E+00	 0.000E+00	 0.000E+00	 0.000E+00	 0.000E+00	 0.000E+00	 0.000E+00	 0.000E+00	 0.000E+00	 0.000E+00	 0.000E+00	 0.000E+00	 0.000E+00	 0.000E+00	 0.000E+00	 0.000E+00	 0.000E+00	 0.000E+00	 0.000E+00	 0.000E+00	 0.000E+00	 0.000E+00	 0.000E+00	 0.000E+00	 0.000E+00	 0.000E+00	 0.000E+00	 0.000E+00
 1000.0000	 1.000E+00	-0.000E+00	 1.000E-01	 2.700E+02	 0.000E+00	 0.000E+00	 0.000E+00	-2.190E-04	 5.047E-21	 0.000E+00	-8.758E-05	 4.788E-02	 6.005E-18	-1.197E-01	-2.190E-04	 5.047E-21	 0.000E+00	 2.880E-03	 4.628E-05	-3.004E-02	 0.000E+00	-0.000E+00	 0.000E+00	-8.758E-05	 1.410E-19	-5.884E+03	 2.880E-03	-8.758E-03	 2.190E-04	 0.000E+00	-8.758E-05	 1.410E-19	-9.691E-02	 2.880E-03	 3.186E-20	 2.190E-04	 0.000E+00	 1.000E+00	-1.000E-01	-1.225E-17	 5.711E+00	-8.758E-02	-1.152E+00	-1.227E-19	 2.880E+00	-2.190E-01	-2.681E-17	 0.000E+00	 0.000E+00	 1.198E-02	-1.821E-03	 0.000E+00	 0.000E+00	 0.000E+00	 0.000E+00	 0.000E+00	 0.000E+00	 0.000E+00	 0.000E+00	 0.000E+00	 0.000E+00	 0.000E+00	 0.000E+00	 0.000E+00	 0.000E+00	 0.000E+00	 0.000E+00	 0.000E+00	 0.000E+00	 0.000E+00	 0.000E+00	 0.000E+00	 0.000E+00	 0.000E+00	 0.000E+00	 0.000E+00	 0.000E+00	 0.000E+00	 0.000E+00	 0.000E+00	 0.000E+00	 0.000E+00	 0.000E+00	 0.000E+00	 0.000E+00	 0.000E+00	 0.000E+00	 0.000E+00	 0.000E+00	 0.000E+00	 0.000E+00	 0.000E+00	 0.000E+00	 0.000E+00	 0.000E+00	 0.000E+00	 0.000E+00	 0.000E+00	 0.000E+00	 0.000E+00	 0.000E+00	 0.000E+00	 0.000E+00	 0.000E+00	 0.000E+00	 0.000E+00	 0.000E+00	 0.000E+00	 0.000E+00	 0.000E+00	 0.000E+00	 0.000E+00	 0.000E+00	 0.000E+00	 0.000E+00	 0.000E+00	 0.000E+00	 0.000E+00	 0.000E+00	 0.000E+00	 0.000E+00	 0.000E+00	 0.000E+00	 0.000E+00	 0.000E+00	 0.000E+00	 0.000E+00	 0.000E+00	 0.000E+00	 0.000E+00	 0.000E+00	 0.000E+00	 0.000E+00	 0.000E+00	 0.000E+00	 0.000E+00	 0.000E+00	 0.000E+00	 0.000E+00	 0.000E+00	 0.000E+00	 0.000E+00	 0.000E+00	 0.000E+00	 0.000E+00	 0.000E+00	 0.000E+00	 0.000E+00	 0.000E+00	 0.000E+00	 0.000E+00	 0.000E+00	 0.000E+00	 0.000E+00	 0.000E+00	 0.000E+00	 0.000E+00	 0.000E+00	 0.000E+00	 0.000E+00	 0.000E+00	 0.000E+00	 0.000E+00	 0.000E+00	 0.000E+00	 0.000E+00	 0.000E+00	 0.000E+00	 0.000E+00	 0.000E+00	 0.000E+00	 0.000E+00	 0.000E+00	 0.000E+00	 0.000E+00	 0.000E+00	 0.000E+00	 0.000E+00	 0.000E+00	 0.000E+00	 0.000E+00	 0.000E+00	 0.000E+00	 0.000E+00	 0.000E+00	 0.000E+00	 0.000E+00
