
FAST Summary File

Predictions were generated on 07-Jun-2021 at 13:07:00 using OpenFAST, compiled as a 64-bit application using double precision at commit v2.5.0-1061-g5512f06f
  compiled with
    NWTC Subroutine Library
    ElastoDyn
    BeamDyn (unknown version, unknown date) [not called]
    InflowWind
    AeroDyn14 (unknown version, unknown date) [not called]
    AeroDyn
    ServoDyn (unknown version, unknown date) [not called]
    HydroDyn (unknown version, unknown date) [not called]
    SubDyn (unknown version, unknown date) [not called]
    ExtPtfm_MCKF (unknown version, unknown date) [not called]
    MAP (unknown version, unknown date) [not called]
    FEAMooring (unknown version, unknown date) [not called]
    MoorDyn (unknown version, unknown date) [not called]
    OrcaFlexInterface (unknown version, unknown date) [not called]
    IceFloe (unknown version, unknown date) [not called]
    IceDyn (unknown version, unknown date) [not called]


Modeling a land-based turbine
Description from the FAST input file: 
  Elliptical wing test case for OLAF free vortex wake in AD15

Interpolation order for input/output time histories: 1 (linear)
Number of correction iterations:  0


   Requested Time Steps  
  -------------------------------------------------
  Component          Time Step (s)    Subcycles (-)
  -----------------  ---------------  -------------
  FAST (glue code)    1.000E+02
  InflowWind          1.000E+02              1
  ElastoDyn           1.000E+02              1
  AeroDyn             1.000E+02              1
  FAST output files   1.000E+02              1


   Requested Channels in FAST Output File(s)  
  --------------------------------------------
  Number  Name                  Units                 Generated by
  ------  --------------------  --------------------  ------------
       1  Time                  (s)                   OpenFAST
       2  Wind1VelX             (m/s)                 InflowWind
       3  Wind1VelY             (m/s)                 InflowWind
       4  Wind1VelZ             (m/s)                 InflowWind
       5  OoPDefl1              (m)                   ElastoDyn
       6  IPDefl1               (m)                   ElastoDyn
       7  TwstDefl1             (deg)                 ElastoDyn
       8  BldPitch1             (deg)                 ElastoDyn
       9  Azimuth               (deg)                 ElastoDyn
      10  RotSpeed              (rpm)                 ElastoDyn
      11  GenSpeed              (rpm)                 ElastoDyn
      12  TTDspFA               (m)                   ElastoDyn
      13  TTDspSS               (m)                   ElastoDyn
      14  TTDspTwst             (deg)                 ElastoDyn
      15  Spn2MLxb1             (kN-m)                ElastoDyn
      16  Spn2MLyb1             (kN-m)                ElastoDyn
      17  RootFxb1              (kN)                  ElastoDyn
      18  RootFyb1              (kN)                  ElastoDyn
      19  RootFzb1              (kN)                  ElastoDyn
      20  RootMxb1              (kN-m)                ElastoDyn
      21  RootMyb1              (kN-m)                ElastoDyn
      22  RootMzb1              (kN-m)                ElastoDyn
      23  RootFxb2              INVALID               ElastoDyn
      24  RotTorq               (kN-m)                ElastoDyn
      25  LSSGagMya             (kN-m)                ElastoDyn
      26  LSSGagMza             (kN-m)                ElastoDyn
      27  YawBrFxp              (kN)                  ElastoDyn
      28  YawBrFyp              (kN)                  ElastoDyn
      29  YawBrFzp              (kN)                  ElastoDyn
      30  YawBrMxp              (kN-m)                ElastoDyn
      31  YawBrMyp              (kN-m)                ElastoDyn
      32  YawBrMzp              (kN-m)                ElastoDyn
      33  TwrBsFxt              (kN)                  ElastoDyn
      34  TwrBsFyt              (kN)                  ElastoDyn
      35  TwrBsFzt              (kN)                  ElastoDyn
      36  TwrBsMxt              (kN-m)                ElastoDyn
      37  TwrBsMyt              (kN-m)                ElastoDyn
      38  TwrBsMzt              (kN-m)                ElastoDyn
      39  RtTSR                 (-)                   AeroDyn
      40  RtVAvgxh              (m/s)                 AeroDyn
      41  RtVAvgyh              (m/s)                 AeroDyn
      42  RtVAvgzh              (m/s)                 AeroDyn
      43  RtSkew                (deg)                 AeroDyn
      44  RtAeroFxh             (N)                   AeroDyn
      45  RtAeroFyh             (N)                   AeroDyn
      46  RtAeroFzh             (N)                   AeroDyn
      47  RtAeroMxh             (N-m)                 AeroDyn
      48  RtAeroMyh             (N-m)                 AeroDyn
      49  RtAeroMzh             (N-m)                 AeroDyn
      50  RtAeroPwr             (W)                   AeroDyn
      51  RtAeroCp              (-)                   AeroDyn
      52  RtAeroCq              (-)                   AeroDyn
      53  RtAeroCt              (-)                   AeroDyn
      54  AB1N001Phi            (deg)                 AeroDyn
      55  AB1N002Phi            (deg)                 AeroDyn
      56  AB1N003Phi            (deg)                 AeroDyn
      57  AB1N004Phi            (deg)                 AeroDyn
      58  AB1N005Phi            (deg)                 AeroDyn
      59  AB1N006Phi            (deg)                 AeroDyn
      60  AB1N007Phi            (deg)                 AeroDyn
      61  AB1N008Phi            (deg)                 AeroDyn
      62  AB1N009Phi            (deg)                 AeroDyn
      63  AB1N010Phi            (deg)                 AeroDyn
      64  AB1N011Phi            (deg)                 AeroDyn
      65  AB1N012Phi            (deg)                 AeroDyn
      66  AB1N013Phi            (deg)                 AeroDyn
      67  AB1N014Phi            (deg)                 AeroDyn
      68  AB1N015Phi            (deg)                 AeroDyn
      69  AB1N016Phi            (deg)                 AeroDyn
      70  AB1N017Phi            (deg)                 AeroDyn
      71  AB1N018Phi            (deg)                 AeroDyn
      72  AB1N019Phi            (deg)                 AeroDyn
      73  AB1N020Phi            (deg)                 AeroDyn
      74  AB1N021Phi            (deg)                 AeroDyn
      75  AB1N022Phi            (deg)                 AeroDyn
      76  AB1N023Phi            (deg)                 AeroDyn
      77  AB1N024Phi            (deg)                 AeroDyn
      78  AB1N025Phi            (deg)                 AeroDyn
      79  AB1N026Phi            (deg)                 AeroDyn
      80  AB1N027Phi            (deg)                 AeroDyn
      81  AB1N028Phi            (deg)                 AeroDyn
      82  AB1N029Phi            (deg)                 AeroDyn
      83  AB1N030Phi            (deg)                 AeroDyn
      84  AB1N031Phi            (deg)                 AeroDyn
      85  AB1N032Phi            (deg)                 AeroDyn
      86  AB1N033Phi            (deg)                 AeroDyn
      87  AB1N034Phi            (deg)                 AeroDyn
      88  AB1N035Phi            (deg)                 AeroDyn
      89  AB1N036Phi            (deg)                 AeroDyn
      90  AB1N037Phi            (deg)                 AeroDyn
      91  AB1N038Phi            (deg)                 AeroDyn
      92  AB1N039Phi            (deg)                 AeroDyn
      93  AB1N040Phi            (deg)                 AeroDyn
      94  AB1N001Gam            (m^2/s)               AeroDyn
      95  AB1N002Gam            (m^2/s)               AeroDyn
      96  AB1N003Gam            (m^2/s)               AeroDyn
      97  AB1N004Gam            (m^2/s)               AeroDyn
      98  AB1N005Gam            (m^2/s)               AeroDyn
      99  AB1N006Gam            (m^2/s)               AeroDyn
     100  AB1N007Gam            (m^2/s)               AeroDyn
     101  AB1N008Gam            (m^2/s)               AeroDyn
     102  AB1N009Gam            (m^2/s)               AeroDyn
     103  AB1N010Gam            (m^2/s)               AeroDyn
     104  AB1N011Gam            (m^2/s)               AeroDyn
     105  AB1N012Gam            (m^2/s)               AeroDyn
     106  AB1N013Gam            (m^2/s)               AeroDyn
     107  AB1N014Gam            (m^2/s)               AeroDyn
     108  AB1N015Gam            (m^2/s)               AeroDyn
     109  AB1N016Gam            (m^2/s)               AeroDyn
     110  AB1N017Gam            (m^2/s)               AeroDyn
     111  AB1N018Gam            (m^2/s)               AeroDyn
     112  AB1N019Gam            (m^2/s)               AeroDyn
     113  AB1N020Gam            (m^2/s)               AeroDyn
     114  AB1N021Gam            (m^2/s)               AeroDyn
     115  AB1N022Gam            (m^2/s)               AeroDyn
     116  AB1N023Gam            (m^2/s)               AeroDyn
     117  AB1N024Gam            (m^2/s)               AeroDyn
     118  AB1N025Gam            (m^2/s)               AeroDyn
     119  AB1N026Gam            (m^2/s)               AeroDyn
     120  AB1N027Gam            (m^2/s)               AeroDyn
     121  AB1N028Gam            (m^2/s)               AeroDyn
     122  AB1N029Gam            (m^2/s)               AeroDyn
     123  AB1N030Gam            (m^2/s)               AeroDyn
     124  AB1N031Gam            (m^2/s)               AeroDyn
     125  AB1N032Gam            (m^2/s)               AeroDyn
     126  AB1N033Gam            (m^2/s)               AeroDyn
     127  AB1N034Gam            (m^2/s)               AeroDyn
     128  AB1N035Gam            (m^2/s)               AeroDyn
     129  AB1N036Gam            (m^2/s)               AeroDyn
     130  AB1N037Gam            (m^2/s)               AeroDyn
     131  AB1N038Gam            (m^2/s)               AeroDyn
     132  AB1N039Gam            (m^2/s)               AeroDyn
     133  AB1N040Gam            (m^2/s)               AeroDyn
     134  AB1N001Fn             (N/m)                 AeroDyn
     135  AB1N002Fn             (N/m)                 AeroDyn
     136  AB1N003Fn             (N/m)                 AeroDyn
     137  AB1N004Fn             (N/m)                 AeroDyn
     138  AB1N005Fn             (N/m)                 AeroDyn
     139  AB1N006Fn             (N/m)                 AeroDyn
     140  AB1N007Fn             (N/m)                 AeroDyn
     141  AB1N008Fn             (N/m)                 AeroDyn
     142  AB1N009Fn             (N/m)                 AeroDyn
     143  AB1N010Fn             (N/m)                 AeroDyn
     144  AB1N011Fn             (N/m)                 AeroDyn
     145  AB1N012Fn             (N/m)                 AeroDyn
     146  AB1N013Fn             (N/m)                 AeroDyn
     147  AB1N014Fn             (N/m)                 AeroDyn
     148  AB1N015Fn             (N/m)                 AeroDyn
     149  AB1N016Fn             (N/m)                 AeroDyn
     150  AB1N017Fn             (N/m)                 AeroDyn
     151  AB1N018Fn             (N/m)                 AeroDyn
     152  AB1N019Fn             (N/m)                 AeroDyn
     153  AB1N020Fn             (N/m)                 AeroDyn
     154  AB1N021Fn             (N/m)                 AeroDyn
     155  AB1N022Fn             (N/m)                 AeroDyn
     156  AB1N023Fn             (N/m)                 AeroDyn
     157  AB1N024Fn             (N/m)                 AeroDyn
     158  AB1N025Fn             (N/m)                 AeroDyn
     159  AB1N026Fn             (N/m)                 AeroDyn
     160  AB1N027Fn             (N/m)                 AeroDyn
     161  AB1N028Fn             (N/m)                 AeroDyn
     162  AB1N029Fn             (N/m)                 AeroDyn
     163  AB1N030Fn             (N/m)                 AeroDyn
     164  AB1N031Fn             (N/m)                 AeroDyn
     165  AB1N032Fn             (N/m)                 AeroDyn
     166  AB1N033Fn             (N/m)                 AeroDyn
     167  AB1N034Fn             (N/m)                 AeroDyn
     168  AB1N035Fn             (N/m)                 AeroDyn
     169  AB1N036Fn             (N/m)                 AeroDyn
     170  AB1N037Fn             (N/m)                 AeroDyn
     171  AB1N038Fn             (N/m)                 AeroDyn
     172  AB1N039Fn             (N/m)                 AeroDyn
     173  AB1N040Fn             (N/m)                 AeroDyn
     174  AB1N001Ft             (N/m)                 AeroDyn
     175  AB1N002Ft             (N/m)                 AeroDyn
     176  AB1N003Ft             (N/m)                 AeroDyn
     177  AB1N004Ft             (N/m)                 AeroDyn
     178  AB1N005Ft             (N/m)                 AeroDyn
     179  AB1N006Ft             (N/m)                 AeroDyn
     180  AB1N007Ft             (N/m)                 AeroDyn
     181  AB1N008Ft             (N/m)                 AeroDyn
     182  AB1N009Ft             (N/m)                 AeroDyn
     183  AB1N010Ft             (N/m)                 AeroDyn
     184  AB1N011Ft             (N/m)                 AeroDyn
     185  AB1N012Ft             (N/m)                 AeroDyn
     186  AB1N013Ft             (N/m)                 AeroDyn
     187  AB1N014Ft             (N/m)                 AeroDyn
     188  AB1N015Ft             (N/m)                 AeroDyn
     189  AB1N016Ft             (N/m)                 AeroDyn
     190  AB1N017Ft             (N/m)                 AeroDyn
     191  AB1N018Ft             (N/m)                 AeroDyn
     192  AB1N019Ft             (N/m)                 AeroDyn
     193  AB1N020Ft             (N/m)                 AeroDyn
     194  AB1N021Ft             (N/m)                 AeroDyn
     195  AB1N022Ft             (N/m)                 AeroDyn
     196  AB1N023Ft             (N/m)                 AeroDyn
     197  AB1N024Ft             (N/m)                 AeroDyn
     198  AB1N025Ft             (N/m)                 AeroDyn
     199  AB1N026Ft             (N/m)                 AeroDyn
     200  AB1N027Ft             (N/m)                 AeroDyn
     201  AB1N028Ft             (N/m)                 AeroDyn
     202  AB1N029Ft             (N/m)                 AeroDyn
     203  AB1N030Ft             (N/m)                 AeroDyn
     204  AB1N031Ft             (N/m)                 AeroDyn
     205  AB1N032Ft             (N/m)                 AeroDyn
     206  AB1N033Ft             (N/m)                 AeroDyn
     207  AB1N034Ft             (N/m)                 AeroDyn
     208  AB1N035Ft             (N/m)                 AeroDyn
     209  AB1N036Ft             (N/m)                 AeroDyn
     210  AB1N037Ft             (N/m)                 AeroDyn
     211  AB1N038Ft             (N/m)                 AeroDyn
     212  AB1N039Ft             (N/m)                 AeroDyn
     213  AB1N040Ft             (N/m)                 AeroDyn
     214  AB1N001Cl             (-)                   AeroDyn
     215  AB1N002Cl             (-)                   AeroDyn
     216  AB1N003Cl             (-)                   AeroDyn
     217  AB1N004Cl             (-)                   AeroDyn
     218  AB1N005Cl             (-)                   AeroDyn
     219  AB1N006Cl             (-)                   AeroDyn
     220  AB1N007Cl             (-)                   AeroDyn
     221  AB1N008Cl             (-)                   AeroDyn
     222  AB1N009Cl             (-)                   AeroDyn
     223  AB1N010Cl             (-)                   AeroDyn
     224  AB1N011Cl             (-)                   AeroDyn
     225  AB1N012Cl             (-)                   AeroDyn
     226  AB1N013Cl             (-)                   AeroDyn
     227  AB1N014Cl             (-)                   AeroDyn
     228  AB1N015Cl             (-)                   AeroDyn
     229  AB1N016Cl             (-)                   AeroDyn
     230  AB1N017Cl             (-)                   AeroDyn
     231  AB1N018Cl             (-)                   AeroDyn
     232  AB1N019Cl             (-)                   AeroDyn
     233  AB1N020Cl             (-)                   AeroDyn
     234  AB1N021Cl             (-)                   AeroDyn
     235  AB1N022Cl             (-)                   AeroDyn
     236  AB1N023Cl             (-)                   AeroDyn
     237  AB1N024Cl             (-)                   AeroDyn
     238  AB1N025Cl             (-)                   AeroDyn
     239  AB1N026Cl             (-)                   AeroDyn
     240  AB1N027Cl             (-)                   AeroDyn
     241  AB1N028Cl             (-)                   AeroDyn
     242  AB1N029Cl             (-)                   AeroDyn
     243  AB1N030Cl             (-)                   AeroDyn
     244  AB1N031Cl             (-)                   AeroDyn
     245  AB1N032Cl             (-)                   AeroDyn
     246  AB1N033Cl             (-)                   AeroDyn
     247  AB1N034Cl             (-)                   AeroDyn
     248  AB1N035Cl             (-)                   AeroDyn
     249  AB1N036Cl             (-)                   AeroDyn
     250  AB1N037Cl             (-)                   AeroDyn
     251  AB1N038Cl             (-)                   AeroDyn
     252  AB1N039Cl             (-)                   AeroDyn
     253  AB1N040Cl             (-)                   AeroDyn
     254  AB1N001Cd             (-)                   AeroDyn
     255  AB1N002Cd             (-)                   AeroDyn
     256  AB1N003Cd             (-)                   AeroDyn
     257  AB1N004Cd             (-)                   AeroDyn
     258  AB1N005Cd             (-)                   AeroDyn
     259  AB1N006Cd             (-)                   AeroDyn
     260  AB1N007Cd             (-)                   AeroDyn
     261  AB1N008Cd             (-)                   AeroDyn
     262  AB1N009Cd             (-)                   AeroDyn
     263  AB1N010Cd             (-)                   AeroDyn
     264  AB1N011Cd             (-)                   AeroDyn
     265  AB1N012Cd             (-)                   AeroDyn
     266  AB1N013Cd             (-)                   AeroDyn
     267  AB1N014Cd             (-)                   AeroDyn
     268  AB1N015Cd             (-)                   AeroDyn
     269  AB1N016Cd             (-)                   AeroDyn
     270  AB1N017Cd             (-)                   AeroDyn
     271  AB1N018Cd             (-)                   AeroDyn
     272  AB1N019Cd             (-)                   AeroDyn
     273  AB1N020Cd             (-)                   AeroDyn
     274  AB1N021Cd             (-)                   AeroDyn
     275  AB1N022Cd             (-)                   AeroDyn
     276  AB1N023Cd             (-)                   AeroDyn
     277  AB1N024Cd             (-)                   AeroDyn
     278  AB1N025Cd             (-)                   AeroDyn
     279  AB1N026Cd             (-)                   AeroDyn
     280  AB1N027Cd             (-)                   AeroDyn
     281  AB1N028Cd             (-)                   AeroDyn
     282  AB1N029Cd             (-)                   AeroDyn
     283  AB1N030Cd             (-)                   AeroDyn
     284  AB1N031Cd             (-)                   AeroDyn
     285  AB1N032Cd             (-)                   AeroDyn
     286  AB1N033Cd             (-)                   AeroDyn
     287  AB1N034Cd             (-)                   AeroDyn
     288  AB1N035Cd             (-)                   AeroDyn
     289  AB1N036Cd             (-)                   AeroDyn
     290  AB1N037Cd             (-)                   AeroDyn
     291  AB1N038Cd             (-)                   AeroDyn
     292  AB1N039Cd             (-)                   AeroDyn
     293  AB1N040Cd             (-)                   AeroDyn
     294  AB1N001Cm             (-)                   AeroDyn
     295  AB1N002Cm             (-)                   AeroDyn
     296  AB1N003Cm             (-)                   AeroDyn
     297  AB1N004Cm             (-)                   AeroDyn
     298  AB1N005Cm             (-)                   AeroDyn
     299  AB1N006Cm             (-)                   AeroDyn
     300  AB1N007Cm             (-)                   AeroDyn
     301  AB1N008Cm             (-)                   AeroDyn
     302  AB1N009Cm             (-)                   AeroDyn
     303  AB1N010Cm             (-)                   AeroDyn
     304  AB1N011Cm             (-)                   AeroDyn
     305  AB1N012Cm             (-)                   AeroDyn
     306  AB1N013Cm             (-)                   AeroDyn
     307  AB1N014Cm             (-)                   AeroDyn
     308  AB1N015Cm             (-)                   AeroDyn
     309  AB1N016Cm             (-)                   AeroDyn
     310  AB1N017Cm             (-)                   AeroDyn
     311  AB1N018Cm             (-)                   AeroDyn
     312  AB1N019Cm             (-)                   AeroDyn
     313  AB1N020Cm             (-)                   AeroDyn
     314  AB1N021Cm             (-)                   AeroDyn
     315  AB1N022Cm             (-)                   AeroDyn
     316  AB1N023Cm             (-)                   AeroDyn
     317  AB1N024Cm             (-)                   AeroDyn
     318  AB1N025Cm             (-)                   AeroDyn
     319  AB1N026Cm             (-)                   AeroDyn
     320  AB1N027Cm             (-)                   AeroDyn
     321  AB1N028Cm             (-)                   AeroDyn
     322  AB1N029Cm             (-)                   AeroDyn
     323  AB1N030Cm             (-)                   AeroDyn
     324  AB1N031Cm             (-)                   AeroDyn
     325  AB1N032Cm             (-)                   AeroDyn
     326  AB1N033Cm             (-)                   AeroDyn
     327  AB1N034Cm             (-)                   AeroDyn
     328  AB1N035Cm             (-)                   AeroDyn
     329  AB1N036Cm             (-)                   AeroDyn
     330  AB1N037Cm             (-)                   AeroDyn
     331  AB1N038Cm             (-)                   AeroDyn
     332  AB1N039Cm             (-)                   AeroDyn
     333  AB1N040Cm             (-)                   AeroDyn
     334  AB1N001Cn             (-)                   AeroDyn
     335  AB1N002Cn             (-)                   AeroDyn
     336  AB1N003Cn             (-)                   AeroDyn
     337  AB1N004Cn             (-)                   AeroDyn
     338  AB1N005Cn             (-)                   AeroDyn
     339  AB1N006Cn             (-)                   AeroDyn
     340  AB1N007Cn             (-)                   AeroDyn
     341  AB1N008Cn             (-)                   AeroDyn
     342  AB1N009Cn             (-)                   AeroDyn
     343  AB1N010Cn             (-)                   AeroDyn
     344  AB1N011Cn             (-)                   AeroDyn
     345  AB1N012Cn             (-)                   AeroDyn
     346  AB1N013Cn             (-)                   AeroDyn
     347  AB1N014Cn             (-)                   AeroDyn
     348  AB1N015Cn             (-)                   AeroDyn
     349  AB1N016Cn             (-)                   AeroDyn
     350  AB1N017Cn             (-)                   AeroDyn
     351  AB1N018Cn             (-)                   AeroDyn
     352  AB1N019Cn             (-)                   AeroDyn
     353  AB1N020Cn             (-)                   AeroDyn
     354  AB1N021Cn             (-)                   AeroDyn
     355  AB1N022Cn             (-)                   AeroDyn
     356  AB1N023Cn             (-)                   AeroDyn
     357  AB1N024Cn             (-)                   AeroDyn
     358  AB1N025Cn             (-)                   AeroDyn
     359  AB1N026Cn             (-)                   AeroDyn
     360  AB1N027Cn             (-)                   AeroDyn
     361  AB1N028Cn             (-)                   AeroDyn
     362  AB1N029Cn             (-)                   AeroDyn
     363  AB1N030Cn             (-)                   AeroDyn
     364  AB1N031Cn             (-)                   AeroDyn
     365  AB1N032Cn             (-)                   AeroDyn
     366  AB1N033Cn             (-)                   AeroDyn
     367  AB1N034Cn             (-)                   AeroDyn
     368  AB1N035Cn             (-)                   AeroDyn
     369  AB1N036Cn             (-)                   AeroDyn
     370  AB1N037Cn             (-)                   AeroDyn
     371  AB1N038Cn             (-)                   AeroDyn
     372  AB1N039Cn             (-)                   AeroDyn
     373  AB1N040Cn             (-)                   AeroDyn
     374  AB1N001Ct             (-)                   AeroDyn
     375  AB1N002Ct             (-)                   AeroDyn
     376  AB1N003Ct             (-)                   AeroDyn
     377  AB1N004Ct             (-)                   AeroDyn
     378  AB1N005Ct             (-)                   AeroDyn
     379  AB1N006Ct             (-)                   AeroDyn
     380  AB1N007Ct             (-)                   AeroDyn
     381  AB1N008Ct             (-)                   AeroDyn
     382  AB1N009Ct             (-)                   AeroDyn
     383  AB1N010Ct             (-)                   AeroDyn
     384  AB1N011Ct             (-)                   AeroDyn
     385  AB1N012Ct             (-)                   AeroDyn
     386  AB1N013Ct             (-)                   AeroDyn
     387  AB1N014Ct             (-)                   AeroDyn
     388  AB1N015Ct             (-)                   AeroDyn
     389  AB1N016Ct             (-)                   AeroDyn
     390  AB1N017Ct             (-)                   AeroDyn
     391  AB1N018Ct             (-)                   AeroDyn
     392  AB1N019Ct             (-)                   AeroDyn
     393  AB1N020Ct             (-)                   AeroDyn
     394  AB1N021Ct             (-)                   AeroDyn
     395  AB1N022Ct             (-)                   AeroDyn
     396  AB1N023Ct             (-)                   AeroDyn
     397  AB1N024Ct             (-)                   AeroDyn
     398  AB1N025Ct             (-)                   AeroDyn
     399  AB1N026Ct             (-)                   AeroDyn
     400  AB1N027Ct             (-)                   AeroDyn
     401  AB1N028Ct             (-)                   AeroDyn
     402  AB1N029Ct             (-)                   AeroDyn
     403  AB1N030Ct             (-)                   AeroDyn
     404  AB1N031Ct             (-)                   AeroDyn
     405  AB1N032Ct             (-)                   AeroDyn
     406  AB1N033Ct             (-)                   AeroDyn
     407  AB1N034Ct             (-)                   AeroDyn
     408  AB1N035Ct             (-)                   AeroDyn
     409  AB1N036Ct             (-)                   AeroDyn
     410  AB1N037Ct             (-)                   AeroDyn
     411  AB1N038Ct             (-)                   AeroDyn
     412  AB1N039Ct             (-)                   AeroDyn
     413  AB1N040Ct             (-)                   AeroDyn
