
Predictions were generated on 30-Aug-2017 at 13:24:05 using OpenFAST, compiled as a 64-bit application using single precision at commit git commit
 linked with  NWTC Subroutine Library; ElastoDyn

Description from the FAST input file: FAST Certification Test #14: WindPACT 1.5 MW Baseline with stationary linearization in a vacuum

Time      
(s)       
    0.0000
