
FAST Summary File

Predictions were generated on 15-Aug-2018 at 14:18:50 using OpenFAST, compiled as a 64-bit application using double precision at commit v1.0.0-185-g51ece802-dirty
  compiled with
    NWTC Subroutine Library
    ElastoDyn
    BeamDyn [not called]
    InflowWind
    AeroDyn14 [not called]
    AeroDyn
    ServoDyn
    HydroDyn
    SubDyn [not called]
    ExtPtfm_MCKF [not called]
    MAP [not called]
    FEAMooring [not called]
    MoorDyn
    OrcaFlexInterface [not called]
    IceFloe [not called]
    IceDyn [not called]


Modeling a floating offshore turbine
Description from the FAST input file: 
  FAST Certification Test #25: NREL 5.0 MW Baseline Wind Turbine with OC4-DeepCwind semi configuration, for use in offshore analysis

Interpolation order for input/output time histories: 2 (quadratic)
Number of correction iterations:  0
Number of rows in Jacobian matrix used for coupling ElastoDyn to HydroDyn:     12


   Requested Time Steps  
  -------------------------------------------------
  Component          Time Step (s)    Subcycles (-)
  -----------------  ---------------  -------------
  FAST (glue code)    1.250E-02
  InflowWind          1.250E-02              1
  ElastoDyn           1.250E-02              1
  AeroDyn             1.250E-02              1
  ServoDyn            1.250E-02              1
  HydroDyn            1.250E-02              1
  MoorDyn             1.250E-02              1
  FAST output files   5.000E-02              4^-1


   Requested Channels in FAST Output File(s)  
  --------------------------------------------
  Number  Name        Units       Generated by
  ------  ----------  ----------  ------------
       1  Time        (s)         OpenFAST
       2  Wind1VelX   (m/s)       InflowWind
       3  Wind1VelY   (m/s)       InflowWind
       4  Wind1VelZ   (m/s)       InflowWind
       5  Azimuth     (deg)       ElastoDyn
       6  RotSpeed    (rpm)       ElastoDyn
       7  GenSpeed    (rpm)       ElastoDyn
       8  OoPDefl1    (m)         ElastoDyn
       9  IPDefl1     (m)         ElastoDyn
      10  TwstDefl1   (deg)       ElastoDyn
      11  BldPitch1   (deg)       ElastoDyn
      12  TTDspFA     (m)         ElastoDyn
      13  TTDspSS     (m)         ElastoDyn
      14  TTDspTwst   (deg)       ElastoDyn
      15  PtfmSurge   (m)         ElastoDyn
      16  PtfmSway    (m)         ElastoDyn
      17  PtfmHeave   (m)         ElastoDyn
      18  PtfmRoll    (deg)       ElastoDyn
      19  PtfmPitch   (deg)       ElastoDyn
      20  PtfmYaw     (deg)       ElastoDyn
      21  RootFxc1    (kN)        ElastoDyn
      22  RootFyc1    (kN)        ElastoDyn
      23  RootFzc1    (kN)        ElastoDyn
      24  RootMxc1    (kN-m)      ElastoDyn
      25  RootMyc1    (kN-m)      ElastoDyn
      26  RootMzc1    (kN-m)      ElastoDyn
      27  RotTorq     (kN-m)      ElastoDyn
      28  LSSGagMya   (kN-m)      ElastoDyn
      29  LSSGagMza   (kN-m)      ElastoDyn
      30  YawBrFxp    (kN)        ElastoDyn
      31  YawBrFyp    (kN)        ElastoDyn
      32  YawBrFzp    (kN)        ElastoDyn
      33  YawBrMxp    (kN-m)      ElastoDyn
      34  YawBrMyp    (kN-m)      ElastoDyn
      35  YawBrMzp    (kN-m)      ElastoDyn
      36  TwrBsFxt    (kN)        ElastoDyn
      37  TwrBsFyt    (kN)        ElastoDyn
      38  TwrBsFzt    (kN)        ElastoDyn
      39  TwrBsMxt    (kN-m)      ElastoDyn
      40  TwrBsMyt    (kN-m)      ElastoDyn
      41  TwrBsMzt    (kN-m)      ElastoDyn
      42  RtArea      (m^2)       AeroDyn
      43  B1N3Clrnc   (m)         AeroDyn
      44  B2N3Clrnc   (m)         AeroDyn
      45  B3N3Clrnc   (m)         AeroDyn
      46  GenPwr      (kW)        ServoDyn
      47  GenTq       (kN-m)      ServoDyn
      48  Wave1Elev   (m)         HydroDyn
      49  FAIRTEN1    (N)         MoorDyn
      50  FAIRTEN2    (N)         MoorDyn
      51  FAIRTEN3    (N)         MoorDyn
      52  ANCHTEN1    (N)         MoorDyn
      53  ANCHTEN2    (N)         MoorDyn
      54  ANCHTEN3    (N)         MoorDyn
