# Time    CON4PX    CON4PY    CON4PZ   CON5PX    CON5PY    CON5PZ   CON6PX    CON6PY    CON6PZ
0.0000000e+00   2.4959000e+01   3.5393000e+01   -1.4670000e+01   -3.6310000e+01   0.0000000e+00   -1.2638000e+01   2.4959000e+01   -3.5393000e+01   -1.4670000e+01
1.2500000e-02   2.4959000e+01   3.5393000e+01   -1.4670000e+01   -3.6310000e+01   -1.3538000e-08   -1.2638000e+01   2.4959000e+01   -3.5393000e+01   -1.4670000e+01
2.5000000e-02   2.4959000e+01   3.5393000e+01   -1.4670000e+01   -3.6310000e+01   -6.7008000e-08   -1.2638000e+01   2.4959000e+01   -3.5393000e+01   -1.4670000e+01
3.7500000e-02   2.4959000e+01   3.5393000e+01   -1.4669000e+01   -3.6310000e+01   -1.6116000e-07   -1.2638000e+01   2.4959000e+01   -3.5393000e+01   -1.4669000e+01
5.0000000e-02   2.4959000e+01   3.5393000e+01   -1.4669000e+01   -3.6309000e+01   -3.1679000e-07   -1.2638000e+01   2.4959000e+01   -3.5393000e+01   -1.4669000e+01
6.2500000e-02   2.4959000e+01   3.5393000e+01   -1.4669000e+01   -3.6309000e+01   -5.3980000e-07   -1.2638000e+01   2.4959000e+01   -3.5393000e+01   -1.4669000e+01
7.5000000e-02   2.4959000e+01   3.5393000e+01   -1.4669000e+01   -3.6309000e+01   -8.2231000e-07   -1.2639000e+01   2.4959000e+01   -3.5393000e+01   -1.4669000e+01
8.7500000e-02   2.4959000e+01   3.5393000e+01   -1.4669000e+01   -3.6309000e+01   -1.1276000e-06   -1.2639000e+01   2.4959000e+01   -3.5393000e+01   -1.4669000e+01
1.0000000e-01   2.4959000e+01   3.5393000e+01   -1.4669000e+01   -3.6309000e+01   -1.3946000e-06   -1.2639000e+01   2.4959000e+01   -3.5393000e+01   -1.4669000e+01
1.1250000e-01   2.4959000e+01   3.5393000e+01   -1.4669000e+01   -3.6309000e+01   -1.5344000e-06   -1.2639000e+01   2.4959000e+01   -3.5393000e+01   -1.4669000e+01
1.2500000e-01   2.4959000e+01   3.5393000e+01   -1.4668000e+01   -3.6309000e+01   -1.4366000e-06   -1.2640000e+01   2.4959000e+01   -3.5393000e+01   -1.4668000e+01
1.3750000e-01   2.4959000e+01   3.5393000e+01   -1.4668000e+01   -3.6309000e+01   -9.7961000e-07   -1.2640000e+01   2.4959000e+01   -3.5393000e+01   -1.4668000e+01
1.5000000e-01   2.4960000e+01   3.5393000e+01   -1.4668000e+01   -3.6309000e+01   -4.3637000e-08   -1.2641000e+01   2.4960000e+01   -3.5393000e+01   -1.4668000e+01
1.6250000e-01   2.4960000e+01   3.5393000e+01   -1.4668000e+01   -3.6309000e+01   1.4773000e-06   -1.2641000e+01   2.4960000e+01   -3.5393000e+01   -1.4668000e+01
1.7500000e-01   2.4960000e+01   3.5393000e+01   -1.4667000e+01   -3.6309000e+01   3.6639000e-06   -1.2642000e+01   2.4960000e+01   -3.5393000e+01   -1.4667000e+01
1.8750000e-01   2.4960000e+01   3.5393000e+01   -1.4667000e+01   -3.6308000e+01   6.5633000e-06   -1.2642000e+01   2.4960000e+01   -3.5393000e+01   -1.4667000e+01
2.0000000e-01   2.4960000e+01   3.5393000e+01   -1.4667000e+01   -3.6308000e+01   1.0186000e-05   -1.2643000e+01   2.4960000e+01   -3.5393000e+01   -1.4667000e+01
2.1250000e-01   2.4961000e+01   3.5393000e+01   -1.4666000e+01   -3.6308000e+01   1.4505000e-05   -1.2643000e+01   2.4961000e+01   -3.5393000e+01   -1.4666000e+01
2.2500000e-01   2.4961000e+01   3.5393000e+01   -1.4666000e+01   -3.6308000e+01   1.9465000e-05   -1.2644000e+01   2.4961000e+01   -3.5393000e+01   -1.4666000e+01
2.3750000e-01   2.4961000e+01   3.5393000e+01   -1.4665000e+01   -3.6308000e+01   2.4993000e-05   -1.2645000e+01   2.4961000e+01   -3.5393000e+01   -1.4665000e+01
2.5000000e-01   2.4961000e+01   3.5393000e+01   -1.4665000e+01   -3.6307000e+01   3.1010000e-05   -1.2645000e+01   2.4961000e+01   -3.5393000e+01   -1.4665000e+01
2.6250000e-01   2.4962000e+01   3.5393000e+01   -1.4665000e+01   -3.6307000e+01   3.7443000e-05   -1.2646000e+01   2.4962000e+01   -3.5393000e+01   -1.4664000e+01
2.7500000e-01   2.4962000e+01   3.5393000e+01   -1.4664000e+01   -3.6307000e+01   4.4240000e-05   -1.2647000e+01   2.4962000e+01   -3.5393000e+01   -1.4664000e+01
2.8750000e-01   2.4962000e+01   3.5393000e+01   -1.4664000e+01   -3.6307000e+01   5.1377000e-05   -1.2648000e+01   2.4962000e+01   -3.5393000e+01   -1.4663000e+01
3.0000000e-01   2.4962000e+01   3.5393000e+01   -1.4663000e+01   -3.6306000e+01   5.8862000e-05   -1.2648000e+01   2.4962000e+01   -3.5393000e+01   -1.4663000e+01
3.1250000e-01   2.4963000e+01   3.5393000e+01   -1.4663000e+01   -3.6306000e+01   6.6736000e-05   -1.2649000e+01   2.4963000e+01   -3.5393000e+01   -1.4662000e+01
3.2500000e-01   2.4963000e+01   3.5393000e+01   -1.4662000e+01   -3.6306000e+01   7.5067000e-05   -1.2650000e+01   2.4963000e+01   -3.5393000e+01   -1.4662000e+01
3.3750000e-01   2.4963000e+01   3.5393000e+01   -1.4661000e+01   -3.6306000e+01   8.3939000e-05   -1.2651000e+01   2.4963000e+01   -3.5393000e+01   -1.4661000e+01
3.5000000e-01   2.4964000e+01   3.5393000e+01   -1.4661000e+01   -3.6305000e+01   9.3439000e-05   -1.2652000e+01   2.4964000e+01   -3.5393000e+01   -1.4660000e+01
3.6250000e-01   2.4964000e+01   3.5393000e+01   -1.4660000e+01   -3.6305000e+01   1.0365000e-04   -1.2653000e+01   2.4964000e+01   -3.5393000e+01   -1.4660000e+01
3.7500000e-01   2.4965000e+01   3.5393000e+01   -1.4660000e+01   -3.6305000e+01   1.1462000e-04   -1.2654000e+01   2.4965000e+01   -3.5393000e+01   -1.4659000e+01
3.8750000e-01   2.4965000e+01   3.5393000e+01   -1.4659000e+01   -3.6304000e+01   1.2639000e-04   -1.2655000e+01   2.4965000e+01   -3.5393000e+01   -1.4658000e+01
4.0000000e-01   2.4965000e+01   3.5393000e+01   -1.4658000e+01   -3.6304000e+01   1.3893000e-04   -1.2657000e+01   2.4965000e+01   -3.5393000e+01   -1.4658000e+01
4.1250000e-01   2.4966000e+01   3.5393000e+01   -1.4658000e+01   -3.6304000e+01   1.5221000e-04   -1.2658000e+01   2.4966000e+01   -3.5393000e+01   -1.4657000e+01
4.2500000e-01   2.4966000e+01   3.5393000e+01   -1.4657000e+01   -3.6303000e+01   1.6613000e-04   -1.2659000e+01   2.4966000e+01   -3.5393000e+01   -1.4656000e+01
4.3750000e-01   2.4967000e+01   3.5393000e+01   -1.4656000e+01   -3.6303000e+01   1.8058000e-04   -1.2660000e+01   2.4967000e+01   -3.5393000e+01   -1.4656000e+01
4.5000000e-01   2.4967000e+01   3.5393000e+01   -1.4656000e+01   -3.6302000e+01   1.9542000e-04   -1.2661000e+01   2.4967000e+01   -3.5393000e+01   -1.4655000e+01
4.6250000e-01   2.4968000e+01   3.5393000e+01   -1.4655000e+01   -3.6302000e+01   2.1051000e-04   -1.2663000e+01   2.4968000e+01   -3.5393000e+01   -1.4654000e+01
4.7500000e-01   2.4968000e+01   3.5393000e+01   -1.4654000e+01   -3.6301000e+01   2.2572000e-04   -1.2664000e+01   2.4968000e+01   -3.5393000e+01   -1.4653000e+01
4.8750000e-01   2.4969000e+01   3.5393000e+01   -1.4654000e+01   -3.6301000e+01   2.4093000e-04   -1.2665000e+01   2.4969000e+01   -3.5393000e+01   -1.4652000e+01
5.0000000e-01   2.4969000e+01   3.5393000e+01   -1.4653000e+01   -3.6300000e+01   2.5605000e-04   -1.2666000e+01   2.4969000e+01   -3.5393000e+01   -1.4652000e+01
5.1250000e-01   2.4970000e+01   3.5393000e+01   -1.4652000e+01   -3.6300000e+01   2.7100000e-04   -1.2668000e+01   2.4970000e+01   -3.5393000e+01   -1.4651000e+01
5.2500000e-01   2.4971000e+01   3.5393000e+01   -1.4651000e+01   -3.6299000e+01   2.8575000e-04   -1.2669000e+01   2.4971000e+01   -3.5393000e+01   -1.4650000e+01
5.3750000e-01   2.4971000e+01   3.5393000e+01   -1.4650000e+01   -3.6299000e+01   3.0029000e-04   -1.2671000e+01   2.4971000e+01   -3.5393000e+01   -1.4649000e+01
5.5000000e-01   2.4972000e+01   3.5393000e+01   -1.4650000e+01   -3.6298000e+01   3.1463000e-04   -1.2672000e+01   2.4972000e+01   -3.5393000e+01   -1.4648000e+01
5.6250000e-01   2.4973000e+01   3.5393000e+01   -1.4649000e+01   -3.6298000e+01   3.2881000e-04   -1.2673000e+01   2.4972000e+01   -3.5393000e+01   -1.4647000e+01
5.7500000e-01   2.4973000e+01   3.5393000e+01   -1.4648000e+01   -3.6297000e+01   3.4286000e-04   -1.2675000e+01   2.4973000e+01   -3.5393000e+01   -1.4646000e+01
5.8750000e-01   2.4974000e+01   3.5393000e+01   -1.4647000e+01   -3.6297000e+01   3.5681000e-04   -1.2676000e+01   2.4974000e+01   -3.5393000e+01   -1.4645000e+01
6.0000000e-01   2.4975000e+01   3.5393000e+01   -1.4646000e+01   -3.6296000e+01   3.7069000e-04   -1.2678000e+01   2.4974000e+01   -3.5393000e+01   -1.4645000e+01
6.1250000e-01   2.4975000e+01   3.5393000e+01   -1.4645000e+01   -3.6295000e+01   3.8452000e-04   -1.2679000e+01   2.4975000e+01   -3.5393000e+01   -1.4644000e+01
6.2500000e-01   2.4976000e+01   3.5393000e+01   -1.4644000e+01   -3.6295000e+01   3.9830000e-04   -1.2681000e+01   2.4976000e+01   -3.5393000e+01   -1.4643000e+01
6.3750000e-01   2.4977000e+01   3.5393000e+01   -1.4643000e+01   -3.6294000e+01   4.1205000e-04   -1.2682000e+01   2.4977000e+01   -3.5393000e+01   -1.4642000e+01
6.5000000e-01   2.4978000e+01   3.5393000e+01   -1.4642000e+01   -3.6293000e+01   4.2574000e-04   -1.2684000e+01   2.4977000e+01   -3.5393000e+01   -1.4641000e+01
6.6250000e-01   2.4978000e+01   3.5393000e+01   -1.4642000e+01   -3.6293000e+01   4.3940000e-04   -1.2686000e+01   2.4978000e+01   -3.5393000e+01   -1.4640000e+01
6.7500000e-01   2.4979000e+01   3.5393000e+01   -1.4641000e+01   -3.6292000e+01   4.5300000e-04   -1.2687000e+01   2.4979000e+01   -3.5393000e+01   -1.4639000e+01
6.8750000e-01   2.4980000e+01   3.5393000e+01   -1.4640000e+01   -3.6291000e+01   4.6657000e-04   -1.2689000e+01   2.4980000e+01   -3.5393000e+01   -1.4638000e+01
7.0000000e-01   2.4981000e+01   3.5393000e+01   -1.4639000e+01   -3.6290000e+01   4.8010000e-04   -1.2690000e+01   2.4981000e+01   -3.5393000e+01   -1.4637000e+01
7.1250000e-01   2.4982000e+01   3.5393000e+01   -1.4638000e+01   -3.6289000e+01   4.9363000e-04   -1.2692000e+01   2.4982000e+01   -3.5393000e+01   -1.4636000e+01
7.2500000e-01   2.4983000e+01   3.5393000e+01   -1.4637000e+01   -3.6289000e+01   5.0717000e-04   -1.2694000e+01   2.4982000e+01   -3.5393000e+01   -1.4635000e+01
7.3750000e-01   2.4984000e+01   3.5393000e+01   -1.4636000e+01   -3.6288000e+01   5.2075000e-04   -1.2695000e+01   2.4983000e+01   -3.5393000e+01   -1.4634000e+01
7.5000000e-01   2.4984000e+01   3.5393000e+01   -1.4635000e+01   -3.6287000e+01   5.3439000e-04   -1.2697000e+01   2.4984000e+01   -3.5393000e+01   -1.4633000e+01
7.6250000e-01   2.4985000e+01   3.5393000e+01   -1.4634000e+01   -3.6286000e+01   5.4812000e-04   -1.2699000e+01   2.4985000e+01   -3.5393000e+01   -1.4632000e+01
7.7500000e-01   2.4986000e+01   3.5393000e+01   -1.4633000e+01   -3.6285000e+01   5.6194000e-04   -1.2700000e+01   2.4986000e+01   -3.5393000e+01   -1.4631000e+01
7.8750000e-01   2.4987000e+01   3.5393000e+01   -1.4632000e+01   -3.6284000e+01   5.7584000e-04   -1.2702000e+01   2.4987000e+01   -3.5393000e+01   -1.4630000e+01
8.0000000e-01   2.4988000e+01   3.5393000e+01   -1.4631000e+01   -3.6283000e+01   5.8983000e-04   -1.2703000e+01   2.4988000e+01   -3.5393000e+01   -1.4629000e+01
8.1250000e-01   2.4989000e+01   3.5393000e+01   -1.4630000e+01   -3.6283000e+01   6.0389000e-04   -1.2705000e+01   2.4989000e+01   -3.5393000e+01   -1.4628000e+01
8.2500000e-01   2.4990000e+01   3.5393000e+01   -1.4629000e+01   -3.6282000e+01   6.1799000e-04   -1.2707000e+01   2.4990000e+01   -3.5393000e+01   -1.4627000e+01
8.3750000e-01   2.4992000e+01   3.5393000e+01   -1.4628000e+01   -3.6281000e+01   6.3211000e-04   -1.2708000e+01   2.4991000e+01   -3.5393000e+01   -1.4626000e+01
8.5000000e-01   2.4993000e+01   3.5393000e+01   -1.4627000e+01   -3.6280000e+01   6.4625000e-04   -1.2710000e+01   2.4992000e+01   -3.5393000e+01   -1.4625000e+01
8.6250000e-01   2.4994000e+01   3.5393000e+01   -1.4626000e+01   -3.6279000e+01   6.6040000e-04   -1.2712000e+01   2.4993000e+01   -3.5393000e+01   -1.4624000e+01
8.7500000e-01   2.4995000e+01   3.5393000e+01   -1.4625000e+01   -3.6278000e+01   6.7455000e-04   -1.2713000e+01   2.4995000e+01   -3.5393000e+01   -1.4623000e+01
8.8750000e-01   2.4996000e+01   3.5393000e+01   -1.4624000e+01   -3.6276000e+01   6.8873000e-04   -1.2715000e+01   2.4996000e+01   -3.5393000e+01   -1.4622000e+01
9.0000000e-01   2.4997000e+01   3.5393000e+01   -1.4623000e+01   -3.6275000e+01   7.0296000e-04   -1.2717000e+01   2.4997000e+01   -3.5393000e+01   -1.4621000e+01
9.1250000e-01   2.4998000e+01   3.5393000e+01   -1.4622000e+01   -3.6274000e+01   7.1726000e-04   -1.2718000e+01   2.4998000e+01   -3.5393000e+01   -1.4620000e+01
9.2500000e-01   2.5000000e+01   3.5393000e+01   -1.4620000e+01   -3.6273000e+01   7.3167000e-04   -1.2720000e+01   2.4999000e+01   -3.5393000e+01   -1.4619000e+01
9.3750000e-01   2.5001000e+01   3.5393000e+01   -1.4619000e+01   -3.6272000e+01   7.4621000e-04   -1.2722000e+01   2.5000000e+01   -3.5393000e+01   -1.4618000e+01
9.5000000e-01   2.5002000e+01   3.5393000e+01   -1.4618000e+01   -3.6271000e+01   7.6091000e-04   -1.2723000e+01   2.5002000e+01   -3.5393000e+01   -1.4617000e+01
9.6250000e-01   2.5003000e+01   3.5393000e+01   -1.4617000e+01   -3.6270000e+01   7.7575000e-04   -1.2725000e+01   2.5003000e+01   -3.5393000e+01   -1.4616000e+01
9.7500000e-01   2.5005000e+01   3.5393000e+01   -1.4616000e+01   -3.6268000e+01   7.9074000e-04   -1.2727000e+01   2.5004000e+01   -3.5393000e+01   -1.4615000e+01
9.8750000e-01   2.5006000e+01   3.5393000e+01   -1.4615000e+01   -3.6267000e+01   8.0581000e-04   -1.2728000e+01   2.5006000e+01   -3.5393000e+01   -1.4614000e+01
1.0000000e+00   2.5007000e+01   3.5393000e+01   -1.4614000e+01   -3.6266000e+01   8.2093000e-04   -1.2730000e+01   2.5007000e+01   -3.5393000e+01   -1.4613000e+01
1.0125000e+00   2.5009000e+01   3.5393000e+01   -1.4613000e+01   -3.6265000e+01   8.3601000e-04   -1.2732000e+01   2.5008000e+01   -3.5393000e+01   -1.4612000e+01
1.0250000e+00   2.5010000e+01   3.5393000e+01   -1.4612000e+01   -3.6263000e+01   8.5096000e-04   -1.2733000e+01   2.5010000e+01   -3.5393000e+01   -1.4611000e+01
1.0375000e+00   2.5011000e+01   3.5393000e+01   -1.4611000e+01   -3.6262000e+01   8.6570000e-04   -1.2735000e+01   2.5011000e+01   -3.5393000e+01   -1.4610000e+01
1.0500000e+00   2.5013000e+01   3.5393000e+01   -1.4610000e+01   -3.6261000e+01   8.8013000e-04   -1.2736000e+01   2.5012000e+01   -3.5393000e+01   -1.4609000e+01
1.0625000e+00   2.5014000e+01   3.5393000e+01   -1.4609000e+01   -3.6259000e+01   8.9418000e-04   -1.2738000e+01   2.5014000e+01   -3.5393000e+01   -1.4608000e+01
1.0750000e+00   2.5016000e+01   3.5393000e+01   -1.4608000e+01   -3.6258000e+01   9.0778000e-04   -1.2739000e+01   2.5015000e+01   -3.5393000e+01   -1.4607000e+01
1.0875000e+00   2.5017000e+01   3.5393000e+01   -1.4607000e+01   -3.6257000e+01   9.2089000e-04   -1.2741000e+01   2.5017000e+01   -3.5393000e+01   -1.4606000e+01
1.1000000e+00   2.5019000e+01   3.5393000e+01   -1.4606000e+01   -3.6255000e+01   9.3349000e-04   -1.2743000e+01   2.5018000e+01   -3.5393000e+01   -1.4605000e+01
1.1125000e+00   2.5020000e+01   3.5393000e+01   -1.4605000e+01   -3.6254000e+01   9.4557000e-04   -1.2744000e+01   2.5020000e+01   -3.5393000e+01   -1.4604000e+01
1.1250000e+00   2.5022000e+01   3.5393000e+01   -1.4604000e+01   -3.6252000e+01   9.5717000e-04   -1.2746000e+01   2.5021000e+01   -3.5393000e+01   -1.4603000e+01
1.1375000e+00   2.5023000e+01   3.5393000e+01   -1.4603000e+01   -3.6251000e+01   9.6831000e-04   -1.2747000e+01   2.5023000e+01   -3.5393000e+01   -1.4602000e+01
1.1500000e+00   2.5025000e+01   3.5393000e+01   -1.4602000e+01   -3.6249000e+01   9.7905000e-04   -1.2749000e+01   2.5024000e+01   -3.5393000e+01   -1.4601000e+01
1.1625000e+00   2.5027000e+01   3.5393000e+01   -1.4601000e+01   -3.6248000e+01   9.8944000e-04   -1.2750000e+01   2.5026000e+01   -3.5393000e+01   -1.4600000e+01
1.1750000e+00   2.5028000e+01   3.5393000e+01   -1.4600000e+01   -3.6246000e+01   9.9952000e-04   -1.2752000e+01   2.5028000e+01   -3.5393000e+01   -1.4599000e+01
1.1875000e+00   2.5030000e+01   3.5393000e+01   -1.4599000e+01   -3.6245000e+01   1.0094000e-03   -1.2753000e+01   2.5029000e+01   -3.5393000e+01   -1.4598000e+01
1.2000000e+00   2.5032000e+01   3.5393000e+01   -1.4598000e+01   -3.6243000e+01   1.0190000e-03   -1.2754000e+01   2.5031000e+01   -3.5393000e+01   -1.4598000e+01
1.2125000e+00   2.5033000e+01   3.5393000e+01   -1.4597000e+01   -3.6241000e+01   1.0284000e-03   -1.2756000e+01   2.5033000e+01   -3.5393000e+01   -1.4597000e+01
1.2250000e+00   2.5035000e+01   3.5393000e+01   -1.4596000e+01   -3.6240000e+01   1.0376000e-03   -1.2757000e+01   2.5034000e+01   -3.5393000e+01   -1.4596000e+01
1.2375000e+00   2.5037000e+01   3.5393000e+01   -1.4595000e+01   -3.6238000e+01   1.0467000e-03   -1.2759000e+01   2.5036000e+01   -3.5393000e+01   -1.4595000e+01
1.2500000e+00   2.5039000e+01   3.5393000e+01   -1.4594000e+01   -3.6236000e+01   1.0556000e-03   -1.2760000e+01   2.5038000e+01   -3.5393000e+01   -1.4594000e+01
1.2625000e+00   2.5040000e+01   3.5393000e+01   -1.4593000e+01   -3.6235000e+01   1.0643000e-03   -1.2761000e+01   2.5040000e+01   -3.5393000e+01   -1.4593000e+01
1.2750000e+00   2.5042000e+01   3.5393000e+01   -1.4592000e+01   -3.6233000e+01   1.0728000e-03   -1.2763000e+01   2.5042000e+01   -3.5393000e+01   -1.4592000e+01
1.2875000e+00   2.5044000e+01   3.5393000e+01   -1.4591000e+01   -3.6231000e+01   1.0812000e-03   -1.2764000e+01   2.5043000e+01   -3.5393000e+01   -1.4592000e+01
1.3000000e+00   2.5046000e+01   3.5393000e+01   -1.4590000e+01   -3.6229000e+01   1.0895000e-03   -1.2765000e+01   2.5045000e+01   -3.5393000e+01   -1.4591000e+01
1.3125000e+00   2.5048000e+01   3.5393000e+01   -1.4589000e+01   -3.6227000e+01   1.0976000e-03   -1.2767000e+01   2.5047000e+01   -3.5393000e+01   -1.4590000e+01
1.3250000e+00   2.5050000e+01   3.5393000e+01   -1.4588000e+01   -3.6226000e+01   1.1057000e-03   -1.2768000e+01   2.5049000e+01   -3.5393000e+01   -1.4589000e+01
1.3375000e+00   2.5052000e+01   3.5393000e+01   -1.4587000e+01   -3.6224000e+01   1.1136000e-03   -1.2769000e+01   2.5051000e+01   -3.5393000e+01   -1.4588000e+01
1.3500000e+00   2.5054000e+01   3.5393000e+01   -1.4586000e+01   -3.6222000e+01   1.1216000e-03   -1.2771000e+01   2.5053000e+01   -3.5393000e+01   -1.4588000e+01
1.3625000e+00   2.5056000e+01   3.5393000e+01   -1.4585000e+01   -3.6220000e+01   1.1296000e-03   -1.2772000e+01   2.5055000e+01   -3.5393000e+01   -1.4587000e+01
1.3750000e+00   2.5058000e+01   3.5393000e+01   -1.4585000e+01   -3.6218000e+01   1.1377000e-03   -1.2773000e+01   2.5057000e+01   -3.5393000e+01   -1.4586000e+01
1.3875000e+00   2.5060000e+01   3.5393000e+01   -1.4584000e+01   -3.6216000e+01   1.1458000e-03   -1.2775000e+01   2.5059000e+01   -3.5393000e+01   -1.4585000e+01
1.4000000e+00   2.5062000e+01   3.5393000e+01   -1.4583000e+01   -3.6214000e+01   1.1542000e-03   -1.2776000e+01   2.5061000e+01   -3.5393000e+01   -1.4584000e+01
1.4125000e+00   2.5064000e+01   3.5393000e+01   -1.4582000e+01   -3.6212000e+01   1.1626000e-03   -1.2777000e+01   2.5063000e+01   -3.5393000e+01   -1.4584000e+01
1.4250000e+00   2.5066000e+01   3.5393000e+01   -1.4581000e+01   -3.6210000e+01   1.1713000e-03   -1.2778000e+01   2.5065000e+01   -3.5393000e+01   -1.4583000e+01
1.4375000e+00   2.5068000e+01   3.5393000e+01   -1.4580000e+01   -3.6208000e+01   1.1802000e-03   -1.2779000e+01   2.5067000e+01   -3.5393000e+01   -1.4582000e+01
1.4500000e+00   2.5070000e+01   3.5393000e+01   -1.4579000e+01   -3.6206000e+01   1.1893000e-03   -1.2781000e+01   2.5069000e+01   -3.5393000e+01   -1.4582000e+01
1.4625000e+00   2.5072000e+01   3.5393000e+01   -1.4578000e+01   -3.6204000e+01   1.1987000e-03   -1.2782000e+01   2.5071000e+01   -3.5393000e+01   -1.4581000e+01
1.4750000e+00   2.5074000e+01   3.5393000e+01   -1.4577000e+01   -3.6202000e+01   1.2084000e-03   -1.2783000e+01   2.5073000e+01   -3.5393000e+01   -1.4580000e+01
1.4875000e+00   2.5076000e+01   3.5393000e+01   -1.4576000e+01   -3.6200000e+01   1.2183000e-03   -1.2784000e+01   2.5075000e+01   -3.5393000e+01   -1.4579000e+01
1.5000000e+00   2.5079000e+01   3.5393000e+01   -1.4575000e+01   -3.6198000e+01   1.2286000e-03   -1.2785000e+01   2.5077000e+01   -3.5393000e+01   -1.4579000e+01
1.5125000e+00   2.5081000e+01   3.5393000e+01   -1.4574000e+01   -3.6196000e+01   1.2392000e-03   -1.2786000e+01   2.5080000e+01   -3.5393000e+01   -1.4578000e+01
1.5250000e+00   2.5083000e+01   3.5393000e+01   -1.4574000e+01   -3.6193000e+01   1.2501000e-03   -1.2788000e+01   2.5082000e+01   -3.5393000e+01   -1.4577000e+01
1.5375000e+00   2.5085000e+01   3.5393000e+01   -1.4573000e+01   -3.6191000e+01   1.2614000e-03   -1.2789000e+01   2.5084000e+01   -3.5393000e+01   -1.4577000e+01
1.5500000e+00   2.5088000e+01   3.5393000e+01   -1.4572000e+01   -3.6189000e+01   1.2729000e-03   -1.2790000e+01   2.5086000e+01   -3.5393000e+01   -1.4576000e+01
1.5625000e+00   2.5090000e+01   3.5393000e+01   -1.4571000e+01   -3.6187000e+01   1.2848000e-03   -1.2791000e+01   2.5089000e+01   -3.5393000e+01   -1.4575000e+01
1.5750000e+00   2.5092000e+01   3.5393000e+01   -1.4570000e+01   -3.6185000e+01   1.2970000e-03   -1.2792000e+01   2.5091000e+01   -3.5393000e+01   -1.4575000e+01
1.5875000e+00   2.5094000e+01   3.5393000e+01   -1.4569000e+01   -3.6182000e+01   1.3094000e-03   -1.2793000e+01   2.5093000e+01   -3.5393000e+01   -1.4574000e+01
1.6000000e+00   2.5097000e+01   3.5393000e+01   -1.4568000e+01   -3.6180000e+01   1.3219000e-03   -1.2794000e+01   2.5096000e+01   -3.5393000e+01   -1.4573000e+01
1.6125000e+00   2.5099000e+01   3.5393000e+01   -1.4567000e+01   -3.6178000e+01   1.3347000e-03   -1.2796000e+01   2.5098000e+01   -3.5393000e+01   -1.4573000e+01
1.6250000e+00   2.5102000e+01   3.5393000e+01   -1.4566000e+01   -3.6175000e+01   1.3475000e-03   -1.2797000e+01   2.5100000e+01   -3.5393000e+01   -1.4572000e+01
1.6375000e+00   2.5104000e+01   3.5393000e+01   -1.4565000e+01   -3.6173000e+01   1.3605000e-03   -1.2798000e+01   2.5103000e+01   -3.5393000e+01   -1.4571000e+01
1.6500000e+00   2.5106000e+01   3.5393000e+01   -1.4565000e+01   -3.6171000e+01   1.3734000e-03   -1.2799000e+01   2.5105000e+01   -3.5393000e+01   -1.4571000e+01
1.6625000e+00   2.5109000e+01   3.5393000e+01   -1.4564000e+01   -3.6168000e+01   1.3864000e-03   -1.2800000e+01   2.5107000e+01   -3.5393000e+01   -1.4570000e+01
1.6750000e+00   2.5111000e+01   3.5393000e+01   -1.4563000e+01   -3.6166000e+01   1.3994000e-03   -1.2801000e+01   2.5110000e+01   -3.5393000e+01   -1.4569000e+01
1.6875000e+00   2.5114000e+01   3.5393000e+01   -1.4562000e+01   -3.6164000e+01   1.4124000e-03   -1.2802000e+01   2.5112000e+01   -3.5393000e+01   -1.4569000e+01
1.7000000e+00   2.5116000e+01   3.5393000e+01   -1.4561000e+01   -3.6161000e+01   1.4254000e-03   -1.2803000e+01   2.5115000e+01   -3.5393000e+01   -1.4568000e+01
1.7125000e+00   2.5119000e+01   3.5393000e+01   -1.4560000e+01   -3.6159000e+01   1.4385000e-03   -1.2804000e+01   2.5117000e+01   -3.5393000e+01   -1.4567000e+01
1.7250000e+00   2.5121000e+01   3.5393000e+01   -1.4559000e+01   -3.6156000e+01   1.4516000e-03   -1.2806000e+01   2.5120000e+01   -3.5393000e+01   -1.4567000e+01
1.7375000e+00   2.5124000e+01   3.5393000e+01   -1.4558000e+01   -3.6154000e+01   1.4648000e-03   -1.2807000e+01   2.5122000e+01   -3.5393000e+01   -1.4566000e+01
1.7500000e+00   2.5126000e+01   3.5393000e+01   -1.4558000e+01   -3.6151000e+01   1.4781000e-03   -1.2808000e+01   2.5125000e+01   -3.5393000e+01   -1.4565000e+01
1.7625000e+00   2.5129000e+01   3.5393000e+01   -1.4557000e+01   -3.6149000e+01   1.4915000e-03   -1.2809000e+01   2.5127000e+01   -3.5393000e+01   -1.4565000e+01
1.7750000e+00   2.5132000e+01   3.5393000e+01   -1.4556000e+01   -3.6146000e+01   1.5052000e-03   -1.2810000e+01   2.5130000e+01   -3.5393000e+01   -1.4564000e+01
1.7875000e+00   2.5134000e+01   3.5393000e+01   -1.4555000e+01   -3.6144000e+01   1.5189000e-03   -1.2811000e+01   2.5133000e+01   -3.5393000e+01   -1.4563000e+01
1.8000000e+00   2.5137000e+01   3.5393000e+01   -1.4554000e+01   -3.6141000e+01   1.5328000e-03   -1.2812000e+01   2.5135000e+01   -3.5393000e+01   -1.4563000e+01
1.8125000e+00   2.5140000e+01   3.5393000e+01   -1.4553000e+01   -3.6138000e+01   1.5469000e-03   -1.2813000e+01   2.5138000e+01   -3.5393000e+01   -1.4562000e+01
1.8250000e+00   2.5142000e+01   3.5393000e+01   -1.4552000e+01   -3.6136000e+01   1.5611000e-03   -1.2815000e+01   2.5140000e+01   -3.5393000e+01   -1.4561000e+01
1.8375000e+00   2.5145000e+01   3.5393000e+01   -1.4551000e+01   -3.6133000e+01   1.5755000e-03   -1.2816000e+01   2.5143000e+01   -3.5393000e+01   -1.4561000e+01
1.8500000e+00   2.5148000e+01   3.5393000e+01   -1.4550000e+01   -3.6131000e+01   1.5899000e-03   -1.2817000e+01   2.5146000e+01   -3.5393000e+01   -1.4560000e+01
1.8625000e+00   2.5150000e+01   3.5393000e+01   -1.4550000e+01   -3.6128000e+01   1.6045000e-03   -1.2818000e+01   2.5149000e+01   -3.5393000e+01   -1.4559000e+01
1.8750000e+00   2.5153000e+01   3.5393000e+01   -1.4549000e+01   -3.6125000e+01   1.6192000e-03   -1.2819000e+01   2.5151000e+01   -3.5393000e+01   -1.4559000e+01
1.8875000e+00   2.5156000e+01   3.5393000e+01   -1.4548000e+01   -3.6123000e+01   1.6341000e-03   -1.2821000e+01   2.5154000e+01   -3.5393000e+01   -1.4558000e+01
1.9000000e+00   2.5159000e+01   3.5393000e+01   -1.4547000e+01   -3.6120000e+01   1.6491000e-03   -1.2822000e+01   2.5157000e+01   -3.5393000e+01   -1.4557000e+01
1.9125000e+00   2.5161000e+01   3.5393000e+01   -1.4546000e+01   -3.6117000e+01   1.6643000e-03   -1.2823000e+01   2.5159000e+01   -3.5393000e+01   -1.4557000e+01
1.9250000e+00   2.5164000e+01   3.5393000e+01   -1.4545000e+01   -3.6114000e+01   1.6798000e-03   -1.2824000e+01   2.5162000e+01   -3.5393000e+01   -1.4556000e+01
1.9375000e+00   2.5167000e+01   3.5393000e+01   -1.4544000e+01   -3.6112000e+01   1.6955000e-03   -1.2826000e+01   2.5165000e+01   -3.5393000e+01   -1.4555000e+01
1.9500000e+00   2.5170000e+01   3.5393000e+01   -1.4543000e+01   -3.6109000e+01   1.7116000e-03   -1.2827000e+01   2.5168000e+01   -3.5393000e+01   -1.4554000e+01
1.9625000e+00   2.5173000e+01   3.5393000e+01   -1.4542000e+01   -3.6106000e+01   1.7280000e-03   -1.2828000e+01   2.5171000e+01   -3.5393000e+01   -1.4554000e+01
1.9750000e+00   2.5176000e+01   3.5393000e+01   -1.4541000e+01   -3.6103000e+01   1.7449000e-03   -1.2829000e+01   2.5173000e+01   -3.5393000e+01   -1.4553000e+01
1.9875000e+00   2.5178000e+01   3.5393000e+01   -1.4540000e+01   -3.6101000e+01   1.7623000e-03   -1.2831000e+01   2.5176000e+01   -3.5393000e+01   -1.4552000e+01
2.0000000e+00   2.5181000e+01   3.5393000e+01   -1.4539000e+01   -3.6098000e+01   1.7801000e-03   -1.2832000e+01   2.5179000e+01   -3.5393000e+01   -1.4551000e+01
2.0125000e+00   2.5184000e+01   3.5393000e+01   -1.4538000e+01   -3.6095000e+01   1.7986000e-03   -1.2833000e+01   2.5182000e+01   -3.5393000e+01   -1.4551000e+01
2.0250000e+00   2.5187000e+01   3.5393000e+01   -1.4537000e+01   -3.6092000e+01   1.8176000e-03   -1.2835000e+01   2.5185000e+01   -3.5393000e+01   -1.4550000e+01
2.0375000e+00   2.5190000e+01   3.5393000e+01   -1.4537000e+01   -3.6089000e+01   1.8372000e-03   -1.2836000e+01   2.5188000e+01   -3.5393000e+01   -1.4549000e+01
2.0500000e+00   2.5193000e+01   3.5393000e+01   -1.4536000e+01   -3.6086000e+01   1.8574000e-03   -1.2838000e+01   2.5191000e+01   -3.5393000e+01   -1.4548000e+01
2.0625000e+00   2.5196000e+01   3.5393000e+01   -1.4535000e+01   -3.6084000e+01   1.8783000e-03   -1.2839000e+01   2.5194000e+01   -3.5393000e+01   -1.4548000e+01
2.0750000e+00   2.5199000e+01   3.5393000e+01   -1.4534000e+01   -3.6081000e+01   1.8998000e-03   -1.2840000e+01   2.5197000e+01   -3.5393000e+01   -1.4547000e+01
2.0875000e+00   2.5202000e+01   3.5393000e+01   -1.4533000e+01   -3.6078000e+01   1.9219000e-03   -1.2842000e+01   2.5200000e+01   -3.5393000e+01   -1.4546000e+01
2.1000000e+00   2.5205000e+01   3.5393000e+01   -1.4532000e+01   -3.6075000e+01   1.9447000e-03   -1.2843000e+01   2.5203000e+01   -3.5393000e+01   -1.4545000e+01
2.1125000e+00   2.5208000e+01   3.5393000e+01   -1.4531000e+01   -3.6072000e+01   1.9681000e-03   -1.2845000e+01   2.5206000e+01   -3.5393000e+01   -1.4544000e+01
2.1250000e+00   2.5211000e+01   3.5393000e+01   -1.4530000e+01   -3.6069000e+01   1.9922000e-03   -1.2846000e+01   2.5209000e+01   -3.5393000e+01   -1.4544000e+01
2.1375000e+00   2.5214000e+01   3.5393000e+01   -1.4529000e+01   -3.6066000e+01   2.0169000e-03   -1.2848000e+01   2.5212000e+01   -3.5393000e+01   -1.4543000e+01
2.1500000e+00   2.5217000e+01   3.5393000e+01   -1.4528000e+01   -3.6063000e+01   2.0422000e-03   -1.2850000e+01   2.5215000e+01   -3.5393000e+01   -1.4542000e+01
2.1625000e+00   2.5220000e+01   3.5393000e+01   -1.4527000e+01   -3.6060000e+01   2.0681000e-03   -1.2851000e+01   2.5218000e+01   -3.5393000e+01   -1.4541000e+01
2.1750000e+00   2.5223000e+01   3.5393000e+01   -1.4526000e+01   -3.6057000e+01   2.0945000e-03   -1.2853000e+01   2.5221000e+01   -3.5393000e+01   -1.4540000e+01
2.1875000e+00   2.5226000e+01   3.5393000e+01   -1.4525000e+01   -3.6054000e+01   2.1216000e-03   -1.2854000e+01   2.5224000e+01   -3.5393000e+01   -1.4539000e+01
2.2000000e+00   2.5229000e+01   3.5393000e+01   -1.4523000e+01   -3.6051000e+01   2.1491000e-03   -1.2856000e+01   2.5227000e+01   -3.5393000e+01   -1.4538000e+01
2.2125000e+00   2.5233000e+01   3.5393000e+01   -1.4522000e+01   -3.6048000e+01   2.1772000e-03   -1.2858000e+01   2.5230000e+01   -3.5393000e+01   -1.4537000e+01
2.2250000e+00   2.5236000e+01   3.5393000e+01   -1.4521000e+01   -3.6045000e+01   2.2057000e-03   -1.2859000e+01   2.5233000e+01   -3.5393000e+01   -1.4537000e+01
2.2375000e+00   2.5239000e+01   3.5393000e+01   -1.4520000e+01   -3.6042000e+01   2.2347000e-03   -1.2861000e+01   2.5236000e+01   -3.5393000e+01   -1.4536000e+01
2.2500000e+00   2.5242000e+01   3.5393000e+01   -1.4519000e+01   -3.6039000e+01   2.2642000e-03   -1.2863000e+01   2.5239000e+01   -3.5393000e+01   -1.4535000e+01
2.2625000e+00   2.5245000e+01   3.5393000e+01   -1.4518000e+01   -3.6036000e+01   2.2940000e-03   -1.2865000e+01   2.5243000e+01   -3.5393000e+01   -1.4534000e+01
2.2750000e+00   2.5248000e+01   3.5393000e+01   -1.4517000e+01   -3.6032000e+01   2.3243000e-03   -1.2866000e+01   2.5246000e+01   -3.5393000e+01   -1.4533000e+01