<?xml version="1.0"?>
<VTKFile type="PolyData" version="0.1" byte_order="LittleEndian">
  <PolyData>
    <Piece NumberOfPoints="     19" NumberOfVerts="  0" NumberOfLines="     18"
           NumberOfStrips="  0" NumberOfPolys="      0">
      <Points>
        <DataArray type="Float32" NumberOfComponents="3" format="ascii">
                       2.56483                       0.90772                      87.02778
                       1.97877                       1.93946                      83.61027
                       1.39997                       2.97398                      80.19236
                       0.83128                       4.01216                      76.77387
                       0.27513                       5.05452                      73.35458
                      -0.26582                       6.10131                      69.93422
                      -0.78832                       7.15278                      66.51242
                      -1.28835                       8.20913                      63.08878
                      -1.76111                       9.27046                      59.66282
                      -2.20123                      10.33674                      56.23406
                      -2.60325                      11.40767                      52.80208
                      -2.96226                      12.48274                      49.36664
                      -3.27484                      13.56117                      45.92772
                      -3.54017                      14.64209                      42.48559
                      -3.76137                      15.72458                      39.04079
                      -3.94712                      16.80779                      35.59408
                      -4.11341                      17.89121                      32.14639
                      -4.19422                      18.43294                      30.42244
                       2.85927                       0.39241                      88.73647
        </DataArray>
      </Points>
      <PointData>
        <DataArray type="Float32" Name="TranslationalVelocity" NumberOfComponents="3" format="ascii">
                      -0.32402                       2.96979                       0.84947
                      -0.17112                       6.17708                       1.79152
                      -0.01642                       9.37279                       2.73259
                       0.14033                      12.55398                       3.67263
                       0.29899                      15.71888                       4.61162
                       0.45940                      18.86666                       5.54962
                       0.62192                      21.99724                       6.48678
                       0.78760                      25.11104                       7.42333
                       0.95818                      28.20880                       8.35946
                       1.13602                      31.29141                       9.29528
                       1.32392                      34.35975                      10.23076
                       1.52483                      37.41460                      11.16577
                       1.74145                      40.45669                      12.10012
                       1.97571                      43.48688                      13.03366
                       2.22810                      46.50648                      13.96634
                       2.49697                      49.51768                      14.89816
                       2.77764                      52.52414                      15.82930
                       2.92011                      54.02676                      16.29475
                      -0.40008                       1.36369                       0.37820
        </DataArray>
        <DataArray type="Float32" Name="RotationalVelocity" NumberOfComponents="3" format="ascii">
                       0.91995                      -0.00949                      -0.11614
                       0.91725                      -0.00996                      -0.11582
                       0.91358                      -0.01059                      -0.11537
                       0.90929                      -0.01122                      -0.11482
                       0.90467                      -0.01177                      -0.11419
                       0.89993                      -0.01233                      -0.11354
                       0.89528                      -0.01306                      -0.11295
                       0.89081                      -0.01416                      -0.11251
                       0.88661                      -0.01578                      -0.11228
                       0.88272                      -0.01810                      -0.11230
                       0.87914                      -0.02119                      -0.11261
                       0.87588                      -0.02505                      -0.11321
                       0.87297                      -0.02955                      -0.11407
                       0.87044                      -0.03441                      -0.11509
                       0.86840                      -0.03916                      -0.11617
                       0.86700                      -0.04313                      -0.11713
                       0.86647                      -0.04540                      -0.11772
                       0.86647                      -0.04598                      -0.11789
                       0.92101                      -0.00931                      -0.11627
        </DataArray>
        <DataArray type="Float32" Name="TranslationalAcceleration" NumberOfComponents="3" format="ascii">
                      -0.72518                      -0.46452                       2.76235
                      -0.30687                      -1.29751                       5.71568
                       0.17914                      -2.24240                       8.60148
                       0.75712                      -3.32550                      11.40251
                       1.44402                      -4.56284                      14.10834
                       2.24011                      -5.96503                      16.71509
                       3.12444                      -7.53910                      19.22497
                       4.05182                      -9.28971                      21.64558
                       4.95202                     -11.21955                      23.98862
                       5.73295                     -13.32851                      26.26810
                       6.28711                     -15.61223                      28.49821
                       6.50144                     -18.06078                      30.69096
                       6.27069                     -20.65793                      32.85453
                       5.51457                     -23.38148                      34.99286
                       4.19848                     -26.20365                      37.10780
                       2.35806                     -29.09202                      39.20353
                       0.12750                     -32.01188                      41.29166
                      -1.06143                     -33.47530                      42.33588
                      -0.92050                      -0.07185                       1.27140
        </DataArray>
        <DataArray type="Float32" Name="RotationalAcceleration" NumberOfComponents="3" format="ascii">
                       0.02976                      -0.00890                       0.00395
                       0.00087                      -0.02572                       0.00387
                      -0.03808                      -0.04984                       0.00334
                      -0.08303                      -0.08076                       0.00179
                      -0.13177                      -0.11460                       0.00002
                      -0.18277                      -0.14597                      -0.00062
                      -0.23476                      -0.16868                       0.00152
                      -0.28692                      -0.17579                       0.00840
                      -0.33841                      -0.16080                       0.02181
                      -0.38822                      -0.11860                       0.04314
                      -0.43512                      -0.04626                       0.07305
                      -0.47769                       0.05604                       0.11124
                      -0.51465                       0.18404                       0.15620
                      -0.54481                       0.32857                       0.20497
                      -0.56691                       0.47475                       0.25284
                      -0.57981                       0.60096                       0.29311
                      -0.58288                       0.67796                       0.31684
                      -0.58192                       0.69999                       0.32332
                       0.04105                      -0.00213                       0.00404
        </DataArray>
        <DataArray type="Float32" Name="OrientationX" NumberOfComponents="3" format="ascii">
                       0.96776                       0.23260                      -0.09661
                       0.96803                       0.23213                      -0.09505
                       0.96845                       0.23139                      -0.09259
                       0.97144                       0.21804                      -0.09364
                       0.97713                       0.18790                      -0.09955
                       0.98032                       0.16990                      -0.10053
                       0.98335                       0.15135                      -0.10061
                       0.98629                       0.13143                      -0.09983
                       0.98902                       0.11081                      -0.09775
                       0.99146                       0.09048                      -0.09396
                       0.99360                       0.06995                      -0.08867
                       0.99538                       0.04997                      -0.08195
                       0.99674                       0.03298                      -0.07362
                       0.99773                       0.01756                      -0.06505
                       0.99832                       0.00257                      -0.05795
                       0.99848                      -0.01135                      -0.05392
                       0.99835                      -0.01970                      -0.05387
                       0.99825                      -0.02192                      -0.05500
                       0.96767                       0.23276                      -0.09713
        </DataArray>
        <DataArray type="Float32" Name="OrientationY" NumberOfComponents="3" format="ascii">
                       0.19220                      -0.92991                      -0.31357
                       0.19216                      -0.92984                      -0.31380
                       0.19211                      -0.92974                      -0.31412
                       0.17913                      -0.93262                      -0.31325
                       0.14888                      -0.93879                      -0.31065
                       0.13151                      -0.94183                      -0.30929
                       0.11388                      -0.94458                      -0.30790
                       0.09520                      -0.94713                      -0.30639
                       0.07623                      -0.94934                      -0.30486
                       0.05804                      -0.95108                      -0.30345
                       0.04009                      -0.95243                      -0.30212
                       0.02309                      -0.95336                      -0.30095
                       0.00939                      -0.95385                      -0.30013
                      -0.00274                      -0.95409                      -0.29951
                      -0.01489                      -0.95416                      -0.29893
                      -0.02696                      -0.95407                      -0.29838
                      -0.03491                      -0.95393                      -0.29800
                      -0.03736                      -0.95388                      -0.29787
                       0.19222                      -0.92994                      -0.31347
        </DataArray>
        <DataArray type="Float32" Name="OrientationZ" NumberOfComponents="3" format="ascii">
                      -0.16278                       0.28489                      -0.94464
                      -0.16122                       0.28551                      -0.94472
                      -0.15877                       0.28642                      -0.94486
                      -0.15563                       0.28753                      -0.94504
                      -0.15183                       0.28873                      -0.94530
                      -0.14723                       0.28999                      -0.94564
                      -0.14164                       0.29131                      -0.94609
                      -0.13482                       0.29268                      -0.94666
                      -0.12658                       0.29406                      -0.94737
                      -0.11682                       0.29540                      -0.94820
                      -0.10559                       0.29663                      -0.94914
                      -0.09317                       0.29766                      -0.95011
                      -0.08012                       0.29846                      -0.95105
                      -0.06732                       0.29901                      -0.95187
                      -0.05606                       0.29929                      -0.95251
                      -0.04805                       0.29938                      -0.95292
                      -0.04552                       0.29939                      -0.95304
                      -0.04593                       0.29940                      -0.95302
                      -0.16329                       0.28467                      -0.94462
        </DataArray>
      </PointData>
      <Lines>
        <DataArray type="Int32" Name="connectivity" format="ascii">
      0      1
      1      2
      2      3
      3      4
      4      5
      5      6
      6      7
      7      8
      8      9
      9     10
     10     11
     11     12
     12     13
     13     14
     14     15
     15     16
     16     17
     18      0
        </DataArray>
        <DataArray type="Int32" Name="offsets" format="ascii">
      2
      4
      6
      8
     10
     12
     14
     16
     18
     20
     22
     24
     26
     28
     30
     32
     34
     36
        </DataArray>
      </Lines>
    </Piece>
  </PolyData>
</VTKFile>
