<?xml version="1.0"?>
<VTKFile type="PolyData" version="0.1" byte_order="LittleEndian">
  <PolyData>
    <Piece NumberOfPoints="     19" NumberOfVerts="  0" NumberOfLines="     18"
           NumberOfStrips="  0" NumberOfPolys="      0">
      <Points>
        <DataArray type="Float32" NumberOfComponents="3" format="ascii">
                       3.05463                       0.72910                      91.44011
                       3.13953                       1.41134                      92.62130
                       3.29407                       2.69337                      95.03261
                       3.44527                       3.93626                      97.46700
                       3.63881                       5.46614                     100.52371
                       3.93115                       7.42577                     104.11519
                       4.26162                       9.49699                     107.63861
                       4.61670                      11.56884                     111.15925
                       5.00486                      13.64249                     114.67533
                       5.43286                      15.71579                     118.18695
                       5.90247                      17.78546                     121.69533
                       6.42706                      19.85219                     125.19760
                       7.01311                      21.91584                     128.69191
                       7.66365                      23.97641                     132.17660
                       8.37830                      26.03394                     135.65052
                       9.01461                      27.74672                     138.53792
                       9.54312                      29.12292                     140.83992
                      10.07246                      30.54673                     143.11392
                      10.33910                      31.22245                     144.27152
        </DataArray>
      </Points>
      <PointData>
        <DataArray type="Float32" Name="Force" NumberOfComponents="3" format="ascii">
                      -0.04381                       0.61907                      -0.35652
                      81.66893                      19.18779                     -17.06886
                      97.00732                      48.63157                     -35.45412
                      83.14482                      64.49263                     -43.84075
                     845.44613                    -267.92846                      88.09563
                    1145.45498                    -363.18897                     113.18121
                    1303.28561                    -338.97733                      76.79368
                    1641.26627                    -364.21239                      46.71628
                    1779.81974                    -338.68279                      -0.06640
                    2023.00748                    -340.28452                     -50.93639
                    2442.26817                    -365.20169                    -124.45367
                    2747.79649                    -374.54351                    -208.19445
                    3152.71175                    -415.52009                    -305.93746
                    3391.69759                    -425.08151                    -406.39694
                    3578.51466                    -425.57714                    -504.53255
                    3647.70513                    -404.89146                    -571.79122
                    3487.48606                    -354.57573                    -583.63003
                    2512.05657                    -237.91601                    -435.07810
                    1321.57118                     -44.54002                    -275.91415
        </DataArray>
        <DataArray type="Float32" Name="Moment" NumberOfComponents="3" format="ascii">
                       0.00000                       0.00000                       0.00000
                       0.00000                       0.00000                       0.00000
                       0.00000                       0.00000                       0.00000
                       0.00000                       0.00000                       0.00000
                     -19.59374                    -142.25464                    -244.60488
                     -31.23282                    -212.05712                    -364.38049
                     -46.94077                    -295.35436                    -507.08858
                     -71.04200                    -410.43306                    -703.95102
                    -103.37168                    -543.04850                    -930.25339
                    -130.50662                    -617.71290                   -1056.56725
                    -154.49338                    -653.14631                   -1115.14686
                    -185.32413                    -698.28238                   -1189.73332
                    -187.43734                    -631.61347                   -1073.70908
                    -207.07581                    -630.26914                   -1068.96174
                    -218.08134                    -609.93760                   -1032.30556
                    -217.02912                    -577.28706                    -975.74012
                    -195.61104                    -508.93283                    -859.68084
                     -98.66024                    -254.79863                    -430.31225
                     -87.08230                    -225.41769                    -380.71751
        </DataArray>
        <DataArray type="Float32" Name="TranslationalVelocity" NumberOfComponents="3" format="ascii">
                      -0.56931                      -1.16467                       0.66130
                      -0.50935                      -2.26819                       1.29436
                      -0.39930                      -4.52060                       2.48470
                      -0.29315                      -6.79986                       3.64126
                      -0.16119                      -9.67286                       5.06932
                       0.01658                     -13.07290                       6.90701
                       0.21497                     -16.43353                       8.86044
                       0.42364                     -19.81494                      10.82596
                       0.64733                     -23.21649                      12.80426
                       0.89175                     -26.63872                      14.79220
                       1.16019                     -30.08046                      16.78420
                       1.46231                     -33.54186                      18.77952
                       1.80473                     -37.02092                      20.77507
                       2.19186                     -40.51507                      22.76771
                       2.62403                     -44.02127                      24.75465
                       3.01402                     -46.94961                      26.40551
                       3.34249                     -49.29115                      27.72996
                       3.68265                     -51.60647                      29.10062
                       3.84857                     -52.78472                      29.75033
        </DataArray>
        <DataArray type="Float32" Name="RotationalVelocity" NumberOfComponents="3" format="ascii">
                       0.92525                      -0.01490                      -0.11354
                       0.92607                      -0.01486                      -0.11362
                       0.92811                      -0.01467                      -0.11387
                       0.93063                      -0.01436                      -0.11424
                       0.93446                      -0.01377                      -0.11485
                       0.93969                      -0.01274                      -0.11583
                       0.94524                      -0.01117                      -0.11714
                       0.95084                      -0.00881                      -0.11892
                       0.95632                      -0.00540                      -0.12129
                       0.96155                      -0.00069                      -0.12440
                       0.96633                       0.00567                      -0.12844
                       0.97060                       0.01347                      -0.13328
                       0.97425                       0.02242                      -0.13874
                       0.97722                       0.03191                      -0.14447
                       0.97944                       0.04093                      -0.14987
                       0.98063                       0.04695                      -0.15346
                       0.98115                       0.04998                      -0.15525
                       0.98135                       0.05139                      -0.15608
                       0.98133                       0.05140                      -0.15609
        </DataArray>
        <DataArray type="Float32" Name="TranslationalAcceleration" NumberOfComponents="3" format="ascii">
                      -0.27788                      -0.81917                      -0.99057
                      -0.39746                      -1.40078                      -2.01933
                      -0.64754                      -2.48927                      -4.12096
                      -0.93043                      -3.53507                      -6.25682
                      -1.34941                      -4.80458                      -8.96608
                      -1.97213                      -6.41001                     -12.20318
                      -2.75627                      -8.08612                     -15.43912
                      -3.70850                      -9.73576                     -18.72506
                      -4.80026                     -11.36555                     -22.05715
                      -5.96740                     -12.98205                     -25.43428
                      -7.12410                     -14.59148                     -28.85491
                      -8.15917                     -16.20248                     -32.33063
                      -8.94484                     -17.82313                     -35.87691
                      -9.36211                     -19.46051                     -39.51529
                      -9.32584                     -21.12024                     -43.26705
                      -8.94097                     -22.52174                     -46.48488
                      -8.40852                     -23.66209                     -49.11401
                      -7.72461                     -24.85943                     -51.75547
                      -7.36486                     -25.42126                     -53.09709
        </DataArray>
        <DataArray type="Float32" Name="OrientationX" NumberOfComponents="3" format="ascii">
                       0.98353                      -0.17778                       0.03256
                       0.98350                      -0.17802                       0.03214
                       0.98341                      -0.17873                       0.03093
                       0.98329                      -0.17969                       0.02927
                       0.98307                      -0.18128                       0.02653
                       0.98764                      -0.15661                       0.00625
                       0.99011                      -0.13993                      -0.01046
                       0.99163                      -0.12632                      -0.02680
                       0.99263                      -0.11247                      -0.04508
                       0.99295                      -0.09898                      -0.06524
                       0.99238                      -0.08756                      -0.08666
                       0.99099                      -0.07716                      -0.10950
                       0.98879                      -0.06901                      -0.13237
                       0.98608                      -0.06481                      -0.15309
                       0.98319                      -0.06008                      -0.17240
                       0.98103                      -0.05465                      -0.18599
                       0.97980                      -0.04928                      -0.19382
                       0.97926                      -0.04600                      -0.19730
                       0.97935                      -0.04577                      -0.19692
        </DataArray>
        <DataArray type="Float32" Name="OrientationY" NumberOfComponents="3" format="ascii">
                       0.16975                       0.84676                      -0.50416
                       0.16974                       0.84671                      -0.50425
                       0.16973                       0.84660                      -0.50445
                       0.16971                       0.84645                      -0.50469
                       0.16968                       0.84623                      -0.50508
                       0.13819                       0.85132                      -0.50612
                       0.11540                       0.85442                      -0.50661
                       0.09544                       0.85678                      -0.50678
                       0.07433                       0.85900                      -0.50655
                       0.05259                       0.86102                      -0.50584
                       0.03204                       0.86267                      -0.50475
                       0.01168                       0.86411                      -0.50317
                      -0.00672                       0.86524                      -0.50130
                      -0.02065                       0.86600                      -0.49961
                      -0.03429                       0.86673                      -0.49760
                      -0.04566                       0.86731                      -0.49567
                      -0.05409                       0.86773                      -0.49408
                      -0.05860                       0.86794                      -0.49320
                      -0.05860                       0.86794                      -0.49320
        </DataArray>
        <DataArray type="Float32" Name="OrientationZ" NumberOfComponents="3" format="ascii">
                       0.06205                       0.50139                       0.86299
                       0.06256                       0.50138                       0.86296
                       0.06398                       0.50133                       0.86289
                       0.06591                       0.50123                       0.86280
                       0.06912                       0.50103                       0.86267
                       0.07394                       0.50072                       0.86244
                       0.07983                       0.50039                       0.86211
                       0.08698                       0.49998                       0.86166
                       0.09570                       0.49946                       0.86103
                       0.10625                       0.49884                       0.86016
                       0.11896                       0.49813                       0.85891
                       0.13345                       0.49736                       0.85722
                       0.14913                       0.49658                       0.85509
                       0.16496                       0.49582                       0.85261
                       0.17932                       0.49515                       0.85010
                       0.18839                       0.49476                       0.84836
                       0.19253                       0.49459                       0.84754
                       0.19393                       0.49454                       0.84725
                       0.19349                       0.49456                       0.84733
        </DataArray>
      </PointData>
      <Lines>
        <DataArray type="Int32" Name="connectivity" format="ascii">
      0      1
      1      2
      2      3
      3      4
      4      5
      5      6
      6      7
      7      8
      8      9
      9     10
     10     11
     11     12
     12     13
     13     14
     14     15
     15     16
     16     17
     17     18
        </DataArray>
        <DataArray type="Int32" Name="offsets" format="ascii">
      2
      4
      6
      8
     10
     12
     14
     16
     18
     20
     22
     24
     26
     28
     30
     32
     34
     36
        </DataArray>
      </Lines>
    </Piece>
  </PolyData>
</VTKFile>
