<?xml version="1.0"?>
<VTKFile type="PolyData" version="0.1" byte_order="LittleEndian">
  <PolyData>
    <Piece NumberOfPoints="     19" NumberOfVerts="  0" NumberOfLines="     18"
           NumberOfStrips="  0" NumberOfPolys="      0">
      <Points>
        <DataArray type="Float32" NumberOfComponents="3" format="ascii">
                       3.07596                       1.15600                      93.22382
                       3.32802                       2.43899                      96.59691
                       3.58925                       3.71983                      99.97012
                       3.86320                       4.99775                     103.34343
                       4.15289                       6.27233                     106.71668
                       4.46154                       7.54332                     110.08959
                       4.79311                       8.81047                     113.46178
                       5.15250                      10.07345                     116.83266
                       5.54553                      11.33197                     120.20144
                       5.97869                      12.58582                     123.56702
                       6.45856                      13.83494                     126.92801
                       6.99097                      15.07938                     130.28280
                       7.57992                      16.31941                     133.62978
                       8.22624                      17.55542                     136.96769
                       8.92597                      18.78801                     140.29615
                       9.66851                      20.01813                     143.61635
                      10.43451                      21.24699                     146.93175
                      10.82034                      21.86128                     148.58886
                       2.95172                       0.51408                      91.53730
        </DataArray>
      </Points>
      <PointData>
        <DataArray type="Float32" Name="TranslationalVelocity" NumberOfComponents="3" format="ascii">
                      -0.55392                      -2.85462                       1.03435
                      -0.46937                      -5.98259                       2.21779
                      -0.38483                      -9.11667                       3.40128
                      -0.30016                     -12.25852                       4.58464
                      -0.21504                     -15.40907                       5.76776
                      -0.12885                     -18.56885                       6.95054
                      -0.04055                     -21.73809                       8.13274
                       0.05134                     -24.91684                       9.31392
                       0.14874                     -28.10489                      10.49354
                       0.25392                     -31.30177                      11.67098
                       0.36937                     -34.50666                      12.84555
                       0.49746                     -37.71837                      14.01655
                       0.64014                     -40.93542                      15.18330
                       0.79850                     -44.15615                      16.34525
                       0.97226                     -47.37897                      17.50224
                       1.15918                     -50.60261                      18.65492
                       1.35442                     -53.82645                      19.80494
                       1.45332                     -55.43841                      20.37957
                      -0.59621                      -1.29191                       0.44267
        </DataArray>
        <DataArray type="Float32" Name="RotationalVelocity" NumberOfComponents="3" format="ascii">
                       0.91847                      -0.01689                      -0.11026
                       0.91971                      -0.01689                      -0.11035
                       0.92141                      -0.01684                      -0.11049
                       0.92340                      -0.01674                      -0.11067
                       0.92554                      -0.01652                      -0.11091
                       0.92775                      -0.01608                      -0.11124
                       0.92996                      -0.01532                      -0.11169
                       0.93214                      -0.01410                      -0.11232
                       0.93423                      -0.01232                      -0.11315
                       0.93620                      -0.00990                      -0.11421
                       0.93802                      -0.00683                      -0.11552
                       0.93963                      -0.00316                      -0.11703
                       0.94102                       0.00092                      -0.11869
                       0.94216                       0.00515                      -0.12038
                       0.94300                       0.00907                      -0.12193
                       0.94351                       0.01211                      -0.12313
                       0.94367                       0.01346                      -0.12365
                       0.94366                       0.01360                      -0.12371
                       0.91798                      -0.01686                      -0.11023
        </DataArray>
        <DataArray type="Float32" Name="TranslationalAcceleration" NumberOfComponents="3" format="ascii">
                      -0.01325                      -1.32014                      -2.59328
                      -0.36139                      -2.37529                      -5.48390
                      -0.71105                      -3.35098                      -8.41559
                      -1.06490                      -4.22699                     -11.39848
                      -1.42750                      -4.99116                     -14.43823
                      -1.80907                      -5.63687                     -17.53701
                      -2.22657                      -6.16111                     -20.69414
                      -2.70468                      -6.56320                     -23.90628
                      -3.27590                      -6.84413                     -27.16727
                      -3.97893                      -7.00615                     -30.46779
                      -4.85547                      -7.05261                     -33.79522
                      -5.94585                      -6.98808                     -37.13375
                      -7.28310                      -6.81866                     -40.46554
                      -8.88584                      -6.55274                     -43.77316
                     -10.74983                      -6.20287                     -47.04339
                     -12.83823                      -5.78846                     -50.27244
                     -15.07039                      -5.33815                     -53.47190
                     -16.20920                      -5.10824                     -55.06682
                       0.16083                      -0.77581                      -1.15666
        </DataArray>
        <DataArray type="Float32" Name="RotationalAcceleration" NumberOfComponents="3" format="ascii">
                      -0.00102                       0.01115                       0.01644
                      -0.02125                       0.01192                       0.01762
                      -0.04887                       0.01215                       0.01955
                      -0.08109                       0.01199                       0.02196
                      -0.11586                       0.01011                       0.02521
                      -0.15177                       0.00479                       0.02986
                      -0.18781                      -0.00585                       0.03654
                      -0.22322                      -0.02402                       0.04605
                      -0.25734                      -0.05167                       0.05906
                      -0.28954                      -0.09014                       0.07606
                      -0.31920                      -0.13980                       0.09714
                      -0.34568                      -0.19969                       0.12187
                      -0.36845                      -0.26710                       0.14921
                      -0.38701                      -0.33728                       0.17728
                      -0.40077                      -0.40306                       0.20334
                      -0.40914                      -0.45445                       0.22352
                      -0.41166                      -0.47824                       0.23276
                      -0.41140                      -0.48137                       0.23393
                       0.00683                       0.01050                       0.01611
        </DataArray>
        <DataArray type="Float32" Name="OrientationX" NumberOfComponents="3" format="ascii">
                       0.97973                      -0.20028                       0.00405
                       0.97959                      -0.20100                       0.00217
                       0.97936                      -0.20213                      -0.00080
                       0.98147                      -0.19138                      -0.00937
                       0.98604                      -0.16462                      -0.02508
                       0.98795                      -0.15035                      -0.03687
                       0.98942                      -0.13625                      -0.04985
                       0.99047                      -0.12166                      -0.06456
                       0.99091                      -0.10740                      -0.08094
                       0.99062                      -0.09450                      -0.09870
                       0.98959                      -0.08243                      -0.11795
                       0.98782                      -0.07172                      -0.13812
                       0.98538                      -0.06435                      -0.15772
                       0.98259                      -0.05832                      -0.17639
                       0.97979                      -0.05160                      -0.19325
                       0.97751                      -0.04359                      -0.20636
                       0.97658                      -0.03717                      -0.21191
                       0.97659                      -0.03469                      -0.21229
                       0.97978                      -0.20004                       0.00468
        </DataArray>
        <DataArray type="Float32" Name="OrientationY" NumberOfComponents="3" format="ascii">
                       0.18818                       0.91321                      -0.36145
                       0.18818                       0.91323                      -0.36138
                       0.18819                       0.91326                      -0.36130
                       0.17515                       0.91592                      -0.36114
                       0.14467                       0.92147                      -0.36050
                       0.12723                       0.92429                      -0.35985
                       0.10955                       0.92690                      -0.35897
                       0.09084                       0.92937                      -0.35780
                       0.07187                       0.93160                      -0.35631
                       0.05372                       0.93348                      -0.35458
                       0.03587                       0.93510                      -0.35256
                       0.01901                       0.93644                      -0.35030
                       0.00548                       0.93740                      -0.34821
                      -0.00645                       0.93816                      -0.34613
                      -0.01837                       0.93885                      -0.34384
                      -0.03018                       0.93944                      -0.34139
                      -0.03794                       0.93977                      -0.33971
                      -0.04034                       0.93985                      -0.33919
                       0.18818                       0.91320                      -0.36147
        </DataArray>
        <DataArray type="Float32" Name="OrientationZ" NumberOfComponents="3" format="ascii">
                       0.06869                       0.35488                       0.93238
                       0.07066                       0.35441                       0.93241
                       0.07376                       0.35369                       0.93245
                       0.07769                       0.35280                       0.93247
                       0.08245                       0.35184                       0.93242
                       0.08818                       0.35082                       0.93228
                       0.09511                       0.34972                       0.93202
                       0.10354                       0.34852                       0.93156
                       0.11368                       0.34726                       0.93085
                       0.12565                       0.34596                       0.92980
                       0.13936                       0.34465                       0.92833
                       0.15446                       0.34341                       0.92640
                       0.17026                       0.34226                       0.92405
                       0.18567                       0.34124                       0.92146
                       0.19917                       0.34044                       0.91893
                       0.20874                       0.33994                       0.91699
                       0.21177                       0.33979                       0.91635
                       0.21129                       0.33981                       0.91645
                       0.06804                       0.35504                       0.93237
        </DataArray>
      </PointData>
      <Lines>
        <DataArray type="Int32" Name="connectivity" format="ascii">
      0      1
      1      2
      2      3
      3      4
      4      5
      5      6
      6      7
      7      8
      8      9
      9     10
     10     11
     11     12
     12     13
     13     14
     14     15
     15     16
     16     17
     18      0
        </DataArray>
        <DataArray type="Int32" Name="offsets" format="ascii">
      2
      4
      6
      8
     10
     12
     14
     16
     18
     20
     22
     24
     26
     28
     30
     32
     34
     36
        </DataArray>
      </Lines>
    </Piece>
  </PolyData>
</VTKFile>
