<?xml version="1.0"?>
<VTKFile type="PolyData" version="0.1" byte_order="LittleEndian">
  <PolyData>
    <Piece NumberOfPoints="     19" NumberOfVerts="  0" NumberOfLines="     18"
           NumberOfStrips="  0" NumberOfPolys="      0">
      <Points>
        <DataArray type="Float32" NumberOfComponents="3" format="ascii">
                       2.62360                       0.04445                      86.89339
                       2.01365                       0.12859                      83.32852
                       1.41124                       0.21416                      79.76242
                       0.81929                       0.30173                      76.19461
                       0.24027                       0.39161                      72.62474
                      -0.32321                       0.48396                      69.05245
                      -0.86803                       0.57898                      65.47734
                      -1.39036                       0.67692                      61.89896
                      -1.88564                       0.77796                      58.31683
                      -2.34883                       0.88220                      54.73051
                      -2.77481                       0.98954                      51.13969
                      -3.15904                       1.09970                      47.54425
                      -3.49839                       1.21223                      43.94437
                      -3.79226                       1.32656                      40.34053
                      -4.04382                       1.44208                      36.73350
                      -4.26157                       1.55819                      33.12424
                      -4.46104                       1.67448                      29.51389
                      -4.55865                       1.73263                      27.70859
                       2.93005                       0.00265                      88.67557
        </DataArray>
      </Points>
      <PointData>
        <DataArray type="Float32" Name="TranslationalVelocity" NumberOfComponents="3" format="ascii">
                      -0.07778                       3.03397                       0.08508
                      -0.06461                       6.40782                       0.16246
                      -0.05063                       9.79271                       0.24133
                      -0.03495                      13.19154                       0.32215
                      -0.01651                      16.60603                       0.40513
                       0.00466                      20.03680                       0.49049
                       0.02629                      23.48347                       0.57880
                       0.04342                      26.94489                       0.67102
                       0.04830                      30.41936                       0.76832
                       0.03068                      33.90494                       0.87184
                      -0.02144                      37.39963                       0.98238
                      -0.12066                      40.90160                       1.10014
                      -0.27855                      44.40921                       1.22449
                      -0.50356                      47.92106                       1.35412
                      -0.79849                      51.43594                       1.48723
                      -1.15745                      54.95294                       1.62216
                      -1.56242                      58.47113                       1.75815
                      -1.77328                      60.23041                       1.82639
                      -0.08423                       1.34938                       0.04668
        </DataArray>
        <DataArray type="Float32" Name="RotationalVelocity" NumberOfComponents="3" format="ascii">
                       0.92485                      -0.00084                      -0.11856
                       0.92734                      -0.00095                      -0.11899
                       0.93073                      -0.00117                      -0.11958
                       0.93474                      -0.00173                      -0.12029
                       0.93906                      -0.00252                      -0.12105
                       0.94340                      -0.00304                      -0.12181
                       0.94751                      -0.00256                      -0.12251
                       0.95125                      -0.00029                      -0.12310
                       0.95451                       0.00452                      -0.12355
                       0.95730                       0.01247                      -0.12384
                       0.95966                       0.02390                      -0.12398
                       0.96169                       0.03874                      -0.12399
                       0.96345                       0.05642                      -0.12388
                       0.96498                       0.07575                      -0.12369
                       0.96626                       0.09480                      -0.12347
                       0.96720                       0.11078                      -0.12326
                       0.96755                       0.11996                      -0.12310
                       0.96754                       0.12231                      -0.12305
                       0.92387                      -0.00075                      -0.11839
        </DataArray>
        <DataArray type="Float32" Name="TranslationalAcceleration" NumberOfComponents="3" format="ascii">
                      -0.93166                       0.00517                       2.95435
                      -0.55330                      -0.16415                       6.08043
                      -0.14929                      -0.32405                       9.22307
                       0.28978                      -0.47183                      12.38639
                       0.77191                      -0.60596                      15.57278
                       1.30885                      -0.72515                      18.78211
                       1.91954                      -0.82761                      22.01162
                       2.63195                      -0.91101                      25.25631
                       3.48333                      -0.97282                      28.50991
                       4.51865                      -1.01064                      31.76638
                       5.78720                      -1.02249                      35.02159
                       7.33736                      -1.00711                      38.27485
                       9.20935                      -0.96399                      41.52959
                      11.42587                      -0.89343                      44.79253
                      13.98072                      -0.79735                      48.07119
                      16.82523                      -0.68047                      51.36948
                      19.85277                      -0.55106                      54.68244
                      21.39482                      -0.48449                      56.34124
                      -1.11588                       0.09173                       1.39487
        </DataArray>
        <DataArray type="Float32" Name="RotationalAcceleration" NumberOfComponents="3" format="ascii">
                      -0.02804                       0.00861                       0.00104
                      -0.02561                       0.00368                       0.00050
                      -0.02203                      -0.00429                      -0.00030
                      -0.01781                      -0.01409                      -0.00126
                      -0.01321                      -0.02626                      -0.00234
                      -0.00815                      -0.04250                      -0.00359
                      -0.00241                      -0.06522                      -0.00511
                       0.00409                      -0.09712                      -0.00698
                       0.01126                      -0.14064                      -0.00923
                       0.01882                      -0.19751                      -0.01186
                       0.02636                      -0.26819                      -0.01481
                       0.03333                      -0.35139                      -0.01796
                       0.03934                      -0.44358                      -0.02115
                       0.04407                      -0.53847                      -0.02418
                       0.04728                      -0.62653                      -0.02679
                       0.04889                      -0.69450                      -0.02866
                       0.04930                      -0.72490                      -0.02944
                       0.04929                      -0.72823                      -0.02951
                      -0.02888                       0.01005                       0.00121
        </DataArray>
        <DataArray type="Float32" Name="OrientationX" NumberOfComponents="3" format="ascii">
                       0.95974                       0.23116                      -0.15960
                       0.96002                       0.23112                      -0.15796
                       0.96045                       0.23106                      -0.15537
                       0.96390                       0.21801                      -0.15288
                       0.97062                       0.18758                      -0.15068
                       0.97442                       0.17007                      -0.14689
                       0.97807                       0.15226                      -0.14210
                       0.98167                       0.13336                      -0.13616
                       0.98508                       0.11412                      -0.12883
                       0.98816                       0.09561                      -0.12000
                       0.99095                       0.07730                      -0.10976
                       0.99335                       0.05989                      -0.09836
                       0.99522                       0.04578                      -0.08626
                       0.99668                       0.03323                      -0.07439
                       0.99773                       0.02070                      -0.06402
                       0.99835                       0.00837                      -0.05682
                       0.99850                       0.00033                      -0.05477
                       0.99847                      -0.00211                      -0.05531
                       0.95964                       0.23117                      -0.16015
        </DataArray>
        <DataArray type="Float32" Name="OrientationY" NumberOfComponents="3" format="ascii">
                       0.22407                      -0.97264                      -0.06134
                       0.22408                      -0.97264                      -0.06125
                       0.22410                      -0.97265                      -0.06114
                       0.21132                      -0.97564                      -0.05895
                       0.18136                      -0.98193                      -0.05409
                       0.16420                      -0.98509                      -0.05131
                       0.14675                      -0.98798                      -0.04857
                       0.12823                      -0.99069                      -0.04579
                       0.10941                      -0.99306                      -0.04311
                       0.09133                      -0.99499                      -0.04069
                       0.07348                      -0.99655                      -0.03849
                       0.05653                      -0.99773                      -0.03660
                       0.04287                      -0.99846                      -0.03523
                       0.03075                      -0.99894                      -0.03417
                       0.01860                      -0.99927                      -0.03327
                       0.00652                      -0.99945                      -0.03251
                      -0.00143                      -0.99948                      -0.03206
                      -0.00388                      -0.99948                      -0.03192
                       0.22406                      -0.97264                      -0.06137
        </DataArray>
        <DataArray type="Float32" Name="OrientationZ" NumberOfComponents="3" format="ascii">
                      -0.16942                       0.02311                      -0.98527
                      -0.16779                       0.02341                      -0.98554
                      -0.16525                       0.02390                      -0.98596
                      -0.16201                       0.02451                      -0.98648
                      -0.15810                       0.02518                      -0.98710
                      -0.15342                       0.02588                      -0.98782
                      -0.14779                       0.02665                      -0.98866
                      -0.14099                       0.02749                      -0.98963
                      -0.13286                       0.02837                      -0.99073
                      -0.12329                       0.02925                      -0.99194
                      -0.11236                       0.03008                      -0.99321
                      -0.10033                       0.03080                      -0.99448
                      -0.08774                       0.03137                      -0.99565
                      -0.07544                       0.03177                      -0.99664
                      -0.06467                       0.03200                      -0.99739
                      -0.05706                       0.03208                      -0.99786
                      -0.05475                       0.03209                      -0.99798
                      -0.05522                       0.03209                      -0.99796
                      -0.16996                       0.02301                      -0.98518
        </DataArray>
      </PointData>
      <Lines>
        <DataArray type="Int32" Name="connectivity" format="ascii">
      0      1
      1      2
      2      3
      3      4
      4      5
      5      6
      6      7
      7      8
      8      9
      9     10
     10     11
     11     12
     12     13
     13     14
     14     15
     15     16
     16     17
     18      0
        </DataArray>
        <DataArray type="Int32" Name="offsets" format="ascii">
      2
      4
      6
      8
     10
     12
     14
     16
     18
     20
     22
     24
     26
     28
     30
     32
     34
     36
        </DataArray>
      </Lines>
    </Piece>
  </PolyData>
</VTKFile>
