<?xml version="1.0"?>
<VTKFile type="PolyData" version="0.1" byte_order="LittleEndian">
  <PolyData>
    <Piece NumberOfPoints="     17" NumberOfVerts="  0" NumberOfLines="      0"
           NumberOfStrips="  0" NumberOfPolys="      0">
      <Points>
        <DataArray type="Float32" NumberOfComponents="3" format="ascii">
                       2.44074                      -3.10644                      88.96137
                       2.13735                      -6.47619                      87.68071
                       1.84175                      -9.84494                      86.39560
                       1.55704                     -13.21236                      85.10459
                       1.28598                     -16.57827                      83.80672
                       1.03150                     -19.94257                      82.50133
                       0.79713                     -23.30514                      81.18779
                       0.58713                     -26.66586                      79.86543
                       0.40649                     -30.02455                      78.53364
                       0.26076                     -33.38098                      77.19195
                       0.15551                     -36.73485                      75.84014
                       0.09566                     -40.08579                      74.47834
                       0.08455                     -43.43341                      73.10710
                       0.12278                     -46.77738                      71.72744
                       0.20676                     -50.11769                      70.34082
                       0.32716                     -53.45489                      68.94926
                       0.46699                     -56.79037                      67.55525
        </DataArray>
      </Points>
      <PointData>
        <DataArray type="Float32" Name="Force" NumberOfComponents="3" format="ascii">
                     207.01837                     -47.14902                      74.86065
                     685.66738                    -139.74668                     209.83258
                    2272.01391                     225.92134                   -1099.04241
                    3759.25011                     399.00012                   -1848.08579
                    2287.25400                     215.05764                   -1027.02494
                    4964.70997                     415.27326                   -2028.63878
                    6021.29957                     452.49936                   -2212.21118
                    6704.69224                     467.69809                   -2210.78858
                    7226.72669                     498.10089                   -2169.27968
                    9178.44819                     652.01247                   -2516.38064
                   10639.08492                     814.12820                   -2678.49290
                   12257.12172                    1049.75349                   -2885.25129
                    7093.62662                     659.98383                   -1586.35186
                   14300.55940                    1434.34900                   -3027.84425
                   13985.92941                    1509.16571                   -2771.84498
                   20111.90252                    2249.53783                   -3671.72508
                    8211.20073                     878.78538                   -1321.73388
        </DataArray>
        <DataArray type="Float32" Name="Moment" NumberOfComponents="3" format="ascii">
                     -19.46402                     -12.55252                      23.91808
                     204.73278                    -228.78516                     347.08483
                    1249.19481                   -1305.14459                    1964.27107
                    1331.23560                   -1800.44333                    2496.35127
                      62.17544                    -373.57058                     115.11478
                   -1105.60343                     602.82710                   -2320.44803
                    -715.56988                     730.47575                   -1473.13561
                    -125.09899                     853.50054                     179.27667
                     145.19019                     677.92379                     997.29508
                     379.62042                     190.52798                    1832.06407
                    1038.60643                    -919.78279                    4163.58366
                    1890.22875                   -2775.23456                    7232.11681
                    -131.59709                     153.25948                    -464.23530
                   -2302.45633                    3518.86881                   -8922.83811
                   -2075.29789                    3235.15882                   -8420.53895
                    -439.65622                     270.88210                   -1372.76113
                    -118.16285                      56.25190                     143.15427
        </DataArray>
      </PointData>
    </Piece>
  </PolyData>
</VTKFile>
