<?xml version="1.0"?>
<VTKFile type="PolyData" version="0.1" byte_order="LittleEndian">
  <PolyData>
    <Piece NumberOfPoints="     19" NumberOfVerts="  0" NumberOfLines="     18"
           NumberOfStrips="  0" NumberOfPolys="      0">
      <Points>
        <DataArray type="Float32" NumberOfComponents="3" format="ascii">
                       3.05838                      -3.24988                      90.93323
                       3.01214                      -6.76600                      91.78303
                       2.97362                     -10.28347                      92.62755
                       2.94598                     -13.80272                      93.46510
                       2.93198                     -17.32395                      94.29455
                       2.93465                     -20.84728                      95.11517
                       2.95750                     -24.37274                      95.92624
                       3.00474                     -27.90029                      96.72707
                       3.08127                     -31.42978                      97.51698
                       3.19242                     -34.96088                      98.29540
                       3.34355                     -38.49310                      99.06192
                       3.53929                     -42.02570                      99.81643
                       3.78271                     -45.55784                     100.55920
                       4.07416                     -49.08865                     101.29099
                       4.40993                     -52.61754                     102.01326
                       4.78072                     -56.14443                     102.72841
                       5.16986                     -59.67013                     103.43992
                       5.36640                     -61.43285                     103.79528
                       3.08298                      -1.49210                      90.50727
        </DataArray>
      </Points>
      <PointData>
        <DataArray type="Float32" Name="TranslationalVelocity" NumberOfComponents="3" format="ascii">
                      -0.84386                      -0.68292                      -2.97544
                      -1.25965                      -1.46125                      -6.21851
                      -1.67382                      -2.23703                      -9.46858
                      -2.08545                      -3.00941                     -12.72761
                      -2.49355                      -3.77786                     -15.99680
                      -2.89696                      -4.54209                     -19.27680
                      -3.29438                      -5.30182                     -22.56793
                      -3.68442                      -6.05671                     -25.87021
                      -4.06556                      -6.80645                     -29.18340
                      -4.43624                      -7.55076                     -32.50701
                      -4.79500                      -8.28941                     -35.84022
                      -5.14065                      -9.02226                     -39.18191
                      -5.47255                      -9.74933                     -42.53066
                      -5.79088                     -10.47082                     -45.88488
                      -6.09704                     -11.18732                     -49.24291
                      -6.39406                     -11.90002                     -52.60315
                      -6.68710                     -12.61083                     -55.96429
                      -6.83341                     -12.96605                     -57.64495
                      -0.63569                      -0.29324                      -1.35536
        </DataArray>
        <DataArray type="Float32" Name="RotationalVelocity" NumberOfComponents="3" format="ascii">
                       0.92153                      -0.00930                      -0.11618
                       0.92291                      -0.00924                      -0.11584
                       0.92484                      -0.00912                      -0.11524
                       0.92713                      -0.00895                      -0.11439
                       0.92964                      -0.00870                      -0.11325
                       0.93225                      -0.00838                      -0.11177
                       0.93491                      -0.00798                      -0.10993
                       0.93756                      -0.00748                      -0.10771
                       0.94016                      -0.00687                      -0.10507
                       0.94267                      -0.00617                      -0.10204
                       0.94505                      -0.00539                      -0.09865
                       0.94726                      -0.00454                      -0.09503
                       0.94925                      -0.00368                      -0.09136
                       0.95096                      -0.00286                      -0.08789
                       0.95229                      -0.00218                      -0.08500
                       0.95314                      -0.00174                      -0.08315
                       0.95337                      -0.00170                      -0.08295
                       0.95331                      -0.00179                      -0.08335
                       0.92101                      -0.00931                      -0.11627
        </DataArray>
        <DataArray type="Float32" Name="TranslationalAcceleration" NumberOfComponents="3" format="ascii">
                      -1.11463                       2.98153                      -0.76029
                      -1.15147                       5.99276                      -1.59584
                      -1.17429                       9.02528                      -2.38960
                      -1.17972                      12.08457                      -3.13102
                      -1.16657                      15.17391                      -3.81356
                      -1.13776                      18.29507                      -4.43305
                      -1.10088                      21.44883                      -4.98651
                      -1.06871                      24.63516                      -5.47150
                      -1.05928                      27.85312                      -5.88575
                      -1.09498                      31.10063                      -6.22725
                      -1.20087                      34.37417                      -6.49441
                      -1.40228                      37.66855                      -6.68665
                      -1.72149                      40.97706                      -6.80499
                      -2.17368                      44.29216                      -6.85294
                      -2.76209                      47.60678                      -6.83794
                      -3.47247                      50.91619                      -6.77323
                      -4.26653                      54.22023                      -6.67953
                      -4.67797                      55.87125                      -6.62855
                      -1.09317                       1.48039                      -0.33371
        </DataArray>
        <DataArray type="Float32" Name="RotationalAcceleration" NumberOfComponents="3" format="ascii">
                       0.03726                      -0.00174                       0.00542
                       0.02748                      -0.00083                       0.00859
                       0.01412                       0.00037                       0.01273
                      -0.00139                       0.00179                       0.01765
                      -0.01825                       0.00318                       0.02237
                      -0.03599                       0.00425                       0.02570
                      -0.05432                       0.00466                       0.02631
                      -0.07313                       0.00407                       0.02274
                      -0.09231                       0.00214                       0.01364
                      -0.11172                      -0.00137                      -0.00199
                      -0.13107                      -0.00658                      -0.02458
                      -0.14994                      -0.01340                      -0.05382
                      -0.16781                      -0.02153                      -0.08837
                      -0.18393                      -0.03036                      -0.12571
                      -0.19731                      -0.03896                      -0.16194
                      -0.20668                      -0.04601                      -0.19151
                      -0.21054                      -0.04971                      -0.20701
                      -0.21088                      -0.05048                      -0.21019
                       0.04105                      -0.00213                       0.00404
        </DataArray>
        <DataArray type="Float32" Name="OrientationX" NumberOfComponents="3" format="ascii">
                       0.93775                      -0.09414                      -0.33431
                       0.93777                      -0.09223                      -0.33478
                       0.93781                      -0.08923                      -0.33549
                       0.94237                      -0.08255                      -0.32422
                       0.95230                      -0.07127                      -0.29672
                       0.95754                      -0.06199                      -0.28155
                       0.96250                      -0.05163                      -0.26631
                       0.96735                      -0.03984                      -0.25028
                       0.97182                      -0.02662                      -0.23421
                       0.97562                      -0.01215                      -0.21913
                       0.97886                       0.00359                      -0.20451
                       0.98139                       0.02015                      -0.19094
                       0.98288                       0.03642                      -0.18059
                       0.98380                       0.05189                      -0.17159
                       0.98458                       0.06563                      -0.16216
                       0.98545                       0.07592                      -0.15206
                       0.98625                       0.07971                      -0.14478
                       0.98662                       0.07958                      -0.14226
                       0.93774                      -0.09478                      -0.33416
        </DataArray>
        <DataArray type="Float32" Name="OrientationY" NumberOfComponents="3" format="ascii">
                       0.34705                       0.21628                       0.91257
                       0.34704                       0.21573                       0.91270
                       0.34703                       0.21498                       0.91288
                       0.33451                       0.21525                       0.91748
                       0.30515                       0.21669                       0.92732
                       0.28828                       0.21691                       0.93266
                       0.27111                       0.21697                       0.93778
                       0.25287                       0.21692                       0.94287
                       0.23433                       0.21668                       0.94770
                       0.21653                       0.21622                       0.95203
                       0.19895                       0.21555                       0.95601
                       0.18228                       0.21467                       0.95953
                       0.16887                       0.21368                       0.96220
                       0.15700                       0.21263                       0.96444
                       0.14509                       0.21152                       0.96655
                       0.13324                       0.21039                       0.96850
                       0.12541                       0.20967                       0.96970
                       0.12298                       0.20948                       0.97005
                       0.34705                       0.21650                       0.91251
        </DataArray>
        <DataArray type="Float32" Name="OrientationZ" NumberOfComponents="3" format="ascii">
                      -0.01361                      -0.97178                       0.23549
                      -0.01196                      -0.97209                       0.23431
                      -0.00934                      -0.97253                       0.23258
                      -0.00595                      -0.97306                       0.23046
                      -0.00179                      -0.97363                       0.22811
                       0.00326                      -0.97422                       0.22557
                       0.00936                      -0.97481                       0.22284
                       0.01673                      -0.97538                       0.21991
                       0.02552                      -0.97588                       0.21682
                       0.03582                      -0.97627                       0.21358
                       0.04752                      -0.97649                       0.21028
                       0.06032                      -0.97648                       0.20700
                       0.07363                      -0.97622                       0.20387
                       0.08653                      -0.97575                       0.20104
                       0.09774                      -0.97517                       0.19873
                       0.10552                      -0.97467                       0.19722
                       0.10765                      -0.97452                       0.19679
                       0.10700                      -0.97457                       0.19689
                      -0.01414                      -0.97167                       0.23592
        </DataArray>
      </PointData>
      <Lines>
        <DataArray type="Int32" Name="connectivity" format="ascii">
      0      1
      1      2
      2      3
      3      4
      4      5
      5      6
      6      7
      7      8
      8      9
      9     10
     10     11
     11     12
     12     13
     13     14
     14     15
     15     16
     16     17
     18      0
        </DataArray>
        <DataArray type="Int32" Name="offsets" format="ascii">
      2
      4
      6
      8
     10
     12
     14
     16
     18
     20
     22
     24
     26
     28
     30
     32
     34
     36
        </DataArray>
      </Lines>
    </Piece>
  </PolyData>
</VTKFile>
