<?xml version="1.0"?>
<VTKFile type="PolyData" version="0.1" byte_order="LittleEndian">
  <PolyData>
    <Piece NumberOfPoints="     19" NumberOfVerts="  0" NumberOfLines="     18"
           NumberOfStrips="  0" NumberOfPolys="      0">
      <Points>
        <DataArray type="Float32" NumberOfComponents="3" format="ascii">
                       3.13433                       0.89455                      91.32950
                       3.20869                       1.73487                      92.40477
                       3.34353                       3.34066                      94.61504
                       3.47531                       4.91171                      96.85306
                       3.64410                       6.85566                      99.66650
                       3.90282                       9.30396                     102.94777
                       4.19520                      11.85693                     106.14377
                       4.50922                      14.41368                     109.33465
                       4.85293                      16.97521                     112.51857
                       5.23292                      19.53943                     115.69611
                       5.65126                      22.10284                     118.86934
                       6.12104                      24.66608                     122.03538
                       6.64896                      27.22865                     125.19270
                       7.23855                      29.79009                     128.33992
                       7.89015                      32.34996                     131.47610
                       8.47302                      34.48207                     134.08192
                       8.95855                      36.19333                     136.15758
                       9.44454                      37.94766                     138.19832
                       9.69032                      38.79211                     139.24436
        </DataArray>
      </Points>
      <PointData>
        <DataArray type="Float32" Name="Force" NumberOfComponents="3" format="ascii">
                      -0.03828                       0.39247                      -0.30559
                      79.54648                      16.74080                     -18.70220
                      93.69929                      42.87585                     -40.38145
                      79.76763                      57.06283                     -50.72422
                     805.06563                    -225.00294                     114.52009
                    1094.10301                    -303.14054                     147.61420
                    1247.74602                    -282.45983                     110.30116
                    1579.80585                    -305.57814                      85.81199
                    1720.25145                    -286.10683                      39.36533
                    1965.17936                    -292.43531                      -6.54739
                    2382.92058                    -320.77670                     -71.00673
                    2686.30739                    -336.88468                    -147.19247
                    3087.85779                    -382.08793                    -233.56905
                    3323.11782                    -398.46039                    -328.24629
                    3509.21722                    -405.51531                    -424.08441
                    3582.34321                    -390.75989                    -494.56533
                    3439.55545                    -347.46594                    -516.58043
                    2485.73843                    -236.11514                    -390.72898
                    1321.85661                     -53.00566                    -265.40273
        </DataArray>
        <DataArray type="Float32" Name="Moment" NumberOfComponents="3" format="ascii">
                       0.00000                       0.00000                       0.00000
                       0.00000                       0.00000                       0.00000
                       0.00000                       0.00000                       0.00000
                       0.00000                       0.00000                       0.00000
                     -15.87452                    -161.08108                    -204.88710
                     -27.19953                    -257.62636                    -327.46110
                     -40.64402                    -356.19052                    -452.36245
                     -61.26286                    -492.01410                    -624.21722
                     -89.53729                    -652.02743                    -826.17981
                    -112.56146                    -735.58291                    -930.60568
                    -132.76042                    -770.77980                    -973.27876
                    -159.30942                    -819.30468                   -1032.27351
                    -162.59832                    -743.09889                    -933.99089
                    -181.72941                    -745.56261                    -934.75870
                    -194.18591                    -728.03783                    -910.69145
                    -195.83446                    -695.64174                    -868.87885
                    -178.40812                    -618.44319                    -771.91597
                     -90.64151                    -311.34180                    -388.50090
                     -79.99048                    -275.21174                    -343.43341
        </DataArray>
        <DataArray type="Float32" Name="TranslationalVelocity" NumberOfComponents="3" format="ascii">
                      -0.47132                      -1.04653                       0.82416
                      -0.38816                      -2.04719                       1.60042
                      -0.23031                      -4.10375                       3.08473
                      -0.07355                      -6.19123                       4.54031
                       0.12680                      -8.82621                       6.34733
                       0.39490                     -11.92331                       8.63384
                       0.69488                     -14.96421                      11.03172
                       1.01716                     -18.02254                      13.44693
                       1.36345                     -21.09716                      15.87980
                       1.73342                     -24.18849                      18.32718
                       2.12289                     -27.29583                      20.78342
                       2.53118                     -30.41853                      23.24881
                       2.95367                     -33.55439                      25.72152
                       3.38459                     -36.70067                      28.20010
                       3.81743                     -39.85432                      30.68335
                       4.17509                     -42.48561                      32.75585
                       4.45741                     -44.58671                      34.42190
                       4.73843                     -46.65402                      36.13213
                       4.87337                     -47.71316                      36.95551
        </DataArray>
        <DataArray type="Float32" Name="RotationalVelocity" NumberOfComponents="3" format="ascii">
                       0.92176                      -0.01336                      -0.11543
                       0.92261                      -0.01308                      -0.11570
                       0.92471                      -0.01231                      -0.11645
                       0.92732                      -0.01124                      -0.11747
                       0.93130                      -0.00940                      -0.11920
                       0.93675                      -0.00643                      -0.12190
                       0.94246                      -0.00278                      -0.12517
                       0.94812                       0.00133                      -0.12879
                       0.95353                       0.00561                      -0.13252
                       0.95855                       0.00978                      -0.13615
                       0.96306                       0.01347                      -0.13936
                       0.96708                       0.01644                      -0.14197
                       0.97060                       0.01847                      -0.14380
                       0.97363                       0.01937                      -0.14472
                       0.97609                       0.01908                      -0.14466
                       0.97761                       0.01790                      -0.14384
                       0.97839                       0.01640                      -0.14272
                       0.97884                       0.01454                      -0.14129
                       0.97893                       0.01349                      -0.14047
        </DataArray>
        <DataArray type="Float32" Name="TranslationalAcceleration" NumberOfComponents="3" format="ascii">
                      -1.09305                      -0.66675                      -1.29788
                      -1.29449                      -1.40013                      -2.20887
                      -1.70272                      -2.81129                      -4.08097
                      -2.10414                      -4.22127                      -5.97442
                      -2.58578                      -6.01905                      -8.35211
                      -3.10493                      -8.36113                     -11.11437
                      -3.54540                     -10.89618                     -13.78396
                      -3.91375                     -13.54022                     -16.43486
                      -4.21830                     -16.29067                     -19.06775
                      -4.48294                     -19.13795                     -21.68546
                      -4.74284                     -22.06065                     -24.29185
                      -5.04108                     -25.05700                     -26.88243
                      -5.43004                     -28.11358                     -29.45098
                      -5.95971                     -31.21633                     -31.98814
                      -6.66758                     -34.35057                     -34.48381
                      -7.39964                     -36.97640                     -36.52821
                      -8.07573                     -39.08663                     -38.13390
                      -8.80698                     -41.23162                     -39.68249
                      -9.18806                     -42.27764                     -40.48657
        </DataArray>
        <DataArray type="Float32" Name="OrientationX" NumberOfComponents="3" format="ascii">
                       0.98650                      -0.15485                       0.05334
                       0.98647                      -0.15512                       0.05300
                       0.98641                      -0.15587                       0.05205
                       0.98631                      -0.15689                       0.05074
                       0.98615                      -0.15860                       0.04857
                       0.99031                      -0.13654                       0.02553
                       0.99252                      -0.12187                       0.00721
                       0.99386                      -0.11017                      -0.01024
                       0.99470                      -0.09850                      -0.02962
                       0.99487                      -0.08746                      -0.05081
                       0.99422                      -0.07870                      -0.07297
                       0.99279                      -0.07121                      -0.09644
                       0.99061                      -0.06604                      -0.11972
                       0.98798                      -0.06458                      -0.14041
                       0.98514                      -0.06254                      -0.15996
                       0.98294                      -0.05912                      -0.17414
                       0.98162                      -0.05504                      -0.18275
                       0.98099                      -0.05244                      -0.18685
                       0.98104                      -0.05225                      -0.18662
        </DataArray>
        <DataArray type="Float32" Name="OrientationY" NumberOfComponents="3" format="ascii">
                       0.15450                       0.77178                      -0.61684
                       0.15449                       0.77164                      -0.61701
                       0.15446                       0.77131                      -0.61744
                       0.15442                       0.77089                      -0.61796
                       0.15436                       0.77027                      -0.61876
                       0.12274                       0.77412                      -0.62103
                       0.09983                       0.77619                      -0.62255
                       0.07977                       0.77761                      -0.62366
                       0.05854                       0.77894                      -0.62436
                       0.03669                       0.78014                      -0.62453
                       0.01602                       0.78108                      -0.62423
                      -0.00447                       0.78190                      -0.62338
                      -0.02302                       0.78255                      -0.62216
                      -0.03707                       0.78295                      -0.62098
                      -0.05085                       0.78341                      -0.61942
                      -0.06230                       0.78388                      -0.61778
                      -0.07078                       0.78427                      -0.61637
                      -0.07531                       0.78448                      -0.61556
                      -0.07531                       0.78448                      -0.61556
        </DataArray>
        <DataArray type="Float32" Name="OrientationZ" NumberOfComponents="3" format="ascii">
                       0.05436                       0.61675                       0.78528
                       0.05481                       0.61685                       0.78517
                       0.05609                       0.61708                       0.78490
                       0.05784                       0.61734                       0.78457
                       0.06072                       0.61769                       0.78408
                       0.06503                       0.61814                       0.78337
                       0.07027                       0.61861                       0.78255
                       0.07667                       0.61902                       0.78163
                       0.08457                       0.61931                       0.78058
                       0.09426                       0.61946                       0.77935
                       0.10612                       0.61946                       0.77783
                       0.11980                       0.61932                       0.77595
                       0.13477                       0.61907                       0.77369
                       0.15004                       0.61873                       0.77114
                       0.16405                       0.61835                       0.76859
                       0.17303                       0.61809                       0.76683
                       0.17725                       0.61797                       0.76596
                       0.17885                       0.61793                       0.76562
                       0.17856                       0.61795                       0.76567
        </DataArray>
      </PointData>
      <Lines>
        <DataArray type="Int32" Name="connectivity" format="ascii">
      0      1
      1      2
      2      3
      3      4
      4      5
      5      6
      6      7
      7      8
      8      9
      9     10
     10     11
     11     12
     12     13
     13     14
     14     15
     15     16
     16     17
     17     18
        </DataArray>
        <DataArray type="Int32" Name="offsets" format="ascii">
      2
      4
      6
      8
     10
     12
     14
     16
     18
     20
     22
     24
     26
     28
     30
     32
     34
     36
        </DataArray>
      </Lines>
    </Piece>
  </PolyData>
</VTKFile>
