<?xml version="1.0"?>
<VTKFile type="PolyData" version="0.1" byte_order="LittleEndian">
  <PolyData>
    <Piece NumberOfPoints="     19" NumberOfVerts="  0" NumberOfLines="     18"
           NumberOfStrips="  0" NumberOfPolys="      0">
      <Points>
        <DataArray type="Float32" NumberOfComponents="3" format="ascii">
                       3.28003                      -2.76730                      92.00398
                       3.38494                      -5.76436                      94.02735
                       3.49702                      -8.76328                      96.04756
                       3.61914                     -11.76466                      98.06352
                       3.75377                     -14.76885                     100.07450
                       3.90354                     -17.77602                     102.07995
                       4.07152                     -20.78626                     104.07931
                       4.26137                     -23.79966                     106.07195
                       4.47733                     -26.81616                     108.05720
                       4.72408                     -29.83557                     110.03442
                       5.00623                     -32.85748                     112.00304
                       5.32782                     -35.88130                     113.96266
                       5.69148                     -38.90624                     115.91316
                       6.09746                     -41.93150                     117.85484
                       6.54247                     -44.95637                     119.78862
                       7.01830                     -47.98047                     121.71631
                       7.51030                     -51.00403                     123.64086
                       7.75805                     -52.51575                     124.60279
                       3.22897                      -1.26915                      90.99166
        </DataArray>
      </Points>
      <PointData>
        <DataArray type="Float32" Name="TranslationalVelocity" NumberOfComponents="3" format="ascii">
                      -0.27701                      -1.76633                      -2.50501
                      -0.62488                      -3.64434                      -5.26872
                      -0.96889                      -5.51797                      -8.03096
                      -1.30771                      -7.38603                     -10.79162
                      -1.64037                      -9.24779                     -13.55064
                      -1.96658                     -11.10283                     -16.30791
                      -2.28690                     -12.95078                     -19.06329
                      -2.60281                     -14.79133                     -21.81660
                      -2.91676                     -16.62425                     -24.56749
                      -3.23203                     -18.44946                     -27.31539
                      -3.55248                     -20.26708                     -30.05955
                      -3.88225                     -22.07755                     -32.79902
                      -4.22523                     -23.88161                     -35.53282
                      -4.58454                     -25.68032                     -38.26012
                      -4.96185                     -27.47503                     -40.98057
                      -5.35655                     -29.26727                     -43.69477
                      -5.76490                     -31.05860                     -46.40474
                      -5.97179                     -31.95423                     -47.75902
                      -0.10229                      -0.82641                      -1.12282
        </DataArray>
        <DataArray type="Float32" Name="RotationalVelocity" NumberOfComponents="3" format="ascii">
                       0.92252                       0.00236                      -0.11822
                       0.92158                       0.00286                      -0.11744
                       0.92034                       0.00358                      -0.11632
                       0.91893                       0.00450                      -0.11489
                       0.91740                       0.00553                      -0.11329
                       0.91579                       0.00654                      -0.11172
                       0.91410                       0.00740                      -0.11036
                       0.91232                       0.00795                      -0.10946
                       0.91044                       0.00804                      -0.10923
                       0.90847                       0.00756                      -0.10984
                       0.90644                       0.00644                      -0.11140
                       0.90440                       0.00466                      -0.11394
                       0.90240                       0.00229                      -0.11734
                       0.90056                      -0.00049                      -0.12135
                       0.89898                      -0.00339                      -0.12556
                       0.89783                      -0.00598                      -0.12935
                       0.89728                      -0.00769                      -0.13184
                       0.89719                      -0.00823                      -0.13265
                       0.92289                       0.00217                      -0.11853
        </DataArray>
        <DataArray type="Float32" Name="TranslationalAcceleration" NumberOfComponents="3" format="ascii">
                      -1.74463                       2.24927                      -1.94313
                      -2.11666                       4.80603                      -3.71456
                      -2.46118                       7.34960                      -5.49276
                      -2.76696                       9.87652                      -7.28063
                      -3.02424                      12.38489                      -9.08024
                      -3.22498                      14.87418                     -10.89261
                      -3.36335                      17.34484                     -12.71794
                      -3.43597                      19.79812                     -14.55576
                      -3.44203                      22.23593                     -16.40492
                      -3.38339                      24.66061                     -18.26390
                      -3.26467                      27.07467                     -20.13105
                      -3.09323                      29.48050                     -22.00481
                      -2.87915                      31.88016                     -23.88377
                      -2.63504                      34.27510                     -25.76663
                      -2.37583                      36.66617                     -27.65194
                      -2.11849                      39.05377                     -29.53775
                      -1.88169                      41.43817                     -31.42126
                      -1.77085                      42.62960                     -32.36201
                      -1.55324                       0.96812                      -1.05873
        </DataArray>
        <DataArray type="Float32" Name="RotationalAcceleration" NumberOfComponents="3" format="ascii">
                       0.01445                      -0.07739                       0.00088
                       0.01795                      -0.07411                       0.00556
                       0.02310                      -0.06900                       0.01287
                       0.02948                      -0.06226                       0.02251
                       0.03650                      -0.05413                       0.03419
                       0.04377                      -0.04491                       0.04747
                       0.05103                      -0.03500                       0.06177
                       0.05800                      -0.02477                       0.07656
                       0.06445                      -0.01463                       0.09123
                       0.07020                      -0.00502                       0.10517
                       0.07514                       0.00366                       0.11775
                       0.07921                       0.01098                       0.12838
                       0.08236                       0.01655                       0.13646
                       0.08460                       0.02000                       0.14145
                       0.08589                       0.02099                       0.14285
                       0.08621                       0.01924                       0.14025
                       0.08552                       0.01452                       0.13329
                       0.08491                       0.01138                       0.12869
                       0.01317                      -0.07855                      -0.00077
        </DataArray>
        <DataArray type="Float32" Name="OrientationX" NumberOfComponents="3" format="ascii">
                       0.94317                      -0.16338                      -0.28936
                       0.94312                      -0.16195                      -0.29033
                       0.94304                      -0.15972                      -0.29183
                       0.94725                      -0.14973                      -0.28338
                       0.95651                      -0.12959                      -0.26133
                       0.96127                      -0.11594                      -0.25005
                       0.96571                      -0.10137                      -0.23901
                       0.97000                      -0.08530                      -0.22766
                       0.97387                      -0.06803                      -0.21669
                       0.97705                      -0.05011                      -0.20701
                       0.97968                      -0.03131                      -0.19812
                       0.98162                      -0.01225                      -0.19045
                       0.98260                       0.00534                      -0.18566
                       0.98308                       0.02173                      -0.18190
                       0.98348                       0.03684                      -0.17724
                       0.98404                       0.04931                      -0.17097
                       0.98468                       0.05528                      -0.16540
                       0.98502                       0.05615                      -0.16305
                       0.94319                      -0.16386                      -0.28904
        </DataArray>
        <DataArray type="Float32" Name="OrientationY" NumberOfComponents="3" format="ascii">
                       0.33110                       0.53602                       0.77657
                       0.33111                       0.53581                       0.77671
                       0.33112                       0.53552                       0.77690
                       0.31855                       0.53725                       0.78095
                       0.28907                       0.54123                       0.78963
                       0.27214                       0.54304                       0.79439
                       0.25491                       0.54462                       0.79900
                       0.23663                       0.54604                       0.80365
                       0.21804                       0.54718                       0.80812
                       0.20018                       0.54795                       0.81220
                       0.18256                       0.54841                       0.81604
                       0.16584                       0.54852                       0.81953
                       0.15238                       0.54834                       0.82226
                       0.14046                       0.54798                       0.82461
                       0.12852                       0.54747                       0.82690
                       0.11664                       0.54684                       0.82907
                       0.10881                       0.54638                       0.83044
                       0.10639                       0.54624                       0.83084
                       0.33110                       0.53610                       0.77651
        </DataArray>
        <DataArray type="Float32" Name="OrientationZ" NumberOfComponents="3" format="ascii">
                       0.02823                      -0.82825                       0.55965
                       0.02977                      -0.82866                       0.55896
                       0.03220                      -0.82928                       0.55791
                       0.03532                      -0.83002                       0.55661
                       0.03911                      -0.83083                       0.55515
                       0.04368                      -0.83167                       0.55355
                       0.04917                      -0.83253                       0.55179
                       0.05576                      -0.83341                       0.54984
                       0.06360                      -0.83425                       0.54771
                       0.07274                      -0.83501                       0.54541
                       0.08310                      -0.83563                       0.54298
                       0.09443                      -0.83605                       0.54047
                       0.10619                      -0.83624                       0.53798
                       0.11760                      -0.83621                       0.53565
                       0.12750                      -0.83602                       0.53369
                       0.13438                      -0.83579                       0.53236
                       0.13628                      -0.83571                       0.53199
                       0.13571                      -0.83574                       0.53208
                       0.02772                      -0.82810                       0.55990
        </DataArray>
      </PointData>
      <Lines>
        <DataArray type="Int32" Name="connectivity" format="ascii">
      0      1
      1      2
      2      3
      3      4
      4      5
      5      6
      6      7
      7      8
      8      9
      9     10
     10     11
     11     12
     12     13
     13     14
     14     15
     15     16
     16     17
     18      0
        </DataArray>
        <DataArray type="Int32" Name="offsets" format="ascii">
      2
      4
      6
      8
     10
     12
     14
     16
     18
     20
     22
     24
     26
     28
     30
     32
     34
     36
        </DataArray>
      </Lines>
    </Piece>
  </PolyData>
</VTKFile>
