<?xml version="1.0"?>
<VTKFile type="PolyData" version="0.1" byte_order="LittleEndian">
  <PolyData>
    <Piece NumberOfPoints="     19" NumberOfVerts="  0" NumberOfLines="     18"
           NumberOfStrips="  0" NumberOfPolys="      0">
      <Points>
        <DataArray type="Float32" NumberOfComponents="3" format="ascii">
                       2.61856                       0.19606                      86.90130
                       2.00974                       0.44852                      83.34420
                       1.40853                       0.70297                      79.78595
                       0.81788                       0.96013                      76.22613
                       0.24032                       1.22040                      72.66438
                      -0.32152                       1.48396                      69.10037
                      -0.86460                       1.75101                      65.53372
                      -1.38531                       2.02174                      61.96402
                      -1.87940                       2.29626                      58.39083
                      -2.34227                       2.57456                      54.81377
                      -2.76933                       2.85645                      51.23254
                      -3.15656                       3.14158                      47.64705
                      -3.50134                       3.42939                      44.05744
                      -3.80343                       3.71926                      40.46413
                      -4.06617                       4.01050                      36.86782
                      -4.29781                       4.30247                      33.26938
                      -4.51315                       4.59468                      29.66993
                      -4.61905                       4.74081                      27.87009
                       2.92445                       0.07023                      88.67962
        </DataArray>
      </Points>
      <PointData>
        <DataArray type="Float32" Name="TranslationalVelocity" NumberOfComponents="3" format="ascii">
                      -0.12424                       3.02839                       0.22991
                      -0.09160                       6.38408                       0.46248
                      -0.05780                       9.75118                       0.69756
                      -0.02186                      13.13263                       0.93588
                       0.01737                      16.53021                       1.17779
                       0.06029                      19.94463                       1.42353
                       0.10582                      23.37566                       1.67350
                       0.15097                      26.82238                       1.92832
                       0.19080                      30.28336                       2.18869
                       0.21863                      33.75692                       2.45530
                       0.22649                      37.24125                       2.72857
                       0.20586                      40.73461                       3.00851
                       0.14877                      44.23538                       3.29457
                       0.04916                      47.74201                       3.58573
                      -0.09547                      51.25312                       3.88060
                      -0.28204                      54.76740                       4.17781
                      -0.49964                      58.28347                       4.47643
                      -0.61427                      60.04177                       4.62602
                      -0.14036                       1.35295                       0.11412
        </DataArray>
        <DataArray type="Float32" Name="RotationalVelocity" NumberOfComponents="3" format="ascii">
                       0.92179                      -0.00069                      -0.11835
                       0.92438                      -0.00083                      -0.11880
                       0.92792                      -0.00113                      -0.11944
                       0.93210                      -0.00175                      -0.12020
                       0.93660                      -0.00264                      -0.12104
                       0.94115                      -0.00348                      -0.12188
                       0.94555                      -0.00374                      -0.12266
                       0.94964                      -0.00290                      -0.12331
                       0.95335                      -0.00042                      -0.12377
                       0.95664                       0.00413                      -0.12402
                       0.95955                       0.01099                      -0.12404
                       0.96212                       0.02016                      -0.12383
                       0.96438                       0.03131                      -0.12344
                       0.96633                       0.04370                      -0.12290
                       0.96792                       0.05610                      -0.12230
                       0.96905                       0.06670                      -0.12174
                       0.96947                       0.07308                      -0.12137
                       0.96947                       0.07488                      -0.12124
                       0.92077                      -0.00061                      -0.11816
        </DataArray>
        <DataArray type="Float32" Name="TranslationalAcceleration" NumberOfComponents="3" format="ascii">
                      -0.91473                      -0.23707                       2.77995
                      -0.48431                      -0.77982                       5.84896
                      -0.06902                      -1.31977                       8.94224
                       0.32352                      -1.85728                      12.06660
                       0.68689                      -2.39261                      15.22639
                       1.02722                      -2.92370                      18.42203
                       1.37103                      -3.44573                      21.64930
                       1.76943                      -3.95161                      24.89972
                       2.29872                      -4.43293                      28.16166
                       3.05721                      -4.88159                      31.42242
                       4.15808                      -5.29139                      34.67088
                       5.71837                      -5.65935                      37.90011
                       7.84378                      -5.98612                      41.10914
                      10.60924                      -6.27551                      44.30294
                      14.03524                      -6.53436                      47.48981
                      18.05982                      -6.77227                      50.67637
                      22.50646                      -6.99970                      53.86152
                      24.80502                      -7.11208                      55.45294
                      -1.13311                       0.03494                       1.25057
        </DataArray>
        <DataArray type="Float32" Name="RotationalAcceleration" NumberOfComponents="3" format="ascii">
                      -0.09028                      -0.01204                       0.00925
                      -0.08883                      -0.00785                       0.00930
                      -0.08690                      -0.00204                       0.00938
                      -0.08504                       0.00680                       0.00968
                      -0.08289                       0.01644                       0.00999
                      -0.07975                       0.02195                       0.00984
                      -0.07496                       0.01679                       0.00865
                      -0.06807                      -0.00623                       0.00583
                      -0.05904                      -0.05390                       0.00091
                      -0.04831                      -0.13146                      -0.00642
                      -0.03674                      -0.24162                      -0.01620
                      -0.02549                      -0.38338                      -0.02815
                      -0.01553                      -0.55101                      -0.04171
                      -0.00761                      -0.73298                      -0.05592
                      -0.00237                      -0.91091                      -0.06939
                       0.00001                      -1.05851                      -0.08023
                       0.00037                      -1.14054                      -0.08608
                       0.00023                      -1.16016                      -0.08744
                      -0.09074                      -0.01418                       0.00918
        </DataArray>
        <DataArray type="Float32" Name="OrientationX" NumberOfComponents="3" format="ascii">
                       0.96111                       0.23259                      -0.14886
                       0.96140                       0.23247                      -0.14718
                       0.96185                       0.23228                      -0.14455
                       0.96523                       0.21911                      -0.14259
                       0.97178                       0.18856                      -0.14172
                       0.97549                       0.17086                      -0.13868
                       0.97903                       0.15283                      -0.13471
                       0.98250                       0.13365                      -0.12971
                       0.98577                       0.11408                      -0.12347
                       0.98870                       0.09518                      -0.11583
                       0.99133                       0.07642                      -0.10693
                       0.99357                       0.05852                      -0.09697
                       0.99530                       0.04389                      -0.08629
                       0.99664                       0.03084                      -0.07583
                       0.99760                       0.01789                      -0.06687
                       0.99813                       0.00528                      -0.06093
                       0.99821                      -0.00282                      -0.05967
                       0.99816                      -0.00522                      -0.06044
                       0.96102                       0.23263                      -0.14942
        </DataArray>
        <DataArray type="Float32" Name="OrientationY" NumberOfComponents="3" format="ascii">
                       0.21831                      -0.97008                      -0.10620
                       0.21831                      -0.97008                      -0.10623
                       0.21830                      -0.97008                      -0.10628
                       0.20546                      -0.97308                      -0.10443
                       0.17544                      -0.97939                      -0.10008
                       0.15822                      -0.98256                      -0.09766
                       0.14072                      -0.98545                      -0.09527
                       0.12216                      -0.98816                      -0.09282
                       0.10330                      -0.99053                      -0.09045
                       0.08519                      -0.99244                      -0.08830
                       0.06731                      -0.99399                      -0.08633
                       0.05035                      -0.99514                      -0.08463
                       0.03668                      -0.99584                      -0.08341
                       0.02456                      -0.99629                      -0.08246
                       0.01240                      -0.99659                      -0.08162
                       0.00033                      -0.99672                      -0.08087
                      -0.00762                      -0.99673                      -0.08041
                      -0.01007                      -0.99672                      -0.08026
                       0.21832                      -0.97008                      -0.10618
        </DataArray>
        <DataArray type="Float32" Name="OrientationZ" NumberOfComponents="3" format="ascii">
                      -0.16911                       0.06957                      -0.98314
                      -0.16747                       0.07000                      -0.98339
                      -0.16491                       0.07067                      -0.98377
                      -0.16163                       0.07150                      -0.98426
                      -0.15767                       0.07239                      -0.98484
                      -0.15294                       0.07332                      -0.98551
                      -0.14731                       0.07431                      -0.98630
                      -0.14058                       0.07535                      -0.98720
                      -0.13262                       0.07641                      -0.98822
                      -0.12336                       0.07744                      -0.98934
                      -0.11288                       0.07839                      -0.99051
                      -0.10146                       0.07920                      -0.99168
                      -0.08959                       0.07985                      -0.99277
                      -0.07809                       0.08032                      -0.99371
                      -0.06810                       0.08059                      -0.99442
                      -0.06116                       0.08070                      -0.99486
                      -0.05924                       0.08072                      -0.99497
                      -0.05982                       0.08072                      -0.99494
                      -0.16966                       0.06942                      -0.98306
        </DataArray>
      </PointData>
      <Lines>
        <DataArray type="Int32" Name="connectivity" format="ascii">
      0      1
      1      2
      2      3
      3      4
      4      5
      5      6
      6      7
      7      8
      8      9
      9     10
     10     11
     11     12
     12     13
     13     14
     14     15
     15     16
     16     17
     18      0
        </DataArray>
        <DataArray type="Int32" Name="offsets" format="ascii">
      2
      4
      6
      8
     10
     12
     14
     16
     18
     20
     22
     24
     26
     28
     30
     32
     34
     36
        </DataArray>
      </Lines>
    </Piece>
  </PolyData>
</VTKFile>
