<?xml version="1.0"?>
<VTKFile type="PolyData" version="0.1" byte_order="LittleEndian">
  <PolyData>
    <Piece NumberOfPoints="     19" NumberOfVerts="  0" NumberOfLines="     18"
           NumberOfStrips="  0" NumberOfPolys="      0">
      <Points>
        <DataArray type="Float32" NumberOfComponents="3" format="ascii">
                       3.01833                       1.48166                      90.19241
                       2.96550                       2.84603                      90.25232
                       2.85037                       5.57043                      90.46803
                       2.73419                       8.29332                      90.72715
                       2.59411                      11.69691                      91.07433
                       2.47506                      15.78947                      91.33606
                       2.38311                      19.88809                      91.45761
                       2.31227                      23.98740                      91.56806
                       2.27103                      28.08736                      91.66521
                       2.26703                      32.18766                      91.75090
                       2.30351                      36.28777                      91.82961
                       2.39518                      40.38705                      91.89823
                       2.55041                      44.48446                      91.95603
                       2.77417                      48.57873                      92.00246
                       3.06766                      52.66861                      92.03752
                       3.35773                      56.07332                      92.05914
                       3.61192                      58.79513                      92.06463
                       3.86579                      61.51759                      92.01432
                       3.99767                      62.87778                      92.03052
        </DataArray>
      </Points>
      <PointData>
        <DataArray type="Float32" Name="Force" NumberOfComponents="3" format="ascii">
                      -0.03210                       0.00956                      -0.25939
                      62.43731                       3.34238                     -22.70838
                      72.84059                       4.92811                     -53.78656
                      61.71880                       5.09709                     -70.89196
                     693.68634                      15.11271                     178.58449
                     976.78065                      17.29832                     247.50520
                    1099.54093                      17.02695                     197.90337
                    1369.50899                      15.27994                     174.31874
                    1434.26632                       7.14174                     112.57348
                    1594.71956                      -6.00258                      66.92270
                    1893.37642                     -28.66752                      11.53840
                    2058.18955                     -59.70708                     -50.39016
                    2322.52611                    -104.55184                    -101.75434
                    2383.47024                    -146.76990                    -160.12960
                    2433.60371                    -187.59633                    -219.36711
                    2476.55399                    -216.17249                    -260.39559
                    2536.31367                    -234.16826                    -279.11810
                    2080.52353                    -197.19162                    -207.63324
                    1324.74749                    -123.95969                    -188.68600
        </DataArray>
        <DataArray type="Float32" Name="Moment" NumberOfComponents="3" format="ascii">
                       0.00000                       0.00000                       0.00000
                       0.00000                       0.00000                       0.00000
                       0.00000                       0.00000                       0.00000
                       0.00000                       0.00000                       0.00000
                       5.97995                    -185.14235                      -7.56061
                       9.34346                    -334.65392                     -13.48479
                      11.25252                    -497.45904                     -19.71870
                      11.60228                    -720.63897                     -27.98379
                       7.99891                   -1006.39970                     -38.06509
                      -2.57062                   -1152.92695                     -42.15497
                     -18.84685                   -1262.54133                     -44.17874
                     -40.80660                   -1368.38067                     -45.36004
                     -55.44987                   -1195.58236                     -37.18200
                     -76.68676                   -1207.18939                     -34.98130
                     -94.09580                   -1183.30563                     -31.94688
                    -101.97687                   -1133.20160                     -29.12572
                     -96.41752                   -1014.01063                     -25.42282
                     -49.44462                    -508.40121                     -12.60989
                     -42.73297                    -440.05768                     -10.92279
        </DataArray>
        <DataArray type="Float32" Name="TranslationalVelocity" NumberOfComponents="3" format="ascii">
                       0.48310                      -0.07364                       1.42269
                       0.63945                      -0.12300                       2.68450
                       0.95302                      -0.30951                       5.20594
                       1.26879                      -0.53682                       7.73167
                       1.66793                      -0.84470                      10.89898
                       2.15455                      -1.07751                      14.72365
                       2.65206                      -1.18322                      18.57397
                       3.16279                      -1.28129                      22.44529
                       3.68714                      -1.37061                      26.33693
                       4.22416                      -1.45395                      30.24731
                       4.77069                      -1.53600                      34.17281
                       5.32457                      -1.61589                      38.11305
                       5.88143                      -1.69402                      42.06544
                       6.43640                      -1.77028                      46.02722
                       6.98474                      -1.84436                      49.99546
                       7.43423                      -1.90406                      53.30544
                       7.78771                      -1.94259                      55.95489
                       8.13496                      -1.92606                      58.60662
                       8.30791                      -1.95860                      59.93161
        </DataArray>
        <DataArray type="Float32" Name="RotationalVelocity" NumberOfComponents="3" format="ascii">
                       0.92377                       0.00807                      -0.11400
                       0.92452                       0.00811                      -0.11424
                       0.92636                       0.00820                      -0.11488
                       0.92862                       0.00833                      -0.11575
                       0.93208                       0.00853                      -0.11726
                       0.93678                       0.00881                      -0.11968
                       0.94169                       0.00912                      -0.12265
                       0.94658                       0.00945                      -0.12590
                       0.95126                       0.00977                      -0.12912
                       0.95563                       0.01006                      -0.13201
                       0.95962                       0.01030                      -0.13416
                       0.96324                       0.01049                      -0.13539
                       0.96651                       0.01063                      -0.13557
                       0.96940                       0.01070                      -0.13465
                       0.97182                       0.01072                      -0.13275
                       0.97337                       0.01069                      -0.13062
                       0.97419                       0.01064                      -0.12877
                       0.97466                       0.01058                      -0.12689
                       0.97476                       0.01055                      -0.12598
        </DataArray>
        <DataArray type="Float32" Name="TranslationalAcceleration" NumberOfComponents="3" format="ascii">
                       0.30138                      -1.09392                       0.08547
                       0.31634                      -2.27653                       0.00647
                       0.33347                      -4.64199                      -0.21557
                       0.32491                      -7.02567                      -0.42165
                       0.26610                     -10.04403                      -0.60675
                       0.12993                     -13.72178                      -0.54835
                      -0.09584                     -17.44589                      -0.17951
                      -0.45098                     -21.21633                       0.39492
                      -0.99361                     -25.02775                       1.17329
                      -1.81088                     -28.87182                       2.14687
                      -2.96658                     -32.73454                       3.28714
                      -4.61294                     -36.59944                       4.61092
                      -6.86872                     -40.43847                       6.11768
                      -9.82374                     -44.21803                       7.80665
                     -13.50652                     -47.90510                       9.66961
                     -17.07317                     -50.89820                      11.33651
                     -20.19704                     -53.24062                      12.73886
                     -23.43291                     -55.54403                      14.21948
                     -25.06643                     -56.70978                      14.92172
        </DataArray>
        <DataArray type="Float32" Name="OrientationX" NumberOfComponents="3" format="ascii">
                       0.99330                       0.03402                       0.11042
                       0.99332                       0.03362                       0.11040
                       0.99336                       0.03245                       0.11035
                       0.99342                       0.03084                       0.11029
                       0.99351                       0.02818                       0.11019
                       0.99661                       0.02546                       0.07830
                       0.99825                       0.02134                       0.05518
                       0.99927                       0.01578                       0.03491
                       0.99987                       0.00851                       0.01344
                       0.99996                      -0.00091                      -0.00870
                       0.99947                      -0.01299                      -0.02971
                       0.99835                      -0.02735                      -0.05058
                       0.99663                      -0.04347                      -0.06952
                       0.99465                      -0.06029                      -0.08393
                       0.99228                      -0.07594                      -0.09804
                       0.99022                      -0.08610                      -0.10973
                       0.98879                      -0.09097                      -0.11836
                       0.98804                      -0.09302                      -0.12297
                       0.98806                      -0.09287                      -0.12297
        </DataArray>
        <DataArray type="Float32" Name="OrientationY" NumberOfComponents="3" format="ascii">
                       0.10882                       0.04559                      -0.99301
                       0.10884                       0.04523                      -0.99303
                       0.10887                       0.04433                      -0.99307
                       0.10891                       0.04324                      -0.99311
                       0.10897                       0.04156                      -0.99318
                       0.07729                       0.03843                      -0.99627
                       0.05440                       0.03550                      -0.99789
                       0.03438                       0.03271                      -0.99887
                       0.01318                       0.03010                      -0.99946
                      -0.00867                       0.02780                      -0.99958
                      -0.02937                       0.02588                      -0.99923
                      -0.04991                       0.02441                      -0.99846
                      -0.06855                       0.02342                      -0.99737
                      -0.08269                       0.02275                      -0.99632
                      -0.09658                       0.02259                      -0.99507
                      -0.10814                       0.02290                      -0.99387
                      -0.11670                       0.02339                      -0.99289
                      -0.12127                       0.02370                      -0.99234
                      -0.12127                       0.02371                      -0.99234
        </DataArray>
        <DataArray type="Float32" Name="OrientationZ" NumberOfComponents="3" format="ascii">
                      -0.03882                       0.99838                       0.04158
                      -0.03838                       0.99841                       0.04127
                      -0.03711                       0.99849                       0.04051
                      -0.03540                       0.99859                       0.03959
                      -0.03257                       0.99874                       0.03822
                      -0.02837                       0.99894                       0.03633
                      -0.02325                       0.99914                       0.03427
                      -0.01691                       0.99934                       0.03214
                      -0.00891                       0.99951                       0.02998
                       0.00115                       0.99961                       0.02779
                       0.01374                       0.99958                       0.02548
                       0.02854                       0.99933                       0.02301
                       0.04499                       0.99878                       0.02036
                       0.06198                       0.99792                       0.01765
                       0.07778                       0.99686                       0.01508
                       0.08809                       0.99602                       0.01336
                       0.09309                       0.99558                       0.01251
                       0.09522                       0.99538                       0.01214
                       0.09508                       0.99540                       0.01216
        </DataArray>
      </PointData>
      <Lines>
        <DataArray type="Int32" Name="connectivity" format="ascii">
      0      1
      1      2
      2      3
      3      4
      4      5
      5      6
      6      7
      7      8
      8      9
      9     10
     10     11
     11     12
     12     13
     13     14
     14     15
     15     16
     16     17
     17     18
        </DataArray>
        <DataArray type="Int32" Name="offsets" format="ascii">
      2
      4
      6
      8
     10
     12
     14
     16
     18
     20
     22
     24
     26
     28
     30
     32
     34
     36
        </DataArray>
      </Lines>
    </Piece>
  </PolyData>
</VTKFile>
