<?xml version="1.0"?>
<VTKFile type="PolyData" version="0.1" byte_order="LittleEndian">
  <PolyData>
    <Piece NumberOfPoints="     17" NumberOfVerts="  0" NumberOfLines="      0"
           NumberOfStrips="  0" NumberOfPolys="      0">
      <Points>
        <DataArray type="Float32" NumberOfComponents="3" format="ascii">
                       2.81914                       3.25952                      89.64840
                       2.60159                       6.83305                      89.12884
                       2.39069                      10.40634                      88.60499
                       2.18891                      13.97938                      88.07584
                       1.99821                      17.55214                      87.54070
                       1.82058                      21.12459                      86.99911
                       1.65852                      24.69678                      86.45089
                       1.51524                      28.26873                      85.89600
                       1.39457                      31.84046                      85.33442
                       1.30087                      35.41193                      84.76610
                       1.23858                      38.98297                      84.19091
                       1.21169                      42.55331                      83.60868
                       1.22301                      46.12256                      83.01929
                       1.27321                      49.69032                      82.42287
                       1.35976                      53.25631                      81.81999
                       1.47557                      56.82062                      81.21189
                       1.60760                      60.38389                      80.60083
        </DataArray>
      </Points>
      <PointData>
        <DataArray type="Float32" Name="Force" NumberOfComponents="3" format="ascii">
                     150.84161                      -0.92949                     -70.48782
                     491.98863                      -6.61054                    -245.78691
                    2030.10148                     176.70141                     430.41958
                    3548.80001                     315.90317                     865.11140
                    2141.41140                     174.16710                     449.75518
                    4475.29198                     318.15711                     731.44155
                    5154.62018                     306.17922                     605.03581
                    5379.80456                     253.31713                     406.77802
                    5399.21446                     187.80575                     224.11482
                    6311.80420                     135.86616                      57.77567
                    6524.35214                      45.33604                    -140.52301
                    6630.20045                     -53.04463                    -310.95528
                    3375.66954                     -66.17642                    -225.84028
                    5784.35147                    -183.31481                    -513.61627
                    4532.61040                    -206.08055                    -518.24832
                    6108.66842                    -344.81530                    -797.73299
                    3491.21572                    -206.08201                    -447.97763
        </DataArray>
        <DataArray type="Float32" Name="Moment" NumberOfComponents="3" format="ascii">
                     -19.61091                       0.60717                     -16.16661
                      67.10280                      11.83382                    -364.31402
                     567.29318                      89.84103                   -2151.46622
                     660.00287                     411.81286                   -2960.80715
                       2.40310                     343.00449                    -271.33737
                    -509.53847                     700.51753                    2138.15657
                    -297.65481                      68.20034                    1513.32326
                    -109.22866                    -951.91032                     419.27253
                     -58.49716                   -1369.17193                    -125.37970
                     -78.04226                   -1722.39715                    -600.27383
                    -128.14716                   -2192.67521                   -1946.91706
                    -259.77989                   -2101.34982                   -3587.92924
                      -4.94963                    -704.09425                     428.89720
                     304.41221                    -891.15956                    4553.12907
                     303.12858                   -1066.09332                    3509.01153
                    -117.97544                   -2051.98716                     -34.10689
                    -133.86415                    -748.66917                    -705.41150
        </DataArray>
      </PointData>
    </Piece>
  </PolyData>
</VTKFile>
