<?xml version="1.0"?>
<VTKFile type="PolyData" version="0.1" byte_order="LittleEndian">
  <PolyData>
    <Piece NumberOfPoints="     17" NumberOfVerts="  0" NumberOfLines="      0"
           NumberOfStrips="  0" NumberOfPolys="      0">
      <Points>
        <DataArray type="Float32" NumberOfComponents="3" format="ascii">
                       3.09912                      -3.21203                      91.08097
                       3.07361                      -6.68550                      92.09175
                       3.05577                     -10.16043                      93.09766
                       3.04869                     -13.63727                      94.09712
                       3.05510                     -17.11624                      95.08907
                       3.07797                     -20.59748                      96.07281
                       3.12073                     -24.08102                      97.04765
                       3.18750                     -27.56686                      98.01290
                       3.28309                     -31.05483                      98.96787
                       3.41272                     -34.54466                      99.91196
                       3.58165                     -38.03584                     100.84474
                       3.79442                     -41.52767                     101.76602
                       4.05404                     -45.01930                     102.67601
                       4.36085                     -48.50987                     103.57539
                       4.71121                     -51.99876                     104.46552
                       5.09599                     -55.48585                     105.34870
                       5.49881                     -58.97184                     106.22833
        </DataArray>
      </Points>
      <PointData>
        <DataArray type="Float32" Name="Force" NumberOfComponents="3" format="ascii">
                     210.34585                      21.94749                      80.89432
                     666.96925                      63.91456                     230.92994
                    2076.32370                    -283.92282                    -961.89624
                    3411.73361                    -463.60921                   -1612.75032
                    2067.24277                    -246.38912                    -886.64116
                    4477.77144                    -460.62225                   -1743.81537
                    5431.43054                    -460.87335                   -1908.10958
                    6037.66894                    -400.94123                   -1916.33719
                    6508.19118                    -322.15683                   -1910.20248
                    8248.48428                    -265.30140                   -2252.73472
                    9491.66598                    -136.18791                   -2444.46889
                   10954.49054                      26.61652                   -2737.11601
                    6292.82875                      96.53846                   -1533.50800
                   12486.62308                     357.40554                   -2947.55064
                   11927.27982                     518.60728                   -2696.34965
                   16708.19335                     947.57721                   -3545.28888
                    6994.59204                     455.02298                   -1357.57784
        </DataArray>
        <DataArray type="Float32" Name="Moment" NumberOfComponents="3" format="ascii">
                     -17.22079                       2.67645                      26.23203
                     187.71576                      34.99230                     363.79359
                    1168.12862                     267.50826                    2091.51741
                    1234.18880                     343.99231                    2694.46314
                      72.70648                     -54.89667                     238.76548
                    -961.18006                    -556.55627                   -2071.83601
                    -653.67998                     137.58413                   -1580.06805
                    -186.85513                    1304.90893                    -507.59625
                      32.46994                    1652.71992                     167.91302
                     220.26847                    1903.55430                     964.07750
                     783.25466                    2451.00340                    3194.88923
                    1566.15746                    2607.48485                    6474.80892
                    -141.89494                     124.70056                    -510.93602
                   -1993.92194                   -1817.12011                   -8352.86390
                   -1736.67348                   -1663.67443                   -7697.11577
                    -477.68582                     276.18476                   -1440.28269
                     -69.22081                     433.98884                     250.58260
        </DataArray>
      </PointData>
    </Piece>
  </PolyData>
</VTKFile>
