<?xml version="1.0"?>
<VTKFile type="PolyData" version="0.1" byte_order="LittleEndian">
  <PolyData>
    <Piece NumberOfPoints="     19" NumberOfVerts="  0" NumberOfLines="     18"
           NumberOfStrips="  0" NumberOfPolys="      0">
      <Points>
        <DataArray type="Float32" NumberOfComponents="3" format="ascii">
                       2.80809                      -1.04486                      89.05596
                       2.62965                      -1.98978                      88.08478
                       2.24348                      -3.81013                      86.08009
                       1.84566                      -5.59605                      84.04416
                       1.34529                      -7.80558                      81.47798
                       0.81892                     -10.55620                      78.48254
                       0.34097                     -13.39500                      75.56425
                      -0.12219                     -16.22905                      72.63890
                      -0.56506                     -19.05975                      69.70705
                      -0.98564                     -21.88593                      66.76744
                      -1.38556                     -24.70585                      63.81884
                      -1.75926                     -27.52046                      60.86160
                      -2.10603                     -30.33034                      57.89649
                      -2.42698                     -33.13618                      54.92452
                      -2.72329                     -35.93868                      51.94673
                      -2.95603                     -38.27230                      49.46203
                      -3.13586                     -40.14417                      47.47829
                      -3.31296                     -42.05636                      45.53151
                      -3.40603                     -42.98177                      44.53023
        </DataArray>
      </Points>
      <PointData>
        <DataArray type="Float32" Name="Force" NumberOfComponents="3" format="ascii">
                       0.39012                      -3.35586                       3.21201
                      64.24745                     -24.81492                      12.51887
                      92.49644                     -54.95533                      36.94733
                      87.65869                     -68.14181                      50.86584
                     706.26115                     195.55357                    -316.26473
                     900.93706                     206.73885                    -357.45630
                    1032.83756                     193.16567                    -361.05177
                    1297.71906                     202.73148                    -405.91848
                    1341.85866                     168.36337                    -369.17851
                    1444.90494                     149.62361                    -354.23734
                    1645.73949                     131.67794                    -350.15040
                    1661.46042                      99.10562                    -304.00554
                    1722.24248                      79.03984                    -274.82521
                    1573.72153                      42.81576                    -207.78419
                    1336.79306                      10.51380                    -140.96712
                    1600.46603                      12.33707                    -161.60445
                    1805.19686                      13.03115                    -178.95827
                    1429.75365                       9.90228                    -141.91249
                    1416.08440                       6.67848                    -138.83025
        </DataArray>
        <DataArray type="Float32" Name="Moment" NumberOfComponents="3" format="ascii">
                       0.00000                       0.00000                       0.00000
                       0.00000                       0.00000                       0.00000
                       0.00000                       0.00000                       0.00000
                       0.00000                       0.00000                       0.00000
                      27.39472                     151.25277                     154.69902
                      55.39075                     313.73993                     321.06249
                      68.65843                     401.63991                     411.28742
                      91.35267                     555.88666                     569.68538
                     117.98057                     752.72578                     772.10536
                     123.20184                     831.44853                     853.71936
                     121.85091                     878.55728                     903.10183
                     118.44042                     920.56902                     947.40918
                      86.65743                     731.10509                     753.32079
                      76.67111                     703.45672                     725.64715
                      67.55860                     668.79520                     690.54016
                      65.78763                     681.01667                     703.52404
                      59.36402                     623.50942                     644.22165
                      30.63997                     320.42494                     331.05298
                      31.94583                     330.83040                     341.76582
        </DataArray>
        <DataArray type="Float32" Name="TranslationalVelocity" NumberOfComponents="3" format="ascii">
                       0.02087                       0.97007                      -0.95086
                      -0.08665                       1.89256                      -1.82865
                      -0.29100                       3.80011                      -3.52132
                      -0.48084                       5.74261                      -5.18779
                      -0.69310                       8.19970                      -7.26094
                      -0.91894                      11.07621                      -9.86049
                      -1.09877                      13.89230                     -12.56788
                      -1.20713                      16.73152                     -15.29892
                      -1.22446                      19.59406                     -18.05779
                      -1.12567                      22.48196                     -20.84623
                      -0.89859                      25.39512                     -23.66118
                      -0.50133                      28.33528                     -26.50819
                       0.09216                      31.30144                     -29.38727
                       0.89769                      34.29164                     -32.29645
                       1.91243                      37.30316                     -35.23113
                       2.89350                      39.82512                     -37.69151
                       3.74648                      41.84264                     -39.67266
                       4.61526                      43.82332                     -41.69733
                       5.05381                      44.84175                     -42.67947
        </DataArray>
        <DataArray type="Float32" Name="RotationalVelocity" NumberOfComponents="3" format="ascii">
                       0.92840                       0.00261                      -0.11277
                       0.92928                       0.00170                      -0.11204
                       0.93161                      -0.00095                      -0.10988
                       0.93465                      -0.00460                      -0.10687
                       0.93947                      -0.01069                      -0.10179
                       0.94626                      -0.01996                      -0.09396
                       0.95373                      -0.03153                      -0.08401
                       0.96184                      -0.04601                      -0.07133
                       0.97063                      -0.06420                      -0.05515
                       0.98001                      -0.08687                      -0.03469
                       0.98984                      -0.11498                      -0.00899
                       0.99972                      -0.14770                       0.02122
                       1.00920                      -0.18383                       0.05483
                       1.01778                      -0.22096                       0.08959
                       1.02487                      -0.25530                       0.12188
                       1.02900                      -0.27747                       0.14282
                       1.03086                      -0.28796                       0.15274
                       1.03156                      -0.29201                       0.15657
                       1.03147                      -0.29133                       0.15593
        </DataArray>
        <DataArray type="Float32" Name="TranslationalAcceleration" NumberOfComponents="3" format="ascii">
                       0.81720                       0.77709                       0.79105
                       0.91440                       1.70125                       1.55555
                       1.10505                       3.47690                       3.16925
                       1.26405                       5.16699                       4.88277
                       1.38923                       7.15403                       7.17022
                       1.38016                       9.45569                      10.04916
                       1.15576                      11.64966                      13.14042
                       0.71953                      13.65589                      16.52582
                       0.14125                      15.49356                      20.18472
                      -0.43104                      17.19128                      24.08014
                      -0.81801                      18.79185                      28.15128
                      -0.74811                      20.32266                      32.37435
                       0.07007                      21.82536                      36.71222
                       1.90438                      23.33933                      41.13943
                       4.93595                      24.89676                      45.63888
                       8.37214                      26.23791                      49.42845
                      11.68255                      27.34723                      52.47068
                      15.35847                      28.52770                      55.47850
                      17.22633                      29.07172                      56.99100
        </DataArray>
        <DataArray type="Float32" Name="OrientationX" NumberOfComponents="3" format="ascii">
                       0.94218                       0.13622                      -0.30618
                       0.94223                       0.13649                      -0.30591
                       0.94236                       0.13721                      -0.30517
                       0.94254                       0.13819                      -0.30417
                       0.94284                       0.13983                      -0.30248
                       0.95265                       0.11958                      -0.27958
                       0.95931                       0.10605                      -0.26169
                       0.96483                       0.09499                      -0.24511
                       0.97025                       0.08349                      -0.22724
                       0.97539                       0.07191                      -0.20842
                       0.97988                       0.06154                      -0.18988
                       0.98390                       0.05148                      -0.17113
                       0.98721                       0.04281                      -0.15358
                       0.98956                       0.03709                      -0.13930
                       0.99156                       0.03075                      -0.12597
                       0.99296                       0.02436                      -0.11596
                       0.99381                       0.01870                      -0.10947
                       0.99419                       0.01511                      -0.10658
                       0.99415                       0.01466                      -0.10705
        </DataArray>
        <DataArray type="Float32" Name="OrientationY" NumberOfComponents="3" format="ascii">
                       0.30886                      -0.70753                       0.63562
                       0.30883                      -0.70769                       0.63546
                       0.30875                      -0.70808                       0.63506
                       0.30866                      -0.70856                       0.63456
                       0.30853                      -0.70928                       0.63382
                       0.27812                      -0.71440                       0.64209
                       0.25594                      -0.71804                       0.64724
                       0.23644                      -0.72110                       0.65124
                       0.21575                      -0.72400                       0.65519
                       0.19437                      -0.72666                       0.65893
                       0.17408                      -0.72891                       0.66211
                       0.15390                      -0.73086                       0.66495
                       0.13555                      -0.73244                       0.66720
                       0.12161                      -0.73361                       0.66860
                       0.10788                      -0.73457                       0.66990
                       0.09639                      -0.73518                       0.67098
                       0.08783                      -0.73551                       0.67180
                       0.08324                      -0.73565                       0.67223
                       0.08323                      -0.73564                       0.67224
        </DataArray>
        <DataArray type="Float32" Name="OrientationZ" NumberOfComponents="3" format="ascii">
                      -0.13005                      -0.69343                      -0.70869
                      -0.12976                      -0.69322                      -0.70895
                      -0.12895                      -0.69267                      -0.70963
                      -0.12783                      -0.69199                      -0.71050
                      -0.12592                      -0.69092                      -0.71188
                      -0.12295                      -0.68944                      -0.71383
                      -0.11927                      -0.68788                      -0.71596
                      -0.11489                      -0.68629                      -0.71820
                      -0.10982                      -0.68473                      -0.72048
                      -0.10406                      -0.68323                      -0.72275
                      -0.09765                      -0.68184                      -0.72495
                      -0.09084                      -0.68059                      -0.72702
                      -0.08392                      -0.67948                      -0.72888
                      -0.07740                      -0.67855                      -0.73046
                      -0.07193                      -0.67783                      -0.73169
                      -0.06890                      -0.67743                      -0.73235
                      -0.06795                      -0.67726                      -0.73260
                      -0.06825                      -0.67720                      -0.73263
                      -0.06890                      -0.67721                      -0.73256
        </DataArray>
      </PointData>
      <Lines>
        <DataArray type="Int32" Name="connectivity" format="ascii">
      0      1
      1      2
      2      3
      3      4
      4      5
      5      6
      6      7
      7      8
      8      9
      9     10
     10     11
     11     12
     12     13
     13     14
     14     15
     15     16
     16     17
     17     18
        </DataArray>
        <DataArray type="Int32" Name="offsets" format="ascii">
      2
      4
      6
      8
     10
     12
     14
     16
     18
     20
     22
     24
     26
     28
     30
     32
     34
     36
        </DataArray>
      </Lines>
    </Piece>
  </PolyData>
</VTKFile>
