<?xml version="1.0"?>
<VTKFile type="PolyData" version="0.1" byte_order="LittleEndian">
  <PolyData>
    <Piece NumberOfPoints="     19" NumberOfVerts="  0" NumberOfLines="     18"
           NumberOfStrips="  0" NumberOfPolys="      0">
      <Points>
        <DataArray type="Float32" NumberOfComponents="3" format="ascii">
                       3.22857                       2.94453                      91.60666
                       3.27716                       6.19349                      93.19702
                       3.33278                       9.44253                      94.78700
                       3.39814                      12.69159                      96.37655
                       3.47545                      15.94066                      97.96554
                       3.56712                      19.18973                      99.55376
                       3.67612                      22.43873                     101.14102
                       3.80621                      25.68753                     102.72710
                       3.96190                      28.93594                     104.31163
                       4.14826                      32.18375                     105.89407
                       4.37047                      35.43067                     107.47366
                       4.63317                      38.67639                     109.04951
                       4.93958                      41.92055                     110.62066
                       5.29051                      45.16282                     112.18640
                       5.68306                      48.40306                     113.74653
                       6.10915                      51.64150                     115.30170
                       6.55385                      54.87888                     116.85395
                       6.77851                      56.49743                     117.62969
                       3.20565                       1.32008                      90.81138
        </DataArray>
      </Points>
      <PointData>
        <DataArray type="Float32" Name="TranslationalVelocity" NumberOfComponents="3" format="ascii">
                       0.39878                      -1.39304                       2.76409
                       0.78844                      -2.86243                       5.75401
                       1.17925                      -4.32688                       8.73285
                       1.57151                      -5.78533                      11.69781
                       1.96515                      -7.23714                      14.64723
                       2.35904                      -8.68200                      17.58028
                       2.75069                     -10.11991                      20.49669
                       3.13597                     -11.55111                      23.39669
                       3.50916                     -12.97586                      26.28092
                       3.86314                     -14.39427                      29.15051
                       4.19003                     -15.80622                      32.00702
                       4.48192                     -17.21125                      34.85250
                       4.73195                     -18.60862                      37.68931
                       4.93569                     -19.99755                      40.52001
                       5.09262                     -21.37777                      43.34715
                       5.20810                     -22.75011                      46.17304
                       5.29536                     -24.11747                      48.99938
                       5.33417                     -24.80040                      50.41282
                       0.20422                      -0.65727                       1.26679
        </DataArray>
        <DataArray type="Float32" Name="RotationalVelocity" NumberOfComponents="3" format="ascii">
                       0.92175                       0.00225                      -0.11867
                       0.91885                       0.00241                      -0.11891
                       0.91491                       0.00261                      -0.11920
                       0.91032                       0.00286                      -0.11958
                       0.90537                       0.00305                      -0.11984
                       0.90027                       0.00303                      -0.11966
                       0.89519                       0.00262                      -0.11867
                       0.89026                       0.00160                      -0.11646
                       0.88561                      -0.00021                      -0.11263
                       0.88135                      -0.00295                      -0.10691
                       0.87760                      -0.00669                      -0.09918
                       0.87446                      -0.01136                      -0.08955
                       0.87199                      -0.01677                      -0.07844
                       0.87021                      -0.02253                      -0.06662
                       0.86913                      -0.02807                      -0.05528
                       0.86870                      -0.03256                      -0.04610
                       0.86877                      -0.03490                      -0.04131
                       0.86891                      -0.03538                      -0.04033
                       0.92289                       0.00217                      -0.11853
        </DataArray>
        <DataArray type="Float32" Name="TranslationalAcceleration" NumberOfComponents="3" format="ascii">
                      -1.65062                      -2.67943                      -1.53781
                      -1.91042                      -5.47363                      -2.89586
                      -2.12601                      -8.21538                      -4.31157
                      -2.28163                     -10.89229                      -5.79913
                      -2.36603                     -13.49714                      -7.36758
                      -2.37286                     -16.02631                      -9.02219
                      -2.29986                     -18.47895                     -10.76498
                      -2.14883                     -20.85634                     -12.59546
                      -1.92591                     -23.16135                     -14.51126
                      -1.64122                     -25.39824                     -16.50842
                      -1.30829                     -27.57269                     -18.58135
                      -0.94330                     -29.69173                     -20.72271
                      -0.56404                     -31.76354                     -22.92331
                      -0.18870                     -33.79713                     -25.17206
                       0.16551                     -35.80195                     -27.45618
                       0.48394                     -37.78745                     -29.76160
                       0.75649                     -39.76272                     -32.07345
                       0.88037                     -40.74890                     -33.22910
                      -1.51185                      -1.27117                      -0.87105
        </DataArray>
        <DataArray type="Float32" Name="RotationalAcceleration" NumberOfComponents="3" format="ascii">
                       0.00622                      -0.07694                      -0.00387
                      -0.01145                      -0.07256                      -0.01232
                      -0.03527                      -0.06603                      -0.02500
                      -0.06296                      -0.05778                      -0.04108
                      -0.09302                      -0.04848                      -0.05925
                      -0.12420                      -0.03867                      -0.07842
                      -0.15541                      -0.02881                      -0.09769
                      -0.18597                      -0.01944                      -0.11598
                      -0.21538                      -0.01109                      -0.13222
                      -0.24320                      -0.00421                      -0.14550
                      -0.26906                       0.00080                      -0.15502
                      -0.29255                       0.00366                      -0.16021
                      -0.31320                       0.00424                      -0.16083
                      -0.33042                       0.00257                      -0.15694
                      -0.34349                      -0.00112                      -0.14903
                      -0.35145                      -0.00640                      -0.13804
                      -0.35310                      -0.01250                      -0.12553
                      -0.35219                      -0.01564                      -0.11913
                       0.01317                      -0.07855                      -0.00077
        </DataArray>
        <DataArray type="Float32" Name="OrientationX" NumberOfComponents="3" format="ascii">
                       0.99297                      -0.06304                       0.10014
                       0.99295                      -0.06438                       0.09948
                       0.99292                      -0.06648                       0.09845
                       0.99434                      -0.06336                       0.08525
                       0.99702                      -0.05307                       0.05592
                       0.99806                      -0.04922                       0.03817
                       0.99874                      -0.04609                       0.01980
                       0.99905                      -0.04355                      -0.00001
                       0.99890                      -0.04211                      -0.02063
                       0.99826                      -0.04233                      -0.04114
                       0.99711                      -0.04392                      -0.06200
                       0.99549                      -0.04696                      -0.08247
                       0.99361                      -0.05202                      -0.10019
                       0.99154                      -0.05757                      -0.11637
                       0.98933                      -0.06184                      -0.13193
                       0.98724                      -0.06340                      -0.14605
                       0.98608                      -0.06216                      -0.15424
                       0.98584                      -0.06079                      -0.15629
                       0.99298                      -0.06259                       0.10035
        </DataArray>
        <DataArray type="Float32" Name="OrientationY" NumberOfComponents="3" format="ascii">
                       0.11765                       0.43531                      -0.89256
                       0.11764                       0.43505                      -0.89269
                       0.11764                       0.43471                      -0.89286
                       0.10440                       0.43517                      -0.89427
                       0.07353                       0.43654                      -0.89668
                       0.05589                       0.43700                      -0.89772
                       0.03800                       0.43741                      -0.89846
                       0.01908                       0.43783                      -0.89886
                      -0.00009                       0.43824                      -0.89886
                      -0.01843                       0.43864                      -0.89848
                      -0.03648                       0.43906                      -0.89772
                      -0.05355                       0.43952                      -0.89663
                      -0.06727                       0.43992                      -0.89551
                      -0.07939                       0.44036                      -0.89431
                      -0.09151                       0.44090                      -0.89288
                      -0.10349                       0.44155                      -0.89125
                      -0.11136                       0.44202                      -0.89007
                      -0.11378                       0.44217                      -0.88969
                       0.11765                       0.43541                      -0.89251
        </DataArray>
        <DataArray type="Float32" Name="OrientationZ" NumberOfComponents="3" format="ascii">
                       0.01267                       0.89807                       0.43966
                       0.01419                       0.89810                       0.43956
                       0.01656                       0.89811                       0.43945
                       0.01957                       0.89812                       0.43932
                       0.02317                       0.89812                       0.43914
                       0.02750                       0.89811                       0.43890
                       0.03275                       0.89808                       0.43861
                       0.03915                       0.89800                       0.43825
                       0.04689                       0.89787                       0.43776
                       0.05608                       0.89767                       0.43709
                       0.06665                       0.89738                       0.43619
                       0.07835                       0.89700                       0.43502
                       0.09066                       0.89653                       0.43361
                       0.10273                       0.89598                       0.43206
                       0.11338                       0.89542                       0.43054
                       0.12100                       0.89499                       0.42936
                       0.12350                       0.89485                       0.42894
                       0.12319                       0.89487                       0.42899
                       0.01217                       0.89806                       0.43971
        </DataArray>
      </PointData>
      <Lines>
        <DataArray type="Int32" Name="connectivity" format="ascii">
      0      1
      1      2
      2      3
      3      4
      4      5
      5      6
      6      7
      7      8
      8      9
      9     10
     10     11
     11     12
     12     13
     13     14
     14     15
     15     16
     16     17
     18      0
        </DataArray>
        <DataArray type="Int32" Name="offsets" format="ascii">
      2
      4
      6
      8
     10
     12
     14
     16
     18
     20
     22
     24
     26
     28
     30
     32
     34
     36
        </DataArray>
      </Lines>
    </Piece>
  </PolyData>
</VTKFile>
