<?xml version="1.0"?>
<VTKFile type="PolyData" version="0.1" byte_order="LittleEndian">
  <PolyData>
    <Piece NumberOfPoints="     19" NumberOfVerts="  0" NumberOfLines="     18"
           NumberOfStrips="  0" NumberOfPolys="      0">
      <Points>
        <DataArray type="Float32" NumberOfComponents="3" format="ascii">
                       2.79760                       3.24178                      89.53342
                       2.56473                       6.79409                      88.88981
                       2.33801                      10.34612                      88.24251
                       2.11974                      13.89785                      87.59065
                       1.91174                      17.44925                      86.93364
                       1.71583                      21.00029                      86.27107
                       1.53420                      24.55102                      85.60276
                       1.36954                      28.10148                      84.92866
                       1.22505                      31.65170                      84.24874
                       1.10429                      35.20168                      83.56295
                       1.01083                      38.75131                      82.87118
                       0.94782                      42.30041                      82.17330
                       0.91737                      45.84871                      81.46922
                       0.91980                      49.39595                      80.75910
                       0.95267                      52.94194                      80.04345
                       1.00977                      56.48675                      79.32338
                       1.07991                      60.03084                      78.60083
                       1.11648                      61.80279                      78.23925
                       2.91525                       1.46556                      89.85443
        </DataArray>
      </Points>
      <PointData>
        <DataArray type="Float32" Name="TranslationalVelocity" NumberOfComponents="3" format="ascii">
                       0.55701                       0.52529                       3.05149
                       0.96521                       1.14967                       6.35002
                       1.38823                       1.77458                       9.63112
                       1.83120                       2.40001                      12.89062
                       2.29803                       3.02584                      16.12585
                       2.79394                       3.65200                      19.33536
                       3.32764                       4.27843                      22.51881
                       3.91219                       4.90499                      25.67651
                       4.56504                       5.53132                      28.80887
                       5.30713                       6.15662                      31.91599
                       6.16129                       6.77941                      34.99752
                       7.14957                       7.39741                      38.05264
                       8.28989                       8.00771                      41.08054
                       9.59176                       8.60729                      44.08114
                      11.05112                       9.19409                      47.05597
                      12.64430                       9.76853                      50.00916
                      14.32130                      10.33513                      52.94898
                      15.17263                      10.61734                      54.41689
                       0.35581                       0.21323                       1.39849
        </DataArray>
        <DataArray type="Float32" Name="RotationalVelocity" NumberOfComponents="3" format="ascii">
                       0.93031                       0.00470                      -0.11413
                       0.92624                       0.00387                      -0.11725
                       0.92079                       0.00262                      -0.12212
                       0.91442                       0.00113                      -0.12802
                       0.90749                      -0.00058                      -0.13498
                       0.90033                      -0.00264                      -0.14372
                       0.89320                      -0.00522                      -0.15540
                       0.88620                      -0.00854                      -0.17124
                       0.87929                      -0.01282                      -0.19238
                       0.87232                      -0.01819                      -0.21959
                       0.86515                      -0.02471                      -0.25307
                       0.85765                      -0.03226                      -0.29220
                       0.84990                      -0.04056                      -0.33533
                       0.84223                      -0.04904                      -0.37953
                       0.83520                      -0.05688                      -0.42039
                       0.82979                      -0.06290                      -0.45178
                       0.82749                      -0.06556                      -0.46563
                       0.82735                      -0.06582                      -0.46704
                       0.93194                       0.00498                      -0.11315
        </DataArray>
        <DataArray type="Float32" Name="TranslationalAcceleration" NumberOfComponents="3" format="ascii">
                       0.91061                      -2.80658                       0.87872
                       0.93260                      -5.91409                       1.48902
                       0.87224                      -8.98791                       2.15386
                       0.69783                     -12.02097                       2.88570
                       0.38420                     -15.00883                       3.69279
                      -0.08472                     -17.94942                       4.58093
                      -0.71503                     -20.84353                       5.55316
                      -1.50193                     -23.69462                       6.60999
                      -2.42937                     -26.50849                       7.74996
                      -3.47071                     -29.29364                       8.96931
                      -4.59024                     -32.06206                      10.26157
                      -5.74556                     -34.82977                      11.61736
                      -6.89080                     -37.61669                      13.02460
                      -7.98072                     -40.44455                      14.46927
                      -8.97576                     -43.33158                      15.93664
                      -9.84795                     -46.28399                      17.41269
                     -10.58786                     -49.28654                      18.88585
                     -10.92497                     -50.79682                      19.62046
                       0.88328                      -1.24548                       0.58526
        </DataArray>
        <DataArray type="Float32" Name="RotationalAcceleration" NumberOfComponents="3" format="ascii">
                      -0.00270                       0.07495                      -0.00445
                       0.01070                       0.07901                       0.01306
                       0.02856                       0.08501                       0.03973
                       0.04921                       0.09263                       0.07434
                       0.07195                       0.10140                       0.11459
                       0.09607                       0.11082                       0.15786
                       0.12068                       0.12031                       0.20138
                       0.14528                       0.12928                       0.24206
                       0.16940                       0.13717                       0.27687
                       0.19250                       0.14345                       0.30313
                       0.21400                       0.14768                       0.31866
                       0.23323                       0.14958                       0.32207
                       0.24954                       0.14902                       0.31295
                       0.26229                       0.14612                       0.29216
                       0.27086                       0.14124                       0.26194
                       0.27466                       0.13506                       0.22624
                       0.27321                       0.12859                       0.19094
                       0.27113                       0.12545                       0.17426
                      -0.00801                       0.07345                      -0.01083
        </DataArray>
        <DataArray type="Float32" Name="OrientationX" NumberOfComponents="3" format="ascii">
                       0.99152                       0.08365                       0.09948
                       0.99160                       0.08244                       0.09970
                       0.99172                       0.08055                       0.10004
                       0.99328                       0.07584                       0.08745
                       0.99606                       0.06748                       0.05759
                       0.99731                       0.06085                       0.04088
                       0.99828                       0.05344                       0.02407
                       0.99897                       0.04497                       0.00642
                       0.99931                       0.03543                      -0.01128
                       0.99930                       0.02500                      -0.02797
                       0.99893                       0.01362                      -0.04418
                       0.99824                       0.00162                      -0.05927
                       0.99743                      -0.01013                      -0.07098
                       0.99647                      -0.02136                      -0.08118
                       0.99530                      -0.03150                      -0.09158
                       0.99397                      -0.03934                      -0.10232
                       0.99305                      -0.04254                      -0.10976
                       0.99277                      -0.04268                      -0.11222
                       0.99149                       0.08405                       0.09941
        </DataArray>
        <DataArray type="Float32" Name="OrientationY" NumberOfComponents="3" format="ascii">
                       0.11253                      -0.16949                      -0.97909
                       0.11260                      -0.17050                      -0.97890
                       0.11268                      -0.17186                      -0.97866
                       0.09957                      -0.17449                      -0.97961
                       0.06884                      -0.17842                      -0.98154
                       0.05132                      -0.18130                      -0.98209
                       0.03354                      -0.18406                      -0.98234
                       0.01472                      -0.18667                      -0.98231
                      -0.00438                      -0.18903                      -0.98196
                      -0.02269                      -0.19108                      -0.98131
                      -0.04073                      -0.19280                      -0.98039
                      -0.05782                      -0.19418                      -0.97926
                      -0.07159                      -0.19522                      -0.97814
                      -0.08379                      -0.19596                      -0.97703
                      -0.09601                      -0.19636                      -0.97582
                      -0.10809                      -0.19641                      -0.97455
                      -0.11602                      -0.19624                      -0.97367
                      -0.11846                      -0.19613                      -0.97340
                       0.11250                      -0.16910                      -0.97916
        </DataArray>
        <DataArray type="Float32" Name="OrientationZ" NumberOfComponents="3" format="ascii">
                      -0.06504                       0.98198                      -0.17747
                      -0.06370                       0.98190                      -0.17835
                      -0.06164                       0.98182                      -0.17951
                      -0.05903                       0.98173                      -0.18087
                      -0.05596                       0.98164                      -0.18236
                      -0.05235                       0.98154                      -0.18394
                      -0.04807                       0.98146                      -0.18553
                      -0.04297                       0.98139                      -0.18714
                      -0.03693                       0.98133                      -0.18874
                      -0.02988                       0.98126                      -0.19038
                      -0.02187                       0.98114                      -0.19204
                      -0.01309                       0.98097                      -0.19374
                      -0.00394                       0.98071                      -0.19544
                       0.00497                       0.98038                      -0.19706
                       0.01276                       0.98003                      -0.19846
                       0.01824                       0.97973                      -0.19948
                       0.01988                       0.97963                      -0.19981
                       0.01953                       0.97965                      -0.19977
                      -0.06549                       0.98201                      -0.17712
        </DataArray>
      </PointData>
      <Lines>
        <DataArray type="Int32" Name="connectivity" format="ascii">
      0      1
      1      2
      2      3
      3      4
      4      5
      5      6
      6      7
      7      8
      8      9
      9     10
     10     11
     11     12
     12     13
     13     14
     14     15
     15     16
     16     17
     18      0
        </DataArray>
        <DataArray type="Int32" Name="offsets" format="ascii">
      2
      4
      6
      8
     10
     12
     14
     16
     18
     20
     22
     24
     26
     28
     30
     32
     34
     36
        </DataArray>
      </Lines>
    </Piece>
  </PolyData>
</VTKFile>
