<?xml version="1.0"?>
<VTKFile type="PolyData" version="0.1" byte_order="LittleEndian">
  <PolyData>
    <Piece NumberOfPoints="     19" NumberOfVerts="  0" NumberOfLines="     18"
           NumberOfStrips="  0" NumberOfPolys="      0">
      <Points>
        <DataArray type="Float32" NumberOfComponents="3" format="ascii">
                       2.53410                       1.16509                      87.11203
                       1.96322                       2.47373                      83.78803
                       1.39993                       3.78381                      80.46332
                       0.84715                       5.09591                      77.13764
                       0.30736                       6.41032                      73.81074
                      -0.21681                       7.72722                      70.48232
                      -0.72215                       9.04680                      67.15207
                      -1.20470                      10.36930                      63.81960
                      -1.65972                      11.69488                      60.48449
                      -2.08192                      13.02357                      57.14632
                      -2.46595                      14.35518                      53.80472
                      -2.80698                      15.68927                      50.45945
                      -3.10169                      17.02520                      47.11052
                      -3.34931                      18.36224                      43.75819
                      -3.55302                      19.69965                      40.40302
                      -3.72150                      21.03689                      37.04578
                      -3.87073                      22.37384                      33.68746
                      -3.94304                      23.04227                      32.00818
                       2.82101                       0.51106                      88.77388
        </DataArray>
      </Points>
      <PointData>
        <DataArray type="Float32" Name="TranslationalVelocity" NumberOfComponents="3" format="ascii">
                      -0.37415                       2.90672                       1.06886
                      -0.17800                       6.02349                       2.26223
                       0.02265                       9.12280                       3.44950
                       0.22900                      12.20029                       4.62938
                       0.44153                      15.25332                       5.80111
                       0.65980                      18.28048                       6.96444
                       0.88270                      21.28130                       8.11967
                       1.10843                      24.25589                       9.26746
                       1.33448                      27.20485                      10.40871
                       1.55772                      30.12905                      11.54437
                       1.77465                      33.02965                      12.67528
                       1.98166                      35.90806                      13.80205
                       2.17549                      38.76603                      14.92503
                       2.35370                      41.60576                      16.04441
                       2.51532                      44.43016                      17.16042
                       2.66154                      47.24321                      18.27358
                       2.79660                      50.05024                      19.38512
                       2.86209                      51.45301                      19.94071
                      -0.47128                       1.34463                       0.47086
        </DataArray>
        <DataArray type="Float32" Name="RotationalVelocity" NumberOfComponents="3" format="ascii">
                       0.92004                      -0.01302                      -0.11543
                       0.91568                      -0.01422                      -0.11515
                       0.90977                      -0.01588                      -0.11478
                       0.90289                      -0.01782                      -0.11435
                       0.89545                      -0.01979                      -0.11384
                       0.88779                      -0.02154                      -0.11320
                       0.88014                      -0.02292                      -0.11242
                       0.87269                      -0.02371                      -0.11144
                       0.86556                      -0.02374                      -0.11021
                       0.85884                      -0.02286                      -0.10870
                       0.85262                      -0.02103                      -0.10691
                       0.84699                      -0.01827                      -0.10484
                       0.84203                      -0.01474                      -0.10259
                       0.83786                      -0.01071                      -0.10029
                       0.83464                      -0.00665                      -0.09813
                       0.83256                      -0.00317                      -0.09640
                       0.83189                      -0.00113                      -0.09548
                       0.83194                      -0.00059                      -0.09528
                       0.92174                      -0.01254                      -0.11554
        </DataArray>
        <DataArray type="Float32" Name="TranslationalAcceleration" NumberOfComponents="3" format="ascii">
                      -0.41298                      -0.89354                       2.30255
                       0.13203                      -2.05211                       5.11533
                       0.66703                      -3.24204                       7.88110
                       1.18749                      -4.47175                      10.58868
                       1.68860                      -5.74636                      13.23178
                       2.16338                      -7.06876                      15.80792
                       2.60208                      -8.44046                      18.31743
                       2.99167                      -9.86196                      20.76261
                       3.31571                     -11.33268                      23.14710
                       3.55513                     -12.85077                      25.47523
                       3.68973                     -14.41293                      27.75157
                       3.70036                     -16.01418                      29.98059
                       3.57199                     -17.64796                      32.16655
                       3.29741                     -19.30663                      34.31382
                       2.88178                     -20.98210                      36.42783
                       2.34800                     -22.66677                      38.51652
                       1.74279                     -24.35481                      40.59168
                       1.42986                     -25.19910                      41.62764
                      -0.68734                      -0.32081                       0.88615
        </DataArray>
        <DataArray type="Float32" Name="RotationalAcceleration" NumberOfComponents="3" format="ascii">
                      -0.00514                      -0.06507                       0.00984
                      -0.01567                      -0.06459                       0.01186
                      -0.03008                      -0.06329                       0.01487
                      -0.04693                      -0.06130                       0.01857
                      -0.06509                      -0.05799                       0.02301
                      -0.08380                      -0.05260                       0.02838
                      -0.10252                      -0.04430                       0.03489
                      -0.12085                      -0.03212                       0.04285
                      -0.13842                      -0.01520                       0.05256
                      -0.15491                       0.00699                       0.06414
                      -0.17002                       0.03449                       0.07758
                      -0.18344                       0.06669                       0.09258
                      -0.19491                       0.10212                       0.10850
                      -0.20422                       0.13825                       0.12433
                      -0.21112                       0.17138                       0.13857
                      -0.21532                       0.19643                       0.14915
                      -0.21664                       0.20668                       0.15341
                      -0.21656                       0.20717                       0.15359
                      -0.00106                      -0.06504                       0.00915
        </DataArray>
        <DataArray type="Float32" Name="OrientationX" NumberOfComponents="3" format="ascii">
                       0.97019                       0.22978                      -0.07707
                       0.97045                       0.22917                      -0.07554
                       0.97086                       0.22823                      -0.07313
                       0.97372                       0.21497                      -0.07523
                       0.97913                       0.18532                      -0.08347
                       0.98214                       0.16742                      -0.08583
                       0.98499                       0.14889                      -0.08734
                       0.98773                       0.12893                      -0.08808
                       0.99027                       0.10817                      -0.08759
                       0.99249                       0.08759                      -0.08536
                       0.99443                       0.06669                      -0.08167
                       0.99600                       0.04624                      -0.07651
                       0.99717                       0.02866                      -0.06953
                       0.99798                       0.01263                      -0.06220
                       0.99841                      -0.00284                      -0.05630
                       0.99843                      -0.01702                      -0.05337
                       0.99822                      -0.02534                      -0.05398
                       0.99809                      -0.02747                      -0.05528
                       0.97010                       0.22998                      -0.07758
        </DataArray>
        <DataArray type="Float32" Name="OrientationY" NumberOfComponents="3" format="ascii">
                       0.18324                      -0.90358                      -0.38725
                       0.18325                      -0.90361                      -0.38717
                       0.18327                      -0.90365                      -0.38707
                       0.17035                      -0.90665                      -0.38596
                       0.14011                      -0.91291                      -0.38336
                       0.12280                      -0.91608                      -0.38173
                       0.10521                      -0.91896                      -0.38004
                       0.08657                      -0.92165                      -0.37825
                       0.06764                      -0.92397                      -0.37644
                       0.04947                      -0.92581                      -0.37473
                       0.03155                      -0.92725                      -0.37311
                       0.01455                      -0.92825                      -0.37166
                       0.00085                      -0.92880                      -0.37057
                      -0.01128                      -0.92908                      -0.36970
                      -0.02345                      -0.92917                      -0.36892
                      -0.03553                      -0.92906                      -0.36823
                      -0.04347                      -0.92889                      -0.36780
                      -0.04593                      -0.92882                      -0.36766
                       0.18323                      -0.90357                      -0.38728
        </DataArray>
        <DataArray type="Float32" Name="OrientationZ" NumberOfComponents="3" format="ascii">
                      -0.15862                       0.36158                      -0.91875
                      -0.15699                       0.36189                      -0.91891
                      -0.15443                       0.36239                      -0.91915
                      -0.15117                       0.36300                      -0.91944
                      -0.14725                       0.36367                      -0.91982
                      -0.14254                       0.36437                      -0.92028
                      -0.13685                       0.36515                      -0.92084
                      -0.12995                       0.36599                      -0.92150
                      -0.12165                       0.36685                      -0.92229
                      -0.11185                       0.36770                      -0.92319
                      -0.10061                       0.36846                      -0.92418
                      -0.08821                       0.36906                      -0.92521
                      -0.07520                       0.36946                      -0.92620
                      -0.06246                       0.36965                      -0.92707
                      -0.05126                       0.36965                      -0.92775
                      -0.04332                       0.36955                      -0.92820
                      -0.04082                       0.36949                      -0.92834
                      -0.04125                       0.36950                      -0.92831
                      -0.15916                       0.36148                      -0.91869
        </DataArray>
      </PointData>
      <Lines>
        <DataArray type="Int32" Name="connectivity" format="ascii">
      0      1
      1      2
      2      3
      3      4
      4      5
      5      6
      6      7
      7      8
      8      9
      9     10
     10     11
     11     12
     12     13
     13     14
     14     15
     15     16
     16     17
     18      0
        </DataArray>
        <DataArray type="Int32" Name="offsets" format="ascii">
      2
      4
      6
      8
     10
     12
     14
     16
     18
     20
     22
     24
     26
     28
     30
     32
     34
     36
        </DataArray>
      </Lines>
    </Piece>
  </PolyData>
</VTKFile>
