<?xml version="1.0"?>
<VTKFile type="PolyData" version="0.1" byte_order="LittleEndian">
  <PolyData>
    <Piece NumberOfPoints="     19" NumberOfVerts="  0" NumberOfLines="     18"
           NumberOfStrips="  0" NumberOfPolys="      0">
      <Points>
        <DataArray type="Float32" NumberOfComponents="3" format="ascii">
                       2.97528                       3.28070                      90.38282
                       2.85575                       6.88610                      90.65514
                       2.74451                      10.49205                      90.92360
                       2.64465                      14.09869                      91.18731
                       2.55865                      17.70607                      91.44564
                       2.48920                      21.31421                      91.69810
                       2.43974                      24.92310                      91.94449
                       2.41479                      28.53265                      92.18469
                       2.41989                      32.14269                      92.41856
                       2.46133                      35.75290                      92.64584
                       2.54566                      39.36278                      92.86606
                       2.67882                      42.97164                      93.07863
                       2.86513                      46.57863                      93.28298
                       3.10596                      50.18288                      93.47882
                       3.39813                      53.78383                      93.66647
                       3.73207                      57.38158                      93.84724
                       4.08974                      60.97731                      94.02397
                       4.27166                      62.77490                      94.11179
                       3.03666                       1.47812                      90.24582
        </DataArray>
      </Points>
      <PointData>
        <DataArray type="Float32" Name="TranslationalVelocity" NumberOfComponents="3" format="ascii">
                       0.70063                      -0.23494                       3.08927
                       1.11621                      -0.47295                       6.42286
                       1.53411                      -0.70938                       9.77184
                       1.95561                      -0.94399                      13.14005
                       2.38215                      -1.17655                      16.52971
                       2.81478                      -1.40697                      19.94174
                       3.25356                      -1.63542                      23.37610
                       3.69732                      -1.86233                      26.83206
                       4.14368                      -2.08817                      30.30842
                       4.58909                      -2.31331                      33.80368
                       5.02916                      -2.53784                      37.31614
                       5.45898                      -2.76145                      40.84395
                       5.87370                      -2.98343                      44.38513
                       6.26925                      -3.20283                      47.93753
                       6.64321                      -3.41876                      51.49888
                       6.99587                      -3.63084                      55.06682
                       7.33133                      -3.83991                      58.63881
                       7.49556                      -3.94391                      60.42548
                       0.49328                      -0.11557                       1.42573
        </DataArray>
        <DataArray type="Float32" Name="RotationalVelocity" NumberOfComponents="3" format="ascii">
                       0.92252                       0.01005                      -0.11427
                       0.92603                       0.01020                      -0.11474
                       0.93081                       0.01043                      -0.11551
                       0.93639                       0.01071                      -0.11668
                       0.94238                       0.01104                      -0.11824
                       0.94847                       0.01138                      -0.11999
                       0.95447                       0.01171                      -0.12159
                       0.96023                       0.01200                      -0.12270
                       0.96569                       0.01221                      -0.12300
                       0.97081                       0.01233                      -0.12219
                       0.97560                       0.01233                      -0.12009
                       0.98008                       0.01222                      -0.11664
                       0.98420                       0.01201                      -0.11194
                       0.98790                       0.01171                      -0.10632
                       0.99102                       0.01136                      -0.10034
                       0.99329                       0.01102                      -0.09486
                       0.99432                       0.01076                      -0.09105
                       0.99446                       0.01067                      -0.08973
                       0.92115                       0.00999                      -0.11409
        </DataArray>
        <DataArray type="Float32" Name="TranslationalAcceleration" NumberOfComponents="3" format="ascii">
                       0.22423                      -2.69681                      -0.22778
                       0.19641                      -5.80534                      -0.73411
                       0.11546                      -8.95310                      -1.12269
                      -0.03664                     -12.14957                      -1.36495
                      -0.27208                     -15.39997                      -1.44312
                      -0.60221                     -18.70598                      -1.34796
                      -1.04266                     -22.06635                      -1.07739
                      -1.61539                     -25.47721                      -0.63436
                      -2.34827                     -28.93223                      -0.02441
                      -3.27382                     -32.42251                       0.74606
                      -4.42647                     -35.93659                       1.67074
                      -5.83810                     -39.46064                       2.74382
                      -7.53236                     -42.97940                       3.95902
                      -9.51752                     -46.47818                       5.30737
                     -11.77770                     -49.94636                       6.77426
                     -14.26280                     -53.38204                       8.33533
                     -16.87727                     -56.79669                       9.95074
                     -18.20169                     -58.50116                      10.76588
                       0.22759                      -1.15088                       0.05047
        </DataArray>
        <DataArray type="Float32" Name="RotationalAcceleration" NumberOfComponents="3" format="ascii">
                      -0.09415                       0.05974                       0.00806
                      -0.06635                       0.05981                       0.01981
                      -0.02880                       0.05975                       0.03761
                       0.01495                       0.05961                       0.05933
                       0.06235                       0.05937                       0.08388
                       0.11125                       0.05893                       0.11184
                       0.15994                       0.05809                       0.14496
                       0.20745                       0.05668                       0.18493
                       0.25331                       0.05458                       0.23329
                       0.29734                       0.05169                       0.29104
                       0.33947                       0.04803                       0.35818
                       0.37959                       0.04368                       0.43332
                       0.41712                       0.03887                       0.51333
                       0.45090                       0.03396                       0.59291
                       0.47907                       0.02949                       0.66415
                       0.49879                       0.02620                       0.71625
                       0.50583                       0.02500                       0.73515
                       0.50556                       0.02505                       0.73434
                      -0.10511                       0.05967                       0.00403
        </DataArray>
        <DataArray type="Float32" Name="OrientationX" NumberOfComponents="3" format="ascii">
                       0.99349                       0.02539                       0.11108
                       0.99354                       0.02371                       0.11095
                       0.99362                       0.02108                       0.11076
                       0.99508                       0.01876                       0.09731
                       0.99766                       0.01701                       0.06622
                       0.99874                       0.01340                       0.04827
                       0.99951                       0.00864                       0.03001
                       0.99994                       0.00249                       0.01063
                       0.99994                      -0.00537                      -0.00911
                       0.99949                      -0.01514                      -0.02814
                       0.99854                      -0.02675                      -0.04698
                       0.99709                      -0.03991                      -0.06492
                       0.99536                      -0.05414                      -0.07954
                       0.99336                      -0.06829                      -0.09254
                       0.99114                      -0.08078                      -0.10542
                       0.98896                      -0.08963                      -0.11797
                       0.98770                      -0.09250                      -0.12605
                       0.98743                      -0.09211                      -0.12847
                       0.99347                       0.02594                       0.11112
        </DataArray>
        <DataArray type="Float32" Name="OrientationY" NumberOfComponents="3" format="ascii">
                       0.10877                       0.07901                      -0.99092
                       0.10881                       0.07790                      -0.99101
                       0.10886                       0.07638                      -0.99112
                       0.09567                       0.07435                      -0.99263
                       0.06483                       0.07189                      -0.99530
                       0.04722                       0.06968                      -0.99645
                       0.02936                       0.06755                      -0.99728
                       0.01044                       0.06557                      -0.99779
                      -0.00875                       0.06382                      -0.99792
                      -0.02714                       0.06235                      -0.99769
                      -0.04527                       0.06120                      -0.99710
                      -0.06244                       0.06039                      -0.99622
                      -0.07628                       0.05982                      -0.99529
                      -0.08854                       0.05954                      -0.99429
                      -0.10077                       0.05965                      -0.99312
                      -0.11285                       0.06017                      -0.99179
                      -0.12076                       0.06073                      -0.99082
                      -0.12318                       0.06096                      -0.99051
                       0.10876                       0.07945                      -0.99089
        </DataArray>
        <DataArray type="Float32" Name="OrientationZ" NumberOfComponents="3" format="ascii">
                      -0.03394                       0.99655                       0.07574
                      -0.03214                       0.99668                       0.07482
                      -0.02935                       0.99686                       0.07360
                      -0.02585                       0.99706                       0.07219
                      -0.02169                       0.99727                       0.07062
                      -0.01671                       0.99748                       0.06896
                      -0.01064                       0.99768                       0.06726
                      -0.00318                       0.99784                       0.06554
                       0.00594                       0.99795                       0.06377
                       0.01686                       0.99794                       0.06191
                       0.02954                       0.99777                       0.05990
                       0.04368                       0.99738                       0.05772
                       0.05864                       0.99674                       0.05541
                       0.07341                       0.99589                       0.05310
                       0.08652                       0.99494                       0.05098
                       0.09600                       0.99416                       0.04939
                       0.09931                       0.99386                       0.04881
                       0.09907                       0.99388                       0.04885
                      -0.03453                       0.99650                       0.07611
        </DataArray>
      </PointData>
      <Lines>
        <DataArray type="Int32" Name="connectivity" format="ascii">
      0      1
      1      2
      2      3
      3      4
      4      5
      5      6
      6      7
      7      8
      8      9
      9     10
     10     11
     11     12
     12     13
     13     14
     14     15
     15     16
     16     17
     18      0
        </DataArray>
        <DataArray type="Int32" Name="offsets" format="ascii">
      2
      4
      6
      8
     10
     12
     14
     16
     18
     20
     22
     24
     26
     28
     30
     32
     34
     36
        </DataArray>
      </Lines>
    </Piece>
  </PolyData>
</VTKFile>
