<?xml version="1.0"?>
<VTKFile type="PolyData" version="0.1" byte_order="LittleEndian">
  <PolyData>
    <Piece NumberOfPoints="     19" NumberOfVerts="  0" NumberOfLines="     18"
           NumberOfStrips="  0" NumberOfPolys="      0">
      <Points>
        <DataArray type="Float32" NumberOfComponents="3" format="ascii">
                       2.67969                      -1.47051                      89.76994
                       2.57966                      -2.79152                      89.43406
                       2.34770                      -5.40865                      88.67348
                       2.10389                      -8.01367                      87.86875
                       1.79769                     -11.26215                      86.83319
                       1.51298                     -15.19701                      85.71333
                       1.28651                     -19.16425                      84.70517
                       1.08267                     -23.13060                      83.68863
                       0.91036                     -27.09643                      82.66404
                       0.77635                     -31.06099                      81.62863
                       0.68229                     -35.02318                      80.57970
                       0.64219                     -38.98261                      79.51676
                       0.66316                     -42.93853                      78.44010
                       0.74891                     -46.89018                      77.35073
                       0.89963                     -50.83688                      76.25021
                       1.06687                     -54.12229                      75.32671
                       1.22212                     -56.75082                      74.59264
                       1.38810                     -59.39383                      73.91050
                       1.46582                     -60.70403                      73.52963
        </DataArray>
      </Points>
      <PointData>
        <DataArray type="Float32" Name="Force" NumberOfComponents="3" format="ascii">
                       0.71025                      -1.55911                       5.99046
                      88.24272                     -12.74393                      24.46206
                     113.85041                     -23.87009                      61.66272
                     104.96885                     -28.00011                      81.35553
                     798.81115                      56.24230                    -440.39694
                    1029.23932                      61.41325                    -503.76159
                    1203.05480                      60.21265                    -514.53483
                    1555.02124                      71.51716                    -594.96497
                    1708.75526                      75.62537                    -581.19165
                    1983.84965                      94.28211                    -614.02277
                    2453.99811                     131.89571                    -690.12383
                    2826.33626                     178.94651                    -730.25517
                    3294.63861                     251.84126                    -803.92714
                    3629.15462                     323.94226                    -825.88076
                    3935.06847                     397.26398                    -836.50725
                    4123.29980                     443.44395                    -824.26158
                    4055.78021                     442.91310                    -766.35856
                    2967.80221                     323.01361                    -538.93897
                    1265.24918                     104.16687                    -106.40822
        </DataArray>
        <DataArray type="Float32" Name="Moment" NumberOfComponents="3" format="ascii">
                       0.00000                       0.00000                       0.00000
                       0.00000                       0.00000                       0.00000
                       0.00000                       0.00000                       0.00000
                       0.00000                       0.00000                       0.00000
                      17.17024                     250.30715                      63.11040
                      30.62138                     478.42954                     120.88783
                      35.55054                     609.72011                     154.47373
                      42.83163                     835.52610                     212.37982
                      47.18735                    1109.00311                     283.03985
                      39.31650                    1234.01007                     316.50795
                      24.03734                    1277.35420                     329.60044
                       5.11711                    1341.25857                     348.47573
                     -15.37153                    1223.00104                     320.12665
                     -35.70664                    1220.99019                     322.01428
                     -52.66689                    1183.35044                     314.22883
                     -61.09762                    1126.58264                     300.45374
                     -58.93349                    1003.77544                     268.23476
                     -30.45506                     505.23803                     135.10652
                     -24.96892                     417.23349                     111.55159
        </DataArray>
        <DataArray type="Float32" Name="TranslationalVelocity" NumberOfComponents="3" format="ascii">
                      -0.73534                       0.32448                      -1.37260
                      -0.87570                       0.64530                      -2.59257
                      -1.15254                       1.37226                      -5.00967
                      -1.42762                       2.14086                      -7.41465
                      -1.77070                       3.12838                     -10.41176
                      -2.18880                       4.19013                     -14.03775
                      -2.61331                       5.14162                     -17.68869
                      -3.04027                       6.09733                     -21.33398
                      -3.47204                       7.05588                     -24.97338
                      -3.91189                       8.01892                     -28.60556
                      -4.36237                       8.98866                     -32.22965
                      -4.82914                       9.96342                     -35.84417
                      -5.31678                      10.94151                     -39.44831
                      -5.82887                      11.92081                     -43.04160
                      -6.36675                      12.89921                     -46.62423
                      -6.83280                      13.71280                     -49.60289
                      -7.21581                      14.35532                     -51.98423
                      -7.60554                      14.94878                     -54.37801
                      -7.79910                      15.28231                     -55.56462
        </DataArray>
        <DataArray type="Float32" Name="RotationalVelocity" NumberOfComponents="3" format="ascii">
                       0.92266                      -0.01318                      -0.10960
                       0.92252                      -0.01317                      -0.10960
                       0.92216                      -0.01314                      -0.10963
                       0.92170                      -0.01308                      -0.10970
                       0.92100                      -0.01300                      -0.10984
                       0.92003                      -0.01286                      -0.11008
                       0.91896                      -0.01268                      -0.11051
                       0.91780                      -0.01238                      -0.11134
                       0.91651                      -0.01192                      -0.11278
                       0.91510                      -0.01124                      -0.11507
                       0.91355                      -0.01026                      -0.11850
                       0.91193                      -0.00901                      -0.12300
                       0.91031                      -0.00752                      -0.12842
                       0.90876                      -0.00590                      -0.13441
                       0.90743                      -0.00431                      -0.14034
                       0.90659                      -0.00320                      -0.14449
                       0.90617                      -0.00261                      -0.14675
                       0.90596                      -0.00227                      -0.14802
                       0.90594                      -0.00222                      -0.14823
        </DataArray>
        <DataArray type="Float32" Name="TranslationalAcceleration" NumberOfComponents="3" format="ascii">
                       0.69038                       1.06948                       0.37354
                       0.73133                       2.22928                       0.59612
                       0.82143                       4.53110                       1.12440
                       0.92111                       6.81988                       1.69833
                       1.06006                       9.66619                       2.45148
                       1.24039                      13.09298                       3.25408
                       1.44125                      16.52764                       3.97347
                       1.66837                      19.94673                       4.72001
                       1.91183                      23.35049                       5.49469
                       2.15389                      26.73824                       6.30196
                       2.37451                      30.11047                       7.14334
                       2.54358                      33.46468                       8.02244
                       2.62996                      36.79911                       8.93838
                       2.60591                      40.11155                       9.88776
                       2.45379                      43.40007                      10.86465
                       2.23122                      46.12332                      11.69388
                       1.99482                      48.29414                      12.35814
                       1.72013                      50.47513                      12.98202
                       1.58227                      51.55484                      13.32765
        </DataArray>
        <DataArray type="Float32" Name="OrientationX" NumberOfComponents="3" format="ascii">
                       0.93797                       0.01653                      -0.34632
                       0.93801                       0.01700                      -0.34620
                       0.93811                       0.01834                      -0.34586
                       0.93824                       0.02018                      -0.34540
                       0.93845                       0.02323                      -0.34462
                       0.94909                       0.01968                      -0.31438
                       0.95629                       0.01940                      -0.29178
                       0.96224                       0.02108                      -0.27139
                       0.96810                       0.02399                      -0.24942
                       0.97365                       0.02854                      -0.22625
                       0.97843                       0.03555                      -0.20349
                       0.98261                       0.04437                      -0.18029
                       0.98584                       0.05491                      -0.15846
                       0.98779                       0.06684                      -0.14075
                       0.98931                       0.07742                      -0.12358
                       0.99043                       0.08338                      -0.11000
                       0.99127                       0.08523                      -0.10061
                       0.99173                       0.08544                      -0.09580
                       0.99175                       0.08504                      -0.09591
        </DataArray>
        <DataArray type="Float32" Name="OrientationY" NumberOfComponents="3" format="ascii">
                       0.33900                      -0.25323                       0.90606
                       0.33899                      -0.25336                       0.90603
                       0.33897                      -0.25367                       0.90595
                       0.33894                      -0.25406                       0.90586
                       0.33890                      -0.25463                       0.90571
                       0.30874                      -0.25611                       0.91602
                       0.28677                      -0.25739                       0.92277
                       0.26746                      -0.25864                       0.92821
                       0.24695                      -0.25993                       0.93352
                       0.22574                      -0.26128                       0.93850
                       0.20561                      -0.26263                       0.94274
                       0.18558                      -0.26407                       0.94648
                       0.16740                      -0.26555                       0.94945
                       0.15362                      -0.26689                       0.95140
                       0.14005                      -0.26828                       0.95310
                       0.12868                      -0.26945                       0.95438
                       0.12020                      -0.27030                       0.95524
                       0.11564                      -0.27075                       0.95568
                       0.11564                      -0.27075                       0.95568
        </DataArray>
        <DataArray type="Float32" Name="OrientationZ" NumberOfComponents="3" format="ascii">
                      -0.07272                      -0.96727                      -0.24312
                      -0.07231                      -0.96722                      -0.24341
                      -0.07112                      -0.96712                      -0.24419
                      -0.06947                      -0.96698                      -0.24520
                      -0.06671                      -0.96676                      -0.24683
                      -0.06248                      -0.96645                      -0.24914
                      -0.05720                      -0.96611                      -0.25171
                      -0.05062                      -0.96574                      -0.25451
                      -0.04243                      -0.96533                      -0.25756
                      -0.03233                      -0.96484                      -0.26084
                      -0.01993                      -0.96424                      -0.26427
                      -0.00561                      -0.96348                      -0.26771
                       0.01006                      -0.96253                      -0.27098
                       0.02602                      -0.96141                      -0.27390
                       0.04063                      -0.96022                      -0.27626
                       0.04994                      -0.95940                      -0.27760
                       0.05422                      -0.95900                      -0.27819
                       0.05571                      -0.95885                      -0.27839
                       0.05530                      -0.95889                      -0.27835
        </DataArray>
      </PointData>
      <Lines>
        <DataArray type="Int32" Name="connectivity" format="ascii">
      0      1
      1      2
      2      3
      3      4
      4      5
      5      6
      6      7
      7      8
      8      9
      9     10
     10     11
     11     12
     12     13
     13     14
     14     15
     15     16
     16     17
     17     18
        </DataArray>
        <DataArray type="Int32" Name="offsets" format="ascii">
      2
      4
      6
      8
     10
     12
     14
     16
     18
     20
     22
     24
     26
     28
     30
     32
     34
     36
        </DataArray>
      </Lines>
    </Piece>
  </PolyData>
</VTKFile>
