<?xml version="1.0"?>
<VTKFile type="PolyData" version="0.1" byte_order="LittleEndian">
  <PolyData>
    <Piece NumberOfPoints="     19" NumberOfVerts="  0" NumberOfLines="     18"
           NumberOfStrips="  0" NumberOfPolys="      0">
      <Points>
        <DataArray type="Float32" NumberOfComponents="3" format="ascii">
                       2.87703                       1.42805                      89.68357
                       2.76887                       2.73271                      89.29109
                       2.54178                       5.36915                      88.59859
                       2.31114                       8.01849                      87.94909
                       2.02333                      11.33803                      87.16181
                       1.72039                      15.28089                      86.07196
                       1.43513                      19.18562                      84.85261
                       1.15769                      23.08918                      83.62778
                       0.89211                      26.99116                      82.39533
                       0.63981                      30.89215                      81.15712
                       0.40022                      34.79329                      79.91707
                       0.17744                      38.69414                      78.67319
                      -0.02764                      42.59467                      77.42546
                      -0.21524                      46.49483                      76.17399
                      -0.38488                      50.39462                      74.91898
                      -0.51528                      53.64417                      73.87092
                      -0.61559                      56.24120                      73.02397
                      -0.72268                      58.82153                      72.12486
                      -0.77222                      60.12423                      71.71486
        </DataArray>
      </Points>
      <PointData>
        <DataArray type="Float32" Name="Force" NumberOfComponents="3" format="ascii">
                      -0.03095                      -0.08002                      -0.25518
                      64.99497                      -1.70806                     -23.32136
                      76.36646                      -9.75926                     -52.76841
                      65.71827                     -15.61274                     -68.96403
                     710.72563                     106.67359                     164.49615
                     980.25223                     144.52106                     224.84286
                    1093.36112                     135.99768                     176.66100
                    1349.18533                     144.59180                     154.33426
                    1395.97105                     126.90922                     100.44923
                    1518.58931                     117.66583                      61.58514
                    1740.71478                     110.54713                      16.18084
                    1799.02341                      90.23592                     -33.12004
                    1915.99520                      74.49651                     -73.76825
                    1805.89128                      46.34811                    -117.59784
                    1651.84948                      21.01994                    -153.09827
                    1444.07816                       2.42093                    -172.93032
                    1510.33617                      -3.00739                    -193.39425
                    1157.87382                      -4.45733                    -154.49699
                    1164.71101                      -4.62043                    -156.90273
        </DataArray>
        <DataArray type="Float32" Name="Moment" NumberOfComponents="3" format="ascii">
                       0.00000                       0.00000                       0.00000
                       0.00000                       0.00000                       0.00000
                       0.00000                       0.00000                       0.00000
                       0.00000                       0.00000                       0.00000
                      15.63872                    -196.08330                      59.58846
                      25.60592                    -329.67708                     100.27013
                      35.24975                    -468.78632                     142.72048
                      47.19607                    -652.74728                     198.95555
                      60.17348                    -872.71619                     266.35643
                      63.04040                    -968.55069                     296.05913
                      61.03302                   -1006.14310                     308.09022
                      58.36476                   -1045.84298                     320.86229
                      42.99466                    -847.73270                     260.60568
                      37.72805                    -825.14482                     254.16156
                      32.27425                    -781.02768                     240.98932
                      28.39171                    -734.30314                     226.80895
                      26.19331                    -697.06742                     215.39972
                      13.63012                    -364.58782                     112.66918
                      14.07291                    -373.68977                     115.46954
        </DataArray>
        <DataArray type="Float32" Name="TranslationalVelocity" NumberOfComponents="3" format="ascii">
                       0.26094                       0.39005                       1.34176
                       0.40743                       0.76345                       2.54264
                       0.70712                       1.42631                       4.96724
                       1.01980                       2.04980                       7.39680
                       1.43484                       2.80673                      10.42882
                       1.96856                       3.84146                      14.01094
                       2.55268                       4.98866                      17.53485
                       3.20262                       6.13635                      21.03271
                       3.93160                       7.28593                      24.50375
                       4.75549                       8.43576                      27.94833
                       5.67918                       9.58278                      31.36976
                       6.72996                      10.72761                      34.76448
                       7.92202                      11.86940                      38.13181
                       9.26210                      13.00709                      41.47168
                      10.74423                      14.13930                      44.78593
                      12.06875                      15.07866                      47.53165
                      13.17176                      15.83455                      49.71789
                      14.28280                      16.63666                      51.88715
                      14.83968                      17.00266                      52.98268
        </DataArray>
        <DataArray type="Float32" Name="RotationalVelocity" NumberOfComponents="3" format="ascii">
                       0.92102                       0.00438                      -0.11224
                       0.92013                       0.00393                      -0.11347
                       0.91797                       0.00271                      -0.11691
                       0.91538                       0.00108                      -0.12158
                       0.91151                      -0.00158                      -0.12928
                       0.90619                      -0.00551                      -0.14079
                       0.90037                      -0.01018                      -0.15456
                       0.89434                      -0.01565                      -0.17096
                       0.88826                      -0.02211                      -0.19056
                       0.88213                      -0.02968                      -0.21384
                       0.87589                      -0.03857                      -0.24143
                       0.86945                      -0.04854                      -0.27250
                       0.86287                      -0.05921                      -0.30586
                       0.85641                      -0.06990                      -0.33932
                       0.85057                      -0.07954                      -0.36951
                       0.84682                      -0.08558                      -0.38837
                       0.84507                      -0.08825                      -0.39670
                       0.84444                      -0.08905                      -0.39914
                       0.84460                      -0.08866                      -0.39791
        </DataArray>
        <DataArray type="Float32" Name="TranslationalAcceleration" NumberOfComponents="3" format="ascii">
                       0.65083                      -1.35815                       0.35696
                       0.72976                      -2.44225                       0.81579
                       0.86907                      -4.64207                       1.64433
                       0.98194                      -6.85692                       2.39217
                       1.07748                      -9.63472                       3.22548
                       1.13047                     -12.93713                       4.20891
                       1.09476                     -16.23166                       5.13792
                       0.96013                     -19.55681                       5.91123
                       0.77965                     -22.91406                       6.53703
                       0.65274                     -26.30480                       7.02338
                       0.68875                     -29.72821                       7.38867
                       1.06223                     -33.19250                       7.62366
                       1.94892                     -36.70755                       7.72759
                       3.50393                     -40.28608                       7.69784
                       5.82307                     -43.93930                       7.53570
                       8.32197                     -47.03902                       7.30952
                      10.66340                     -49.54909                       7.08262
                      13.22187                     -52.06656                       6.87070
                      14.50990                     -53.32410                       6.72840
        </DataArray>
        <DataArray type="Float32" Name="OrientationX" NumberOfComponents="3" format="ascii">
                       0.99009                       0.10894                       0.08862
                       0.99010                       0.10876                       0.08868
                       0.99015                       0.10824                       0.08883
                       0.99020                       0.10754                       0.08905
                       0.99030                       0.10637                       0.08940
                       0.99364                       0.09556                       0.05952
                       0.99549                       0.08683                       0.03820
                       0.99672                       0.07848                       0.01977
                       0.99760                       0.06931                       0.00040
                       0.99804                       0.05941                      -0.01940
                       0.99807                       0.04929                      -0.03788
                       0.99767                       0.03878                      -0.05605
                       0.99697                       0.02859                      -0.07228
                       0.99625                       0.01980                      -0.08424
                       0.99530                       0.01160                      -0.09614
                       0.99431                       0.00568                      -0.10635
                       0.99346                       0.00208                      -0.11419
                       0.99295                       0.00051                      -0.11850
                       0.99294                       0.00076                      -0.11858
        </DataArray>
        <DataArray type="Float32" Name="OrientationY" NumberOfComponents="3" format="ascii">
                       0.11608                      -0.27965                      -0.95306
                       0.11609                      -0.27978                      -0.95302
                       0.11612                      -0.28012                      -0.95292
                       0.11615                      -0.28053                      -0.95279
                       0.11620                      -0.28115                      -0.95260
                       0.08462                      -0.28522                      -0.95472
                       0.06180                      -0.28820                      -0.95557
                       0.04186                      -0.29076                      -0.95588
                       0.02075                      -0.29320                      -0.95583
                      -0.00098                      -0.29543                      -0.95536
                      -0.02154                      -0.29732                      -0.95454
                      -0.04194                      -0.29892                      -0.95336
                      -0.06041                      -0.30016                      -0.95197
                      -0.07441                      -0.30103                      -0.95071
                      -0.08818                      -0.30166                      -0.94933
                      -0.09968                      -0.30200                      -0.94808
                      -0.10823                      -0.30214                      -0.94710
                      -0.11281                      -0.30220                      -0.94655
                      -0.11281                      -0.30219                      -0.94655
        </DataArray>
        <DataArray type="Float32" Name="OrientationZ" NumberOfComponents="3" format="ascii">
                      -0.07905                       0.95390                      -0.28952
                      -0.07884                       0.95388                      -0.28964
                      -0.07826                       0.95384                      -0.28993
                      -0.07748                       0.95380                      -0.29027
                      -0.07619                       0.95375                      -0.29078
                      -0.07426                       0.95369                      -0.29149
                      -0.07196                       0.95362                      -0.29227
                      -0.06927                       0.95357                      -0.29309
                      -0.06613                       0.95354                      -0.29393
                      -0.06249                       0.95351                      -0.29479
                      -0.05831                       0.95350                      -0.29568
                      -0.05373                       0.95349                      -0.29660
                      -0.04891                       0.95346                      -0.29752
                      -0.04418                       0.95341                      -0.29842
                      -0.04001                       0.95334                      -0.29922
                      -0.03750                       0.95329                      -0.29972
                      -0.03647                       0.95326                      -0.29994
                      -0.03629                       0.95325                      -0.30001
                      -0.03656                       0.95325                      -0.29998
        </DataArray>
      </PointData>
      <Lines>
        <DataArray type="Int32" Name="connectivity" format="ascii">
      0      1
      1      2
      2      3
      3      4
      4      5
      5      6
      6      7
      7      8
      8      9
      9     10
     10     11
     11     12
     12     13
     13     14
     14     15
     15     16
     16     17
     17     18
        </DataArray>
        <DataArray type="Int32" Name="offsets" format="ascii">
      2
      4
      6
      8
     10
     12
     14
     16
     18
     20
     22
     24
     26
     28
     30
     32
     34
     36
        </DataArray>
      </Lines>
    </Piece>
  </PolyData>
</VTKFile>
