<?xml version="1.0"?>
<VTKFile type="PolyData" version="0.1" byte_order="LittleEndian">
  <PolyData>
    <Piece NumberOfPoints="     19" NumberOfVerts="  0" NumberOfLines="     18"
           NumberOfStrips="  0" NumberOfPolys="      0">
      <Points>
        <DataArray type="Float32" NumberOfComponents="3" format="ascii">
                       2.48732                      -1.29525                      89.33198
                       2.34345                      -2.44387                      88.60545
                       2.02546                      -4.68899                      87.07572
                       1.69627                      -6.90876                      85.50807
                       1.28346                      -9.66725                      83.52325
                       0.86754                     -13.05374                      81.24774
                       0.50651                     -16.50819                      79.06963
                       0.16671                     -19.96074                      76.88505
                      -0.14335                     -23.41219                      74.69422
                      -0.41735                     -26.86122                      72.49474
                      -0.65375                     -30.30600                      70.28421
                      -0.83930                     -33.74662                      68.06230
                      -0.96728                     -37.18278                      65.82938
                      -1.03417                     -40.61421                      63.58645
                      -1.03964                     -44.04077                      61.33498
                      -1.00479                     -46.89305                      59.45402
                      -0.95666                     -49.17757                      57.95377
                      -0.89905                     -51.49217                      56.49860
                      -0.87474                     -52.62638                      55.73657
        </DataArray>
      </Points>
      <PointData>
        <DataArray type="Float32" Name="Force" NumberOfComponents="3" format="ascii">
                       0.50680                      -2.83620                       4.41056
                      75.64336                     -21.10436                      18.64345
                     103.83991                     -44.73721                      50.88798
                      96.55363                     -53.99538                      67.30370
                     771.55546                     154.58115                    -389.40413
                    1013.63855                     175.46611                    -459.32081
                    1184.16186                     169.87867                    -468.81579
                    1529.14493                     189.66274                    -539.16771
                    1670.04237                     180.14011                    -520.39089
                    1941.14304                     194.34824                    -544.59594
                    2409.45361                     231.44696                    -605.47022
                    2782.49574                     269.94842                    -630.55181
                    3265.96792                     340.40463                    -684.01583
                    3601.11449                     397.67071                    -685.16379
                    3902.37594                     452.68983                    -673.67934
                    4082.41718                     480.16893                    -646.73794
                    4004.88096                     461.48478                    -588.77108
                    2914.14776                     324.70722                    -403.28390
                    1313.18256                      80.03270                     -79.97727
        </DataArray>
        <DataArray type="Float32" Name="Moment" NumberOfComponents="3" format="ascii">
                       0.00000                       0.00000                       0.00000
                       0.00000                       0.00000                       0.00000
                       0.00000                       0.00000                       0.00000
                       0.00000                       0.00000                       0.00000
                      22.29221                     189.90089                     119.55387
                      42.88962                     381.47237                     240.37675
                      53.74078                     505.59766                     318.94840
                      69.63288                     705.47099                     445.65043
                      84.62595                     947.52653                     599.58094
                      83.05785                    1067.83090                     677.12259
                      70.87543                    1112.74657                     707.40534
                      55.76480                    1174.71939                     748.99311
                      31.69190                    1065.81500                     681.72848
                      12.43859                    1066.39138                     684.31142
                      -5.07698                    1037.13826                     667.51289
                     -15.28218                     988.15303                     637.18567
                     -17.94260                     881.69236                     569.03207
                      -9.79719                     443.65359                     286.41623
                      -8.09798                     374.37888                     241.67403
        </DataArray>
        <DataArray type="Float32" Name="TranslationalVelocity" NumberOfComponents="3" format="ascii">
                      -0.36704                       0.72427                      -1.18813
                      -0.48551                       1.41659                      -2.25920
                      -0.71659                       2.87597                      -4.35303
                      -0.94533                       4.37216                      -6.42349
                      -1.23057                       6.26655                      -8.99678
                      -1.58378                       8.43290                     -12.15589
                      -1.94769                      10.50328                     -15.37870
                      -2.31455                      12.57812                     -18.60031
                      -2.68484                      14.65622                     -21.82136
                      -3.05872                      16.73907                     -25.04058
                      -3.43585                      18.82857                     -28.25612
                      -3.81688                      20.92351                     -31.46807
                      -4.20185                      23.02268                     -34.67610
                      -4.59062                      25.12457                     -37.87999
                      -4.98267                      27.22766                     -41.07961
                      -5.31121                      28.98024                     -43.74320
                      -5.57527                      30.37580                     -45.87671
                      -5.84278                      31.72823                     -48.03839
                      -5.97376                      32.43713                     -49.09768
        </DataArray>
        <DataArray type="Float32" Name="RotationalVelocity" NumberOfComponents="3" format="ascii">
                       0.93168                      -0.00613                      -0.10693
                       0.93172                      -0.00609                      -0.10700
                       0.93182                      -0.00600                      -0.10717
                       0.93194                      -0.00587                      -0.10740
                       0.93211                      -0.00566                      -0.10776
                       0.93233                      -0.00534                      -0.10831
                       0.93256                      -0.00498                      -0.10894
                       0.93278                      -0.00456                      -0.10964
                       0.93299                      -0.00411                      -0.11041
                       0.93317                      -0.00361                      -0.11124
                       0.93333                      -0.00307                      -0.11212
                       0.93348                      -0.00252                      -0.11303
                       0.93360                      -0.00197                      -0.11393
                       0.93372                      -0.00145                      -0.11477
                       0.93382                      -0.00103                      -0.11546
                       0.93388                      -0.00081                      -0.11583
                       0.93392                      -0.00074                      -0.11594
                       0.93395                      -0.00077                      -0.11590
                       0.93396                      -0.00082                      -0.11582
        </DataArray>
        <DataArray type="Float32" Name="TranslationalAcceleration" NumberOfComponents="3" format="ascii">
                       1.26486                       1.19287                       0.69423
                       1.36422                       2.17267                       1.38356
                       1.57023                       4.08770                       2.82414
                       1.77992                       5.99386                       4.27997
                       2.04624                       8.38907                       6.08950
                       2.36105                      11.37529                       8.10806
                       2.67744                      14.46914                       9.96661
                       3.00948                      17.60878                      11.75571
                       3.35576                      20.79390                      13.47638
                       3.70987                      24.02103                      15.13546
                       4.06163                      27.28149                      16.74746
                       4.39583                      30.57614                      18.31293
                       4.69397                      33.90007                      19.83893
                       4.93759                      37.24731                      21.33178
                       5.11218                      40.61079                      22.79757
                       5.20211                      43.42077                      24.00336
                       5.23699                      45.67350                      24.95428
                       5.24031                      47.94554                      25.85870
                       5.24260                      49.06640                      26.34503
        </DataArray>
        <DataArray type="Float32" Name="OrientationX" NumberOfComponents="3" format="ascii">
                       0.94110                       0.08807                      -0.32645
                       0.94115                       0.08845                      -0.32621
                       0.94128                       0.08954                      -0.32552
                       0.94147                       0.09103                      -0.32459
                       0.94176                       0.09350                      -0.32303
                       0.95196                       0.08015                      -0.29554
                       0.95890                       0.07234                      -0.27435
                       0.96469                       0.06706                      -0.25471
                       0.97042                       0.06239                      -0.23322
                       0.97590                       0.05884                      -0.21016
                       0.98071                       0.05769                      -0.18679
                       0.98500                       0.05809                      -0.16249
                       0.98844                       0.06054                      -0.13900
                       0.99072                       0.06562                      -0.11900
                       0.99256                       0.06970                      -0.09988
                       0.99383                       0.07076                      -0.08541
                       0.99468                       0.06944                      -0.07602
                       0.99512                       0.06811                      -0.07141
                       0.99513                       0.06779                      -0.07161
        </DataArray>
        <DataArray type="Float32" Name="OrientationY" NumberOfComponents="3" format="ascii">
                       0.32146                      -0.53239                       0.78309
                       0.32145                      -0.53247                       0.78304
                       0.32142                      -0.53267                       0.78291
                       0.32140                      -0.53291                       0.78276
                       0.32135                      -0.53327                       0.78253
                       0.29108                      -0.53654                       0.79208
                       0.26905                      -0.53882                       0.79830
                       0.24968                      -0.54075                       0.80328
                       0.22910                      -0.54263                       0.80812
                       0.20783                      -0.54444                       0.81264
                       0.18763                      -0.54607                       0.81646
                       0.16753                      -0.54764                       0.81977
                       0.14927                      -0.54909                       0.82232
                       0.13542                      -0.55029                       0.82392
                       0.12177                      -0.55147                       0.82526
                       0.11034                      -0.55244                       0.82622
                       0.10181                      -0.55313                       0.82685
                       0.09724                      -0.55348                       0.82717
                       0.09723                      -0.55348                       0.82717
        </DataArray>
        <DataArray type="Float32" Name="OrientationZ" NumberOfComponents="3" format="ascii">
                      -0.10483                      -0.84191                      -0.52934
                      -0.10444                      -0.84182                      -0.52956
                      -0.10329                      -0.84158                      -0.53017
                      -0.10172                      -0.84126                      -0.53097
                      -0.09910                      -0.84076                      -0.53226
                      -0.09508                      -0.84006                      -0.53409
                      -0.09008                      -0.83931                      -0.53614
                      -0.08387                      -0.83851                      -0.53839
                      -0.07614                      -0.83765                      -0.54087
                      -0.06660                      -0.83673                      -0.54355
                      -0.05489                      -0.83575                      -0.54636
                      -0.04137                      -0.83469                      -0.54916
                      -0.02654                      -0.83357                      -0.55178
                      -0.01142                      -0.83239                      -0.55407
                       0.00244                      -0.83128                      -0.55585
                       0.01129                      -0.83054                      -0.55684
                       0.01537                      -0.83020                      -0.55726
                       0.01682                      -0.83007                      -0.55740
                       0.01644                      -0.83010                      -0.55737
        </DataArray>
      </PointData>
      <Lines>
        <DataArray type="Int32" Name="connectivity" format="ascii">
      0      1
      1      2
      2      3
      3      4
      4      5
      5      6
      6      7
      7      8
      8      9
      9     10
     10     11
     11     12
     12     13
     13     14
     14     15
     15     16
     16     17
     17     18
        </DataArray>
        <DataArray type="Int32" Name="offsets" format="ascii">
      2
      4
      6
      8
     10
     12
     14
     16
     18
     20
     22
     24
     26
     28
     30
     32
     34
     36
        </DataArray>
      </Lines>
    </Piece>
  </PolyData>
</VTKFile>
