<?xml version="1.0"?>
<VTKFile type="PolyData" version="0.1" byte_order="LittleEndian">
  <PolyData>
    <Piece NumberOfPoints="     19" NumberOfVerts="  0" NumberOfLines="     18"
           NumberOfStrips="  0" NumberOfPolys="      0">
      <Points>
        <DataArray type="Float32" NumberOfComponents="3" format="ascii">
                       2.56782                      -2.15800                      87.64525
                       2.08389                      -4.50715                      84.93699
                       1.60658                      -6.85249                      82.22427
                       1.13867                      -9.19293                      79.50568
                       0.68267                     -11.52780                      76.78029
                       0.24112                     -13.85680                      74.04751
                      -0.18328                     -16.17981                      71.30693
                      -0.58757                     -18.49679                      68.55822
                      -0.96858                     -20.80783                      65.80121
                      -1.32307                     -23.11312                      63.03586
                      -1.64801                     -25.41292                      60.26234
                      -1.94104                     -27.70761                      57.48104
                      -2.20099                     -29.99765                      54.69261
                      -2.42861                     -32.28358                      51.89798
                      -2.62738                     -34.56613                      49.09837
                      -2.80444                     -36.84626                      46.29530
                      -2.97174                     -39.12521                      43.49066
                      -3.05477                     -40.26455                      42.08819
                       2.81107                      -0.98263                      88.99847
        </DataArray>
      </Points>
      <PointData>
        <DataArray type="Float32" Name="TranslationalVelocity" NumberOfComponents="3" format="ascii">
                      -0.06294                       2.31158                      -1.97731
                      -0.33042                       4.89153                      -4.16737
                      -0.57873                       7.47711                      -6.35907
                      -0.80067                      10.07024                      -8.55326
                      -0.99018                      12.67208                     -10.75053
                      -1.13941                      15.28345                     -12.95188
                      -1.23689                      17.90541                     -15.15913
                      -1.26646                      20.53939                     -17.37490
                      -1.20722                      23.18693                     -19.60213
                      -1.03444                      25.84960                     -21.84365
                      -0.72150                      28.52882                     -24.10152
                      -0.24292                      31.22567                     -26.37652
                       0.42163                      33.94076                     -28.66789
                       1.28213                      36.67404                     -30.97351
                       2.33205                      39.42406                     -33.29029
                       3.54107                      42.18721                     -35.61485
                       4.84683                      44.95721                     -37.94438
                       5.51383                      46.34297                     -39.11009
                       0.07452                       1.02271                      -0.88255
        </DataArray>
        <DataArray type="Float32" Name="RotationalVelocity" NumberOfComponents="3" format="ascii">
                       0.93225                       0.00399                      -0.11235
                       0.93330                       0.00084                      -0.10980
                       0.93502                      -0.00415                      -0.10577
                       0.93712                      -0.01036                      -0.10075
                       0.93950                      -0.01792                      -0.09460
                       0.94230                      -0.02746                      -0.08682
                       0.94578                      -0.03991                      -0.07662
                       0.95012                      -0.05631                      -0.06314
                       0.95535                      -0.07762                      -0.04556
                       0.96141                      -0.10445                      -0.02333
                       0.96808                      -0.13691                       0.00369
                       0.97501                      -0.17433                       0.03497
                       0.98182                      -0.21511                       0.06920
                       0.98808                      -0.25649                       0.10405
                       0.99326                      -0.29432                       0.13601
                       0.99677                      -0.32290                       0.16022
                       0.99810                      -0.33471                       0.17025
                       0.99818                      -0.33538                       0.17081
                       0.93194                       0.00498                      -0.11315
        </DataArray>
        <DataArray type="Float32" Name="TranslationalAcceleration" NumberOfComponents="3" format="ascii">
                       0.89804                       1.91997                       2.61087
                       0.93322                       3.91076                       5.13288
                       0.93386                       5.81548                       7.74380
                       0.88032                       7.61158                      10.46917
                       0.75199                       9.28516                      13.32528
                       0.53177                      10.83062                      16.32040
                       0.21147                      12.24918                      19.45723
                      -0.20574                      13.54769                      22.73475
                      -0.70483                      14.73756                      26.14986
                      -1.25895                      15.83375                      29.69969
                      -1.83067                      16.85414                      33.38374
                      -2.37470                      17.81900                      37.20513
                      -2.84199                      18.75048                      41.17025
                      -3.18554                      19.67130                      45.28534
                      -3.36820                      20.60172                      49.54869
                      -3.37220                      21.55472                      53.93918
                      -3.20983                      22.53110                      58.40358
                      -3.09082                      23.02433                      60.64522
                       0.87412                       0.90642                       1.36830
        </DataArray>
        <DataArray type="Float32" Name="RotationalAcceleration" NumberOfComponents="3" format="ascii">
                      -0.01871                       0.07624                      -0.01133
                      -0.04633                       0.08413                      -0.01320
                      -0.08467                       0.09689                      -0.01738
                      -0.13030                       0.11471                      -0.02464
                      -0.17985                       0.13717                      -0.03522
                      -0.23055                       0.16264                      -0.04822
                      -0.28034                       0.18865                      -0.06184
                      -0.32749                       0.21267                      -0.07422
                      -0.37079                       0.23217                      -0.08336
                      -0.40951                       0.24482                      -0.08738
                      -0.44328                       0.24877                      -0.08472
                      -0.47201                       0.24291                      -0.07443
                      -0.49572                       0.22706                      -0.05637
                      -0.51433                       0.20226                      -0.03145
                      -0.52763                       0.17099                      -0.00187
                      -0.53514                       0.13741                       0.02869
                      -0.53581                       0.10749                       0.05482
                      -0.53427                       0.09432                       0.06599
                      -0.00801                       0.07345                      -0.01083
        </DataArray>
        <DataArray type="Float32" Name="OrientationX" NumberOfComponents="3" format="ascii">
                       0.94319                       0.14754                      -0.29769
                       0.94343                       0.14868                      -0.29637
                       0.94379                       0.15046                      -0.29432
                       0.94820                       0.14277                      -0.28378
                       0.95728                       0.12218                      -0.26207
                       0.96235                       0.11198                      -0.24769
                       0.96722                       0.10203                      -0.23255
                       0.97205                       0.09177                      -0.21610
                       0.97662                       0.08181                      -0.19878
                       0.98072                       0.07296                      -0.18126
                       0.98445                       0.06472                      -0.16332
                       0.98768                       0.05749                      -0.14557
                       0.99013                       0.05282                      -0.12983
                       0.99210                       0.04897                      -0.11549
                       0.99378                       0.04416                      -0.10223
                       0.99513                       0.03777                      -0.09102
                       0.99582                       0.03202                      -0.08550
                       0.99597                       0.02956                      -0.08463
                       0.94311                       0.14715                      -0.29814
        </DataArray>
        <DataArray type="Float32" Name="OrientationY" NumberOfComponents="3" format="ascii">
                       0.30381                      -0.74565                       0.59304
                       0.30370                      -0.74618                       0.59243
                       0.30356                      -0.74690                       0.59160
                       0.29080                      -0.74969                       0.59448
                       0.26110                      -0.75468                       0.60190
                       0.24397                      -0.75766                       0.60533
                       0.22654                      -0.76048                       0.60857
                       0.20805                      -0.76318                       0.61178
                       0.18926                      -0.76566                       0.61477
                       0.17122                      -0.76784                       0.61733
                       0.15340                      -0.76979                       0.61959
                       0.13650                      -0.77147                       0.62145
                       0.12287                      -0.77279                       0.62265
                       0.11078                      -0.77389                       0.62356
                       0.09867                      -0.77483                       0.62442
                       0.08662                      -0.77558                       0.62528
                       0.07868                      -0.77595                       0.62587
                       0.07623                      -0.77602                       0.62608
                       0.30386                      -0.74545                       0.59328
        </DataArray>
        <DataArray type="Float32" Name="OrientationZ" NumberOfComponents="3" format="ascii">
                      -0.13448                      -0.64979                      -0.74812
                      -0.13306                      -0.64892                      -0.74913
                      -0.13081                      -0.64769                      -0.75059
                      -0.12787                      -0.64621                      -0.75237
                      -0.12423                      -0.64461                      -0.75435
                      -0.11988                      -0.64297                      -0.75645
                      -0.11475                      -0.64130                      -0.75866
                      -0.10878                      -0.63964                      -0.76094
                      -0.10190                      -0.63802                      -0.76325
                      -0.09414                      -0.63647                      -0.76553
                      -0.08562                      -0.63501                      -0.76775
                      -0.07658                      -0.63366                      -0.76981
                      -0.06744                      -0.63246                      -0.77165
                      -0.05884                      -0.63143                      -0.77320
                      -0.05164                      -0.63062                      -0.77437
                      -0.04698                      -0.63012                      -0.77508
                      -0.04631                      -0.62998                      -0.77523
                      -0.04717                      -0.63001                      -0.77515
                      -0.13494                      -0.65012                      -0.74775
        </DataArray>
      </PointData>
      <Lines>
        <DataArray type="Int32" Name="connectivity" format="ascii">
      0      1
      1      2
      2      3
      3      4
      4      5
      5      6
      6      7
      7      8
      8      9
      9     10
     10     11
     11     12
     12     13
     13     14
     14     15
     15     16
     16     17
     18      0
        </DataArray>
        <DataArray type="Int32" Name="offsets" format="ascii">
      2
      4
      6
      8
     10
     12
     14
     16
     18
     20
     22
     24
     26
     28
     30
     32
     34
     36
        </DataArray>
      </Lines>
    </Piece>
  </PolyData>
</VTKFile>
