<?xml version="1.0"?>
<VTKFile type="PolyData" version="0.1" byte_order="LittleEndian">
  <PolyData>
    <Piece NumberOfPoints="     17" NumberOfVerts="  0" NumberOfLines="      0"
           NumberOfStrips="  0" NumberOfPolys="      0">
      <Points>
        <DataArray type="Float32" NumberOfComponents="3" format="ascii">
                       2.29865                      -2.81789                      88.37396
                       1.92419                      -5.86258                      86.45640
                       1.55721                      -8.90576                      84.53502
                       1.20067                     -11.94697                      82.60856
                       0.85718                     -14.98593                      80.67619
                       0.52956                     -18.02249                      78.73730
                       0.22124                     -21.05651                      76.79131
                      -0.06360                     -24.08783                      74.83756
                      -0.31998                     -27.11629                      72.87547
                      -0.54238                     -30.14170                      70.90456
                      -0.72517                     -33.16384                      68.92462
                      -0.86336                     -36.18250                      66.93577
                      -0.95349                     -39.19746                      64.93857
                      -0.99479                     -42.20860                      62.93399
                      -0.99063                     -45.21609                      60.92342
                      -0.95010                     -48.22058                      58.90867
                      -0.88989                     -51.22341                      56.89186
        </DataArray>
      </Points>
      <PointData>
        <DataArray type="Float32" Name="Force" NumberOfComponents="3" format="ascii">
                     187.46030                     -62.67800                      62.82526
                     647.69222                    -189.28858                     176.84502
                    2204.50812                     372.86437                   -1001.74657
                    3684.53968                     655.29450                   -1702.49405
                    2249.46492                     354.09556                    -951.17601
                    4885.75059                     676.61927                   -1878.43703
                    5927.11622                     717.87837                   -2044.06011
                    6598.33559                     709.95068                   -2034.39892
                    7131.33688                     715.63724                   -1990.63496
                    9081.61858                     879.51156                   -2298.43788
                   10547.10260                    1027.96184                   -2426.42599
                   12179.44113                    1253.48231                   -2585.78911
                    7045.84959                     757.72581                   -1403.47324
                   14171.29450                    1585.39825                   -2631.34074
                   13805.84489                    1602.34423                   -2349.47076
                   19769.11088                    2296.92560                   -3026.01206
                    8098.16911                     865.27255                   -1069.82202
        </DataArray>
        <DataArray type="Float32" Name="Moment" NumberOfComponents="3" format="ascii">
                     -19.99987                     -16.00060                      20.95681
                     190.30710                    -291.77546                     290.61739
                    1174.27452                   -1670.79514                    1599.59080
                    1260.78848                   -2286.71907                    2027.53937
                      50.22668                    -401.19538                      28.18784
                   -1066.98898                    1035.49571                   -2119.70905
                    -681.01397                    1016.62600                   -1267.09089
                     -99.32065                     834.57142                     377.80746
                     161.21730                     515.36165                    1149.85401
                     375.57581                    -110.56421                    1873.25420
                     983.99282                   -1649.93551                    3924.44259
                    1759.38128                   -4093.49540                    6537.87849
                    -123.34668                     270.49368                    -402.10553
                   -2127.88631                    5270.68312                   -7931.41704
                   -1898.41938                    4899.06445                   -7452.91515
                    -437.29069                     718.05433                   -1182.64521
                    -104.38785                      51.07168                     230.50546
        </DataArray>
      </PointData>
    </Piece>
  </PolyData>
</VTKFile>
