<?xml version="1.0"?>
<VTKFile type="PolyData" version="0.1" byte_order="LittleEndian">
  <PolyData>
    <Piece NumberOfPoints="     19" NumberOfVerts="  0" NumberOfLines="     18"
           NumberOfStrips="  0" NumberOfPolys="      0">
      <Points>
        <DataArray type="Float32" NumberOfComponents="3" format="ascii">
                       2.29865                      -2.81789                      88.37396
                       1.92419                      -5.86258                      86.45640
                       1.55721                      -8.90576                      84.53502
                       1.20067                     -11.94697                      82.60856
                       0.85718                     -14.98593                      80.67619
                       0.52956                     -18.02249                      78.73730
                       0.22124                     -21.05651                      76.79131
                      -0.06360                     -24.08783                      74.83756
                      -0.31998                     -27.11629                      72.87547
                      -0.54238                     -30.14170                      70.90456
                      -0.72517                     -33.16384                      68.92462
                      -0.86336                     -36.18250                      66.93577
                      -0.95349                     -39.19746                      64.93857
                      -0.99479                     -42.20860                      62.93399
                      -0.99063                     -45.21609                      60.92342
                      -0.95010                     -48.22058                      58.90867
                      -0.88989                     -51.22341                      56.89186
                      -0.85749                     -52.72464                      55.88323
                       2.48732                      -1.29525                      89.33198
        </DataArray>
      </Points>
      <PointData>
        <DataArray type="Float32" Name="TranslationalVelocity" NumberOfComponents="3" format="ascii">
                      -0.52416                       1.63708                      -2.60798
                      -0.83882                       3.46399                      -5.44727
                      -1.15454                       5.29406                      -8.28553
                      -1.47169                       7.12823                     -11.12236
                      -1.79058                       8.96705                     -13.95751
                      -2.11148                      10.81080                     -16.79085
                      -2.43462                      12.65966                     -19.62223
                      -2.76021                      14.51372                     -22.45144
                      -3.08847                      16.37295                     -25.27825
                      -3.41956                      18.23711                     -28.10245
                      -3.75361                      20.10571                     -30.92380
                      -4.09068                      21.97796                     -33.74208
                      -4.43069                      23.85286                     -36.55708
                      -4.77342                      25.72933                     -39.36872
                      -5.11839                      27.60636                     -42.17715
                      -5.46489                      29.48324                     -44.98296
                      -5.81184                      31.35987                     -47.78738
                      -5.98526                      32.29815                     -49.18943
                      -0.36704                       0.72427                      -1.18813
        </DataArray>
        <DataArray type="Float32" Name="RotationalVelocity" NumberOfComponents="3" format="ascii">
                       0.93173                      -0.00608                      -0.10702
                       0.93187                      -0.00595                      -0.10726
                       0.93204                      -0.00574                      -0.10761
                       0.93223                      -0.00548                      -0.10807
                       0.93243                      -0.00518                      -0.10859
                       0.93264                      -0.00484                      -0.10917
                       0.93283                      -0.00446                      -0.10981
                       0.93301                      -0.00405                      -0.11050
                       0.93317                      -0.00361                      -0.11124
                       0.93332                      -0.00314                      -0.11201
                       0.93345                      -0.00265                      -0.11282
                       0.93356                      -0.00215                      -0.11362
                       0.93367                      -0.00168                      -0.11440
                       0.93376                      -0.00126                      -0.11509
                       0.93384                      -0.00092                      -0.11564
                       0.93391                      -0.00073                      -0.11595
                       0.93395                      -0.00075                      -0.11593
                       0.93396                      -0.00082                      -0.11582
                       0.93168                      -0.00613                      -0.10693
        </DataArray>
        <DataArray type="Float32" Name="TranslationalAcceleration" NumberOfComponents="3" format="ascii">
                       1.39598                       2.49293                       1.60195
                       1.65819                       5.10283                       3.40304
                       1.92129                       7.73586                       5.17014
                       2.18797                      10.39790                       6.89431
                       2.46210                      13.09261                       8.56994
                       2.74716                      15.82177                      10.19446
                       3.04444                      18.58567                      11.76802
                       3.35225                      21.38351                      13.29294
                       3.66579                      24.21368                      14.77304
                       3.97721                      27.07395                      16.21303
                       4.27608                      29.96163                      17.61786
                       4.55030                      32.87349                      18.99223
                       4.78748                      35.80573                      20.34039
                       4.97666                      38.75393                      21.66628
                       5.11057                      41.71328                      22.97395
                       5.18834                      44.67892                      24.26834
                       5.21845                      47.64642                      25.55645
                       5.22335                      49.13010                      26.19998
                       1.26486                       1.19287                       0.69423
        </DataArray>
        <DataArray type="Float32" Name="RotationalAcceleration" NumberOfComponents="3" format="ascii">
                      -0.03874                      -0.00432                       0.01357
                      -0.02854                      -0.00517                       0.01291
                      -0.01451                      -0.00663                       0.01245
                       0.00208                      -0.00882                       0.01264
                       0.02009                      -0.01174                       0.01373
                       0.03853                      -0.01510                       0.01542
                       0.05665                      -0.01840                       0.01708
                       0.07385                      -0.02113                       0.01802
                       0.08972                      -0.02280                       0.01753
                       0.10399                      -0.02296                       0.01496
                       0.11653                      -0.02128                       0.00980
                       0.12732                      -0.01761                       0.00182
                       0.13633                      -0.01203                      -0.00884
                       0.14350                      -0.00490                      -0.02160
                       0.14872                       0.00307                      -0.03530
                       0.15179                       0.01076                      -0.04814
                       0.15227                       0.01665                      -0.05760
                       0.15180                       0.01892                      -0.06112
                      -0.04272                      -0.00402                       0.01388
        </DataArray>
        <DataArray type="Float32" Name="OrientationX" NumberOfComponents="3" format="ascii">
                       0.94117                       0.08857                      -0.32613
                       0.94135                       0.09010                      -0.32517
                       0.94164                       0.09249                      -0.32367
                       0.94619                       0.08841                      -0.31130
                       0.95571                       0.07543                      -0.28447
                       0.96097                       0.07026                      -0.26759
                       0.96603                       0.06581                      -0.24989
                       0.97108                       0.06182                      -0.23060
                       0.97588                       0.05889                      -0.21023
                       0.98017                       0.05766                      -0.18960
                       0.98404                       0.05778                      -0.16832
                       0.98734                       0.05937                      -0.14712
                       0.98972                       0.06326                      -0.12828
                       0.99153                       0.06769                      -0.11089
                       0.99302                       0.07070                      -0.09437
                       0.99429                       0.07088                      -0.07981
                       0.99506                       0.06855                      -0.07184
                       0.99530                       0.06677                      -0.07008
                       0.94110                       0.08807                      -0.32645
        </DataArray>
        <DataArray type="Float32" Name="OrientationY" NumberOfComponents="3" format="ascii">
                       0.32145                      -0.53249                       0.78302
                       0.32141                      -0.53277                       0.78285
                       0.32137                      -0.53314                       0.78262
                       0.30875                      -0.53477                       0.78657
                       0.27923                      -0.53777                       0.79551
                       0.26224                      -0.53952                       0.80009
                       0.24495                      -0.54120                       0.80442
                       0.22659                      -0.54286                       0.80868
                       0.20792                      -0.54444                       0.81263
                       0.18997                      -0.54590                       0.81603
                       0.17223                      -0.54730                       0.81902
                       0.15540                      -0.54863                       0.82150
                       0.14184                      -0.54976                       0.82319
                       0.12981                      -0.55080                       0.82448
                       0.11775                      -0.55184                       0.82560
                       0.10575                      -0.55283                       0.82656
                       0.09784                      -0.55344                       0.82712
                       0.09539                      -0.55360                       0.82730
                       0.32146                      -0.53239                       0.78309
        </DataArray>
        <DataArray type="Float32" Name="OrientationZ" NumberOfComponents="3" format="ascii">
                      -0.10431                      -0.84179                      -0.52964
                      -0.10271                      -0.84145                      -0.53048
                      -0.10018                      -0.84096                      -0.53174
                      -0.09693                      -0.84036                      -0.53329
                      -0.09297                      -0.83971                      -0.53501
                      -0.08816                      -0.83903                      -0.53689
                      -0.08231                      -0.83831                      -0.53894
                      -0.07519                      -0.83755                      -0.54117
                      -0.06660                      -0.83673                      -0.54355
                      -0.05645                      -0.83586                      -0.54603
                      -0.04480                      -0.83494                      -0.54852
                      -0.03194                      -0.83395                      -0.55091
                      -0.01845                      -0.83292                      -0.55308
                      -0.00527                      -0.83189                      -0.55492
                       0.00629                      -0.83095                      -0.55632
                       0.01446                      -0.83027                      -0.55717
                       0.01694                      -0.83006                      -0.55741
                       0.01644                      -0.83010                      -0.55737
                      -0.10483                      -0.84191                      -0.52934
        </DataArray>
      </PointData>
      <Lines>
        <DataArray type="Int32" Name="connectivity" format="ascii">
      0      1
      1      2
      2      3
      3      4
      4      5
      5      6
      6      7
      7      8
      8      9
      9     10
     10     11
     11     12
     12     13
     13     14
     14     15
     15     16
     16     17
     18      0
        </DataArray>
        <DataArray type="Int32" Name="offsets" format="ascii">
      2
      4
      6
      8
     10
     12
     14
     16
     18
     20
     22
     24
     26
     28
     30
     32
     34
     36
        </DataArray>
      </Lines>
    </Piece>
  </PolyData>
</VTKFile>
