<?xml version="1.0"?>
<VTKFile type="PolyData" version="0.1" byte_order="LittleEndian">
  <PolyData>
    <Piece NumberOfPoints="     17" NumberOfVerts="  0" NumberOfLines="      0"
           NumberOfStrips="  0" NumberOfPolys="      0">
      <Points>
        <DataArray type="Float32" NumberOfComponents="3" format="ascii">
                       2.70670                      -3.30760                      89.82259
                       2.51083                      -6.90279                      89.47102
                       2.32301                     -10.49789                      89.11426
                       2.14647                     -14.09288                      88.75062
                       1.98407                     -17.68771                      88.37901
                       1.83893                     -21.28236                      87.99867
                       1.71480                     -24.87678                      87.60887
                       1.61622                     -28.47087                      87.20887
                       1.54858                     -32.06442                      86.79795
                       1.51782                     -35.65713                      86.37553
                       1.52995                     -39.24853                      85.94126
                       1.59030                     -42.83798                      85.49514
                       1.70250                     -46.42476                      85.03765
                       1.86726                     -50.00819                      84.56975
                       2.08084                     -53.58795                      84.09303
                       2.33336                     -57.16438                      83.60986
                       2.60675                     -60.73889                      83.12342
        </DataArray>
      </Points>
      <PointData>
        <DataArray type="Float32" Name="Force" NumberOfComponents="3" format="ascii">
                     219.62228                     -20.34181                      85.09151
                     701.39281                     -59.29945                     233.28090
                    2254.94010                      -0.85385                   -1120.86440
                    3706.51125                      14.72288                   -1869.22943
                    2251.47302                       8.01757                   -1033.51400
                    4892.19442                      21.70167                   -2043.69475
                    5952.57515                      44.56904                   -2240.59204
                    6661.47472                      84.44412                   -2258.09919
                    7204.96266                     146.16919                   -2240.60587
                    9160.97090                     273.91712                   -2628.36798
                   10599.37829                     444.64626                   -2829.99665
                   12147.26854                     680.54289                   -3081.30327
                    6982.58921                     467.60361                   -1702.28612
                   13945.39047                    1084.55241                   -3252.00276
                   13454.86258                    1202.60298                   -2966.22051
                   19066.31583                    1864.99369                   -3900.16665
                    7788.27744                     772.10448                   -1423.18544
        </DataArray>
        <DataArray type="Float32" Name="Moment" NumberOfComponents="3" format="ascii">
                     -17.69757                      -6.74875                      26.25913
                     208.67078                    -119.63474                     383.83069
                    1270.95177                    -645.20881                    2218.25098
                    1346.40775                    -899.43657                    2842.67466
                      74.35211                    -244.71095                     212.60466
                   -1082.93623                      93.03765                   -2343.78821
                    -710.40311                     470.45729                   -1565.94774
                    -140.31420                    1062.65253                     -16.77977
                     124.32717                    1080.72320                     804.60034
                     363.27583                     849.44164                    1726.47347
                    1036.73740                     400.27964                    4238.59609
                    1915.38740                    -603.08197                    7613.25029
                    -140.75947                      91.17967                    -492.83699
                   -2346.87240                    1154.76811                   -9385.03648
                   -2079.17398                    1047.45914                   -8715.57017
                    -480.19895                     208.82579                   -1427.20294
                    -105.05300                     157.95310                     170.30046
        </DataArray>
      </PointData>
    </Piece>
  </PolyData>
</VTKFile>
