<?xml version="1.0"?>
<VTKFile type="PolyData" version="0.1" byte_order="LittleEndian">
  <PolyData>
    <Piece NumberOfPoints="     19" NumberOfVerts="  0" NumberOfLines="     18"
           NumberOfStrips="  0" NumberOfPolys="      0">
      <Points>
        <DataArray type="Float32" NumberOfComponents="3" format="ascii">
                       3.15952                       1.40444                      90.61249
                       3.15342                       2.70204                      91.04154
                       3.13132                       5.26697                      91.99152
                       3.10765                       7.81760                      92.98520
                       3.08240                      10.99734                      94.25377
                       3.10048                      14.85897                      95.63581
                       3.14475                      18.76137                      96.89313
                       3.20874                      22.66407                      98.14868
                       3.30051                      26.56754                      99.40016
                       3.42698                      30.47091                     100.64888
                       3.59082                      34.37282                     101.89774
                       3.80532                      38.27315                     103.14384
                       4.07770                      42.17123                     104.38563
                       4.41198                      46.06634                     105.62164
                       4.80899                      49.95776                     106.85071
                       5.18049                      53.19790                     107.86984
                       5.49720                      55.79094                     108.67485
                       5.81258                      58.40103                     109.42735
                       5.97492                      59.69281                     109.84284
        </DataArray>
      </Points>
      <PointData>
        <DataArray type="Float32" Name="Force" NumberOfComponents="3" format="ascii">
                      -0.03522                       0.09082                      -0.27760
                      64.09106                       7.49953                     -22.02270
                      74.70255                      17.24085                     -51.89449
                      63.25116                      22.40231                     -68.11536
                     686.69840                     -55.70034                     168.16030
                     958.16695                     -79.01923                     227.22486
                    1080.45402                     -69.39799                     179.82973
                    1362.09482                     -73.60536                     158.67058
                    1464.81425                     -68.88436                     104.34171
                    1692.40692                     -78.48067                      66.64882
                    2108.69219                    -103.38567                      21.43836
                    2452.38076                    -137.46074                     -29.66503
                    2920.11839                    -199.14083                     -68.09684
                    3272.95396                    -262.69589                    -119.47000
                    3632.41928                    -333.59175                    -173.28558
                    3883.49154                    -383.64342                    -220.91680
                    3891.06589                    -393.07890                    -252.26249
                    2915.88220                    -296.45335                    -200.82908
                    1229.74947                     -88.17550                    -202.07599
        </DataArray>
        <DataArray type="Float32" Name="Moment" NumberOfComponents="3" format="ascii">
                       0.00000                       0.00000                       0.00000
                       0.00000                       0.00000                       0.00000
                       0.00000                       0.00000                       0.00000
                       0.00000                       0.00000                       0.00000
                      -0.18527                    -180.29625                     -58.96362
                      -1.66821                    -331.36860                    -108.20148
                      -4.86151                    -486.74453                    -158.63034
                     -11.34611                    -701.87405                    -228.19108
                     -23.33801                    -974.95585                    -316.01322
                     -37.32033                   -1108.87077                    -358.05193
                     -54.94029                   -1200.58796                    -385.82339
                     -76.82571                   -1282.19021                    -409.74441
                     -85.53891                   -1131.43730                    -359.31748
                    -104.57526                   -1139.41311                    -359.51176
                    -119.23243                   -1116.42326                    -350.13067
                    -124.86900                   -1071.30021                    -334.65275
                    -116.09226                    -957.58526                    -298.56239
                     -59.32925                    -481.85793                    -150.12127
                     -48.77509                    -396.86502                    -123.65334
        </DataArray>
        <DataArray type="Float32" Name="TranslationalVelocity" NumberOfComponents="3" format="ascii">
                       0.39261                      -0.46312                       1.36555
                       0.54752                      -0.85901                       2.56504
                       0.85389                      -1.73473                       4.93650
                       1.15643                      -2.65121                       7.29587
                       1.52869                      -3.82284                      10.23908
                       1.97043                      -5.10585                      13.81628
                       2.40358                      -6.27755                      17.43524
                       2.82234                      -7.45096                      21.05894
                       3.22447                      -8.62460                      24.68797
                       3.60746                      -9.80005                      28.32170
                       3.97107                     -10.97983                      31.95853
                       4.31108                     -12.16210                      35.59914
                       4.62589                     -13.34536                      39.24324
                       4.91527                     -14.52786                      42.89036
                       5.18115                     -15.70790                      46.53966
                       5.38854                     -16.68879                      49.58180
                       5.54823                     -17.46486                      52.01817
                       5.70888                     -18.19156                      54.47087
                       5.78824                     -18.59206                      55.68479
        </DataArray>
        <DataArray type="Float32" Name="RotationalVelocity" NumberOfComponents="3" format="ascii">
                       0.92419                       0.00877                      -0.11679
                       0.92435                       0.00868                      -0.11651
                       0.92476                       0.00843                      -0.11574
                       0.92524                       0.00810                      -0.11471
                       0.92597                       0.00754                      -0.11300
                       0.92696                       0.00670                      -0.11043
                       0.92806                       0.00571                      -0.10738
                       0.92921                       0.00456                      -0.10385
                       0.93039                       0.00324                      -0.09981
                       0.93158                       0.00174                      -0.09521
                       0.93280                       0.00005                      -0.09005
                       0.93405                      -0.00177                      -0.08448
                       0.93530                      -0.00364                      -0.07875
                       0.93651                      -0.00545                      -0.07321
                       0.93757                      -0.00701                      -0.06843
                       0.93822                      -0.00793                      -0.06564
                       0.93850                      -0.00827                      -0.06459
                       0.93858                      -0.00828                      -0.06454
                       0.93852                      -0.00815                      -0.06494
        </DataArray>
        <DataArray type="Float32" Name="TranslationalAcceleration" NumberOfComponents="3" format="ascii">
                      -0.88013                      -1.46137                      -0.20958
                      -0.89135                      -2.59837                      -0.54569
                      -0.91838                      -4.83925                      -1.31701
                      -0.93734                      -7.03905                      -2.19424
                      -0.94133                      -9.72564                      -3.43516
                      -0.89667                     -12.91763                      -5.01217
                      -0.80124                     -16.07970                      -6.73928
                      -0.67853                     -19.16765                      -8.72673
                      -0.55193                     -22.18520                     -10.97066
                      -0.45794                     -25.13515                     -13.46129
                      -0.43195                     -28.02617                     -16.16121
                      -0.53021                     -30.85494                     -19.07085
                      -0.80508                     -33.62402                     -22.16096
                      -1.29993                     -36.33519                     -25.39749
                      -2.03775                     -38.99083                     -28.74274
                      -2.82756                     -41.16745                     -31.58441
                      -3.56071                     -42.89640                     -33.87346
                      -4.34537                     -44.66717                     -36.13115
                      -4.74608                     -45.51532                     -37.28638
        </DataArray>
        <DataArray type="Float32" Name="OrientationX" NumberOfComponents="3" format="ascii">
                       0.99369                      -0.03058                       0.10787
                       0.99370                      -0.03095                       0.10775
                       0.99370                      -0.03203                       0.10739
                       0.99370                      -0.03351                       0.10691
                       0.99370                      -0.03597                       0.10610
                       0.99676                      -0.02977                       0.07472
                       0.99831                      -0.02717                       0.05142
                       0.99918                      -0.02659                       0.03049
                       0.99960                      -0.02711                       0.00799
                       0.99945                      -0.02919                      -0.01567
                       0.99867                      -0.03380                      -0.03891
                       0.99723                      -0.04031                      -0.06255
                       0.99521                      -0.04878                      -0.08477
                       0.99294                      -0.05905                      -0.10284
                       0.99039                      -0.06830                      -0.12029
                       0.98825                      -0.07347                      -0.13402
                       0.98681                      -0.07497                      -0.14347
                       0.98607                      -0.07521                      -0.14835
                       0.98610                      -0.07501                      -0.14828
        </DataArray>
        <DataArray type="Float32" Name="OrientationY" NumberOfComponents="3" format="ascii">
                       0.11203                       0.31000                      -0.94411
                       0.11203                       0.30997                      -0.94412
                       0.11203                       0.30991                      -0.94414
                       0.11203                       0.30984                      -0.94417
                       0.11203                       0.30971                      -0.94421
                       0.08027                       0.31060                      -0.94715
                       0.05733                       0.31109                      -0.94865
                       0.03726                       0.31145                      -0.94953
                       0.01605                       0.31185                      -0.95000
                      -0.00578                       0.31231                      -0.94996
                      -0.02640                       0.31280                      -0.94945
                      -0.04682                       0.31341                      -0.94846
                      -0.06528                       0.31411                      -0.94714
                      -0.07924                       0.31477                      -0.94585
                      -0.09293                       0.31558                      -0.94434
                      -0.10435                       0.31637                      -0.94288
                      -0.11283                       0.31700                      -0.94169
                      -0.11736                       0.31735                      -0.94102
                      -0.11737                       0.31735                      -0.94102
        </DataArray>
        <DataArray type="Float32" Name="OrientationZ" NumberOfComponents="3" format="ascii">
                      -0.00457                       0.95025                       0.31147
                      -0.00418                       0.95024                       0.31149
                      -0.00304                       0.95023                       0.31155
                      -0.00148                       0.95020                       0.31164
                       0.00110                       0.95015                       0.31179
                       0.00499                       0.95008                       0.31198
                       0.00978                       0.94999                       0.31212
                       0.01576                       0.94989                       0.31219
                       0.02326                       0.94974                       0.31216
                       0.03263                       0.94953                       0.31197
                       0.04427                       0.94922                       0.31149
                       0.05784                       0.94876                       0.31065
                       0.07283                       0.94813                       0.30942
                       0.08822                       0.94733                       0.30787
                       0.10246                       0.94644                       0.30620
                       0.11167                       0.94579                       0.30498
                       0.11608                       0.94546                       0.30436
                       0.11785                       0.94532                       0.30410
                       0.11764                       0.94534                       0.30414
        </DataArray>
      </PointData>
      <Lines>
        <DataArray type="Int32" Name="connectivity" format="ascii">
      0      1
      1      2
      2      3
      3      4
      4      5
      5      6
      6      7
      7      8
      8      9
      9     10
     10     11
     11     12
     12     13
     13     14
     14     15
     15     16
     16     17
     17     18
        </DataArray>
        <DataArray type="Int32" Name="offsets" format="ascii">
      2
      4
      6
      8
     10
     12
     14
     16
     18
     20
     22
     24
     26
     28
     30
     32
     34
     36
        </DataArray>
      </Lines>
    </Piece>
  </PolyData>
</VTKFile>
