<?xml version="1.0"?>
<VTKFile type="PolyData" version="0.1" byte_order="LittleEndian">
  <PolyData>
    <Piece NumberOfPoints="     19" NumberOfVerts="  0" NumberOfLines="     18"
           NumberOfStrips="  0" NumberOfPolys="      0">
      <Points>
        <DataArray type="Float32" NumberOfComponents="3" format="ascii">
                       2.95690                      -1.52136                      90.26377
                       2.90922                      -2.88349                      90.36483
                       2.78113                      -5.61353                      90.47503
                       2.64091                      -8.34651                      90.53914
                       2.46425                     -11.76478                      90.58776
                       2.33693                     -15.85949                      90.77166
                       2.26996                     -19.94751                      91.06915
                       2.22669                     -24.03663                      91.35616
                       2.21593                     -28.12674                      91.63311
                       2.24403                     -32.21767                      91.89725
                       2.31204                     -36.30917                      92.14605
                       2.43321                     -40.40046                      92.37890
                       2.61372                     -44.49050                      92.59604
                       2.85637                     -48.57818                      92.79843
                       3.16064                     -52.66248                      92.98760
                       3.45317                     -56.06343                      93.13751
                       3.70702                     -58.78229                      93.26174
                       3.97096                     -61.49833                      93.43979
                       4.09709                     -62.85831                      93.48756
        </DataArray>
      </Points>
      <PointData>
        <DataArray type="Float32" Name="Force" NumberOfComponents="3" format="ascii">
                       0.82778                       0.48522                       6.67289
                      90.51231                      -0.97832                      27.36187
                     116.05836                       1.22361                      65.41102
                     105.25508                       3.25401                      84.98030
                     770.88862                     -53.77013                    -424.58354
                     989.96106                     -59.07917                    -479.34005
                    1151.62887                     -56.21001                    -485.65859
                    1484.44384                     -56.48250                    -561.04444
                    1619.05726                     -41.86876                    -543.75927
                    1870.01472                     -24.11980                    -575.52794
                    2305.12220                       4.69826                    -648.64718
                    2630.72820                      47.89579                    -687.61385
                    3074.26853                     106.87077                    -774.48531
                    3349.23686                     172.85344                    -800.32648
                    3586.48034                     239.64012                    -813.91651
                    3715.20337                     284.34720                    -802.23313
                    3626.26967                     294.27019                    -747.09182
                    2673.63451                     220.96911                    -537.30318
                    1270.41217                     110.70973                    -149.66469
        </DataArray>
        <DataArray type="Float32" Name="Moment" NumberOfComponents="3" format="ascii">
                       0.00000                       0.00000                       0.00000
                       0.00000                       0.00000                       0.00000
                       0.00000                       0.00000                       0.00000
                       0.00000                       0.00000                       0.00000
                       7.20267                     259.07260                     -19.73207
                      11.84485                     513.14330                     -38.78278
                      11.21961                     650.71400                     -48.70873
                       8.97621                     889.29452                     -65.77890
                       1.64264                    1189.43948                     -86.69432
                     -11.98923                    1312.80861                     -93.97409
                     -30.08737                    1383.90478                     -96.89878
                     -52.37859                    1453.19393                     -99.17190
                     -65.54065                    1273.29683                     -84.45784
                     -84.72900                    1264.61882                     -81.44647
                     -98.95544                    1221.09536                     -76.51683
                    -103.89460                    1156.55067                     -71.21073
                     -95.78059                    1021.82397                     -62.42058
                     -48.44074                     510.46734                     -31.10967
                     -40.95649                     434.17119                     -26.49020
        </DataArray>
        <DataArray type="Float32" Name="TranslationalVelocity" NumberOfComponents="3" format="ascii">
                      -0.78696                      -0.04741                      -1.42512
                      -0.94477                      -0.13527                      -2.68378
                      -1.25927                      -0.22238                      -5.20668
                      -1.57248                      -0.26563                      -7.73166
                      -1.96201                      -0.29064                     -10.88832
                      -2.42781                      -0.44629                     -14.66594
                      -2.89098                      -0.71342                     -18.43360
                      -3.34968                      -0.97338                     -22.19910
                      -3.80286                      -1.22749                     -25.96249
                      -4.24905                      -1.47384                     -29.72398
                      -4.68745                      -1.71012                     -33.48394
                      -5.11538                      -1.93697                     -37.24182
                      -5.53098                      -2.15493                     -40.99704
                      -5.93298                      -2.36479                     -44.74894
                      -6.32120                      -2.56750                     -48.49688
                      -6.63555                      -2.73223                     -51.61731
                      -6.88228                      -2.86934                     -54.11171
                      -7.12784                      -3.05664                     -56.60344
                      -7.25006                      -3.11184                     -57.85120
        </DataArray>
        <DataArray type="Float32" Name="RotationalVelocity" NumberOfComponents="3" format="ascii">
                       0.92357                      -0.01647                      -0.11473
                       0.92346                      -0.01646                      -0.11463
                       0.92318                      -0.01643                      -0.11435
                       0.92286                      -0.01639                      -0.11399
                       0.92237                      -0.01633                      -0.11341
                       0.92172                      -0.01624                      -0.11257
                       0.92104                      -0.01615                      -0.11160
                       0.92040                      -0.01603                      -0.11044
                       0.91984                      -0.01590                      -0.10900
                       0.91939                      -0.01575                      -0.10720
                       0.91909                      -0.01556                      -0.10494
                       0.91889                      -0.01535                      -0.10226
                       0.91880                      -0.01512                      -0.09924
                       0.91877                      -0.01487                      -0.09608
                       0.91879                      -0.01464                      -0.09309
                       0.91882                      -0.01449                      -0.09109
                       0.91884                      -0.01441                      -0.09008
                       0.91885                      -0.01438                      -0.08959
                       0.91886                      -0.01437                      -0.08957
        </DataArray>
        <DataArray type="Float32" Name="TranslationalAcceleration" NumberOfComponents="3" format="ascii">
                      -0.44351                       1.25000                      -0.16917
                      -0.41875                       2.42647                      -0.29919
                      -0.36186                       4.78692                      -0.46857
                      -0.31097                       7.14947                      -0.56771
                      -0.26859                      10.10098                      -0.60987
                      -0.28226                      13.63159                      -0.68397
                      -0.38040                      17.15902                      -0.74712
                      -0.55598                      20.68906                      -0.68796
                      -0.79963                      24.21967                      -0.51383
                      -1.08367                      27.74829                      -0.23585
                      -1.36754                      31.27339                       0.12436
                      -1.59880                      34.79344                       0.55690
                      -1.71399                      38.31036                       1.04240
                      -1.65169                      41.82960                       1.56271
                      -1.36523                      45.35903                       2.10164
                      -0.94737                      48.31312                       2.55523
                      -0.49807                      50.68795                       2.90940
                       0.02664                      53.07880                       3.21042
                       0.30414                      54.26887                       3.39543
        </DataArray>
        <DataArray type="Float32" Name="OrientationX" NumberOfComponents="3" format="ascii">
                       0.93694                      -0.05889                      -0.34450
                       0.93696                      -0.05836                      -0.34454
                       0.93701                      -0.05687                      -0.34465
                       0.93707                      -0.05485                      -0.34481
                       0.93717                      -0.05147                      -0.34505
                       0.94792                      -0.04452                      -0.31539
                       0.95510                      -0.03699                      -0.29396
                       0.96096                      -0.02836                      -0.27524
                       0.96667                      -0.01813                      -0.25539
                       0.97200                      -0.00613                      -0.23491
                       0.97646                       0.00784                      -0.21556
                       0.98026                       0.02342                      -0.19634
                       0.98305                       0.03994                      -0.17895
                       0.98454                       0.05624                      -0.16587
                       0.98569                       0.07096                      -0.15289
                       0.98663                       0.08028                      -0.14185
                       0.98743                       0.08457                      -0.13351
                       0.98791                       0.08593                      -0.12900
                       0.98797                       0.08538                      -0.12897
        </DataArray>
        <DataArray type="Float32" Name="OrientationY" NumberOfComponents="3" format="ascii">
                       0.34780                       0.06003                       0.93565
                       0.34779                       0.05984                       0.93566
                       0.34778                       0.05938                       0.93570
                       0.34776                       0.05881                       0.93574
                       0.34773                       0.05796                       0.93580
                       0.31763                       0.05832                       0.94642
                       0.29572                       0.05802                       0.95351
                       0.27646                       0.05744                       0.95931
                       0.25601                       0.05672                       0.96501
                       0.23488                       0.05584                       0.97042
                       0.21482                       0.05479                       0.97512
                       0.19489                       0.05353                       0.97936
                       0.17680                       0.05210                       0.98287
                       0.16311                       0.05070                       0.98530
                       0.14963                       0.04924                       0.98752
                       0.13832                       0.04801                       0.98922
                       0.12988                       0.04713                       0.99041
                       0.12534                       0.04666                       0.99102
                       0.12534                       0.04666                       0.99102
        </DataArray>
        <DataArray type="Float32" Name="OrientationZ" NumberOfComponents="3" format="ascii">
                      -0.03441                      -0.99646                       0.07673
                      -0.03399                      -0.99650                       0.07637
                      -0.03275                      -0.99661                       0.07542
                      -0.03104                      -0.99676                       0.07418
                      -0.02817                      -0.99699                       0.07222
                      -0.02374                      -0.99730                       0.06943
                      -0.01822                      -0.99763                       0.06635
                      -0.01139                      -0.99795                       0.06303
                      -0.00301                      -0.99823                       0.05947
                       0.00717                      -0.99842                       0.05571
                       0.01945                      -0.99847                       0.05181
                       0.03345                      -0.99829                       0.04791
                       0.04858                      -0.99784                       0.04416
                       0.06382                      -0.99713                       0.04074
                       0.07760                      -0.99626                       0.03792
                       0.08622                      -0.99562                       0.03627
                       0.09005                      -0.99530                       0.03555
                       0.09118                      -0.99521                       0.03532
                       0.09063                      -0.99526                       0.03540
        </DataArray>
      </PointData>
      <Lines>
        <DataArray type="Int32" Name="connectivity" format="ascii">
      0      1
      1      2
      2      3
      3      4
      4      5
      5      6
      6      7
      7      8
      8      9
      9     10
     10     11
     11     12
     12     13
     13     14
     14     15
     15     16
     16     17
     17     18
        </DataArray>
        <DataArray type="Int32" Name="offsets" format="ascii">
      2
      4
      6
      8
     10
     12
     14
     16
     18
     20
     22
     24
     26
     28
     30
     32
     34
     36
        </DataArray>
      </Lines>
    </Piece>
  </PolyData>
</VTKFile>
