<?xml version="1.0"?>
<VTKFile type="PolyData" version="0.1" byte_order="LittleEndian">
  <PolyData>
    <Piece NumberOfPoints="     19" NumberOfVerts="  0" NumberOfLines="     18"
           NumberOfStrips="  0" NumberOfPolys="      0">
      <Points>
        <DataArray type="Float32" NumberOfComponents="3" format="ascii">
                       2.34981                      -2.95134                      88.60811
                       2.00377                      -6.14556                      86.94540
                       1.66530                      -9.33849                      85.27868
                       1.33743                     -12.52973                      83.60660
                       1.02279                     -15.71903                      81.92831
                       0.72426                     -18.90627                      80.24317
                       0.44528                     -22.09132                      78.55058
                       0.19004                     -25.27404                      76.84989
                      -0.03646                     -28.45425                      75.14050
                      -0.22872                     -31.63176                      73.42193
                      -0.38114                     -34.80632                      71.69395
                      -0.48877                     -37.97764                      69.95670
                      -0.54818                     -41.14544                      68.21073
                      -0.55868                     -44.30952                      66.45701
                      -0.52371                     -47.46996                      64.69696
                      -0.45241                     -50.62738                      62.93245
                      -0.36156                     -53.78312                      61.16575
                      -0.31387                     -55.36079                      60.28216
                       2.52430                      -1.35398                      89.43866
        </DataArray>
      </Points>
      <PointData>
        <DataArray type="Float32" Name="TranslationalVelocity" NumberOfComponents="3" format="ascii">
                      -0.64541                       1.41016                      -2.74252
                      -0.97824                       2.99734                      -5.72237
                      -1.31255                       4.58656                      -8.69896
                      -1.64903                       6.17850                     -11.67128
                      -1.98836                       7.77351                     -14.63871
                      -2.33110                       9.37178                     -17.60094
                      -2.67762                      10.97346                     -20.55783
                      -3.02805                      12.57869                     -23.50932
                      -3.38224                      14.18748                     -26.45545
                      -3.73983                      15.79969                     -29.39633
                      -4.10017                      17.41496                     -32.33205
                      -4.46242                      19.03266                     -35.26269
                      -4.82557                      20.65200                     -38.18837
                      -5.18851                      22.27215                     -41.10924
                      -5.55015                      23.89239                     -44.02574
                      -5.90952                      25.51226                     -46.93880
                      -6.26593                      27.13190                     -49.85010
                      -6.44333                      27.94172                     -51.30558
                      -0.47928                       0.61698                      -1.25193
        </DataArray>
        <DataArray type="Float32" Name="RotationalVelocity" NumberOfComponents="3" format="ascii">
                       0.93230                      -0.00779                      -0.10805
                       0.93181                      -0.00758                      -0.10834
                       0.93110                      -0.00726                      -0.10881
                       0.93025                      -0.00684                      -0.10945
                       0.92932                      -0.00632                      -0.11026
                       0.92836                      -0.00573                      -0.11118
                       0.92742                      -0.00511                      -0.11217
                       0.92651                      -0.00450                      -0.11316
                       0.92568                      -0.00392                      -0.11410
                       0.92494                      -0.00341                      -0.11492
                       0.92430                      -0.00301                      -0.11556
                       0.92377                      -0.00273                      -0.11598
                       0.92334                      -0.00260                      -0.11615
                       0.92301                      -0.00262                      -0.11605
                       0.92280                      -0.00278                      -0.11568
                       0.92270                      -0.00308                      -0.11508
                       0.92274                      -0.00348                      -0.11432
                       0.92279                      -0.00370                      -0.11391
                       0.93249                      -0.00786                      -0.10795
        </DataArray>
        <DataArray type="Float32" Name="TranslationalAcceleration" NumberOfComponents="3" format="ascii">
                       1.36578                       2.68806                       1.48500
                       1.50888                       5.55307                       2.87335
                       1.66166                       8.41928                       4.24982
                       1.82859                      11.28703                       5.61092
                       2.01390                      14.15662                       6.95434
                       2.22099                      17.02833                       8.27902
                       2.45179                      19.90240                       9.58492
                       2.70646                      22.77906                      10.87288
                       2.98331                      25.65855                      12.14438
                       3.27885                      28.54106                      13.40123
                       3.58790                      31.42666                      14.64535
                       3.90393                      34.31519                      15.87852
                       4.21961                      37.20613                      17.10234
                       4.52738                      40.09856                      18.31832
                       4.82036                      42.99127                      19.52803
                       5.09330                      45.88309                      20.73350
                       5.34375                      48.77326                      21.93766
                       5.46326                      50.21787                      22.53986
                       1.29608                       1.25580                       0.78835
        </DataArray>
        <DataArray type="Float32" Name="RotationalAcceleration" NumberOfComponents="3" format="ascii">
                       0.03151                       0.05031                       0.00886
                       0.03464                       0.04907                       0.01057
                       0.03908                       0.04714                       0.01335
                       0.04444                       0.04456                       0.01718
                       0.05029                       0.04143                       0.02198
                       0.05628                       0.03792                       0.02745
                       0.06217                       0.03430                       0.03319
                       0.06773                       0.03080                       0.03875
                       0.07277                       0.02768                       0.04368
                       0.07720                       0.02518                       0.04756
                       0.08095                       0.02350                       0.05000
                       0.08401                       0.02278                       0.05075
                       0.08639                       0.02308                       0.04967
                       0.08811                       0.02438                       0.04681
                       0.08918                       0.02653                       0.04243
                       0.08959                       0.02927                       0.03707
                       0.08929                       0.03219                       0.03152
                       0.08896                       0.03363                       0.02882
                       0.03031                       0.05075                       0.00827
        </DataArray>
        <DataArray type="Float32" Name="OrientationX" NumberOfComponents="3" format="ascii">
                       0.94023                       0.07052                      -0.33316
                       0.94040                       0.07215                      -0.33232
                       0.94067                       0.07469                      -0.33099
                       0.94527                       0.07174                      -0.31830
                       0.95493                       0.06115                      -0.29048
                       0.96024                       0.05749                      -0.27320
                       0.96535                       0.05461                      -0.25517
                       0.97045                       0.05234                      -0.23557
                       0.97527                       0.05120                      -0.21499
                       0.97958                       0.05176                      -0.19430
                       0.98344                       0.05371                      -0.17307
                       0.98672                       0.05710                      -0.15204
                       0.98906                       0.06256                      -0.13356
                       0.99082                       0.06843                      -0.11658
                       0.99229                       0.07279                      -0.10035
                       0.99354                       0.07414                      -0.08587
                       0.99434                       0.07245                      -0.07775
                       0.99460                       0.07079                      -0.07588
                       0.94017                       0.06998                      -0.33344
        </DataArray>
        <DataArray type="Float32" Name="OrientationY" NumberOfComponents="3" format="ascii">
                       0.32660                      -0.46386                       0.82351
                       0.32656                      -0.46416                       0.82336
                       0.32652                      -0.46456                       0.82315
                       0.31392                      -0.46600                       0.82723
                       0.28443                      -0.46855                       0.83640
                       0.26745                      -0.47011                       0.84111
                       0.25018                      -0.47162                       0.84557
                       0.23184                      -0.47312                       0.84995
                       0.21318                      -0.47457                       0.85402
                       0.19524                      -0.47594                       0.85753
                       0.17752                      -0.47728                       0.86063
                       0.16070                      -0.47858                       0.86321
                       0.14715                      -0.47972                       0.86499
                       0.13514                      -0.48078                       0.86636
                       0.12309                      -0.48186                       0.86756
                       0.11111                      -0.48289                       0.86860
                       0.10320                      -0.48353                       0.86922
                       0.10075                      -0.48371                       0.86941
                       0.32661                      -0.46374                       0.82357
        </DataArray>
        <DataArray type="Float32" Name="OrientationZ" NumberOfComponents="3" format="ascii">
                      -0.09647                      -0.88310                      -0.45917
                      -0.09484                      -0.88281                      -0.46005
                      -0.09228                      -0.88239                      -0.46139
                      -0.08899                      -0.88187                      -0.46301
                      -0.08496                      -0.88132                      -0.46482
                      -0.08008                      -0.88073                      -0.46679
                      -0.07416                      -0.88011                      -0.46894
                      -0.06697                      -0.87944                      -0.47127
                      -0.05830                      -0.87873                      -0.47375
                      -0.04808                      -0.87795                      -0.47632
                      -0.03637                      -0.87711                      -0.47892
                      -0.02347                      -0.87618                      -0.48141
                      -0.00996                      -0.87519                      -0.48368
                       0.00324                      -0.87416                      -0.48562
                       0.01479                      -0.87322                      -0.48710
                       0.02294                      -0.87254                      -0.48801
                       0.02537                      -0.87232                      -0.48827
                       0.02485                      -0.87236                      -0.48823
                      -0.09700                      -0.88320                      -0.45885
        </DataArray>
      </PointData>
      <Lines>
        <DataArray type="Int32" Name="connectivity" format="ascii">
      0      1
      1      2
      2      3
      3      4
      4      5
      5      6
      6      7
      7      8
      8      9
      9     10
     10     11
     11     12
     12     13
     13     14
     14     15
     15     16
     16     17
     18      0
        </DataArray>
        <DataArray type="Int32" Name="offsets" format="ascii">
      2
      4
      6
      8
     10
     12
     14
     16
     18
     20
     22
     24
     26
     28
     30
     32
     34
     36
        </DataArray>
      </Lines>
    </Piece>
  </PolyData>
</VTKFile>
