<?xml version="1.0"?>
<VTKFile type="PolyData" version="0.1" byte_order="LittleEndian">
  <PolyData>
    <Piece NumberOfPoints="     19" NumberOfVerts="  0" NumberOfLines="     18"
           NumberOfStrips="  0" NumberOfPolys="      0">
      <Points>
        <DataArray type="Float32" NumberOfComponents="3" format="ascii">
                       2.80842                      -1.03268                      89.04414
                       2.62865                      -1.96599                      88.06205
                       2.23993                      -3.76236                      86.03633
                       1.83975                      -5.52387                      83.97970
                       1.33673                      -7.70253                      81.38778
                       0.80754                     -10.41701                      78.36008
                       0.32733                     -13.22044                      75.40819
                      -0.13722                     -16.01885                      72.44897
                      -0.58035                     -18.81363                      69.48292
                      -0.99974                     -21.60357                      66.50875
                      -1.39686                     -24.38696                      63.52528
                      -1.76558                     -27.16470                      60.53279
                      -2.10488                     -29.93739                      57.53203
                      -2.41562                     -32.70574                      54.52405
                      -2.69902                     -35.47047                      51.50992
                      -2.91924                     -37.77247                      48.99477
                      -3.08817                     -39.61904                      46.98651
                      -3.25414                     -41.50638                      45.01466
                      -3.34158                     -42.41902                      44.00122
        </DataArray>
      </Points>
      <PointData>
        <DataArray type="Float32" Name="Force" NumberOfComponents="3" format="ascii">
                       0.38282                      -3.37024                       3.15108
                      63.86021                     -24.96279                      12.21026
                      92.07755                     -55.42583                      36.29060
                      87.35651                     -68.82621                      50.09403
                     706.19002                     198.22662                    -313.72323
                     900.71266                     209.70141                    -354.58344
                    1031.25041                     195.83521                    -357.62394
                    1293.50381                     205.29076                    -401.07154
                    1334.88452                     170.23971                    -363.53987
                    1434.16638                     150.99135                    -347.22108
                    1630.50217                     132.75988                    -341.36479
                    1640.84983                      99.85505                    -293.97189
                    1691.54108                      79.44734                    -262.48844
                    1534.50247                      43.24640                    -195.14481
                    1293.18278                      12.14350                    -130.35628
                    1576.07292                      16.54042                    -152.91321
                    1787.51228                      18.92193                    -170.69929
                    1420.84347                      14.74074                    -135.81591
                    1403.72656                      11.33562                    -132.42340
        </DataArray>
        <DataArray type="Float32" Name="Moment" NumberOfComponents="3" format="ascii">
                       0.00000                       0.00000                       0.00000
                       0.00000                       0.00000                       0.00000
                       0.00000                       0.00000                       0.00000
                       0.00000                       0.00000                       0.00000
                      27.48941                     149.00297                     156.02638
                      55.64331                     309.74804                     324.53078
                      68.91822                     396.79503                     416.01907
                      91.56135                     549.44144                     576.53106
                     117.98774                     744.38639                     781.82380
                     122.80821                     822.71038                     865.00955
                     120.98085                     870.58232                     916.43296
                     116.74368                     912.22068                     961.48201
                      84.41671                     722.74458                     762.75534
                      73.67043                     693.74264                     733.04189
                      64.06061                     658.84089                     696.88023
                      61.58266                     668.01077                     706.98892
                      55.27731                     610.78882                     646.55325
                      28.50426                     313.89883                     332.26735
                      29.74088                     324.07724                     343.00344
        </DataArray>
        <DataArray type="Float32" Name="TranslationalVelocity" NumberOfComponents="3" format="ascii">
                       0.03123                       0.97989                      -0.94025
                      -0.07516                       1.91379                      -1.80829
                      -0.27731                       3.84325                      -3.48042
                      -0.46533                       5.80657                      -5.12513
                      -0.67616                       8.28811                      -7.16932
                      -0.90222                      11.19294                      -9.73252
                      -1.08490                      14.03597                     -12.40096
                      -1.19873                      16.89976                     -15.08946
                      -1.22332                      19.78471                     -17.80243
                      -1.13184                      22.69322                     -20.54206
                      -0.90999                      25.62574                     -23.30599
                      -0.51270                      28.58433                     -26.10003
                       0.08953                      31.56852                     -28.92460
                       0.91570                      34.57686                     -31.77801
                       1.96513                      37.60703                     -34.65583
                       2.98581                      40.14509                     -37.06818
                       3.87705                      42.17594                     -39.01066
                       4.78816                      44.17087                     -40.99702
                       5.24842                      45.19586                     -41.95993
        </DataArray>
        <DataArray type="Float32" Name="RotationalVelocity" NumberOfComponents="3" format="ascii">
                       0.92968                       0.00266                      -0.11281
                       0.93041                       0.00179                      -0.11211
                       0.93239                      -0.00075                      -0.11004
                       0.93498                      -0.00426                      -0.10716
                       0.93911                      -0.01011                      -0.10232
                       0.94494                      -0.01899                      -0.09490
                       0.95139                      -0.03013                      -0.08544
                       0.95852                      -0.04426                      -0.07324
                       0.96642                      -0.06236                      -0.05739
                       0.97506                      -0.08534                      -0.03700
                       0.98434                      -0.11438                      -0.01094
                       0.99383                      -0.14867                       0.02010
                       1.00306                      -0.18697                       0.05501
                       1.01153                      -0.22674                       0.09148
                       1.01858                      -0.26391                       0.12571
                       1.02274                      -0.28826                       0.14823
                       1.02465                      -0.30010                       0.15919
                       1.02542                      -0.30511                       0.16384
                       1.02537                      -0.30473                       0.16349
        </DataArray>
        <DataArray type="Float32" Name="TranslationalAcceleration" NumberOfComponents="3" format="ascii">
                       0.84036                       0.79646                       0.90961
                       0.92224                       1.69730                       1.70535
                       1.08180                       3.42428                       3.37919
                       1.21097                       5.06425                       5.14843
                       1.30208                       6.98715                       7.49805
                       1.26128                       9.21231                      10.44089
                       1.01642                      11.32823                      13.58297
                       0.56618                      13.25190                      17.00507
                      -0.03043                      15.00140                      20.68965
                      -0.64422                      16.60413                      24.60498
                      -1.11457                      18.10265                      28.69647
                      -1.20248                      19.52338                      32.94744
                      -0.64728                      20.90873                      37.32868
                       0.79273                      22.30020                      41.82219
                       3.28418                      23.73302                      46.41631
                       6.16496                      24.97115                      50.30700
                       8.96946                      26.00016                      53.44411
                      12.10773                      27.10295                      56.55673
                      13.70193                      27.60857                      58.12156
        </DataArray>
        <DataArray type="Float32" Name="OrientationX" NumberOfComponents="3" format="ascii">
                       0.94236                       0.13844                      -0.30462
                       0.94241                       0.13871                      -0.30433
                       0.94255                       0.13946                      -0.30355
                       0.94275                       0.14047                      -0.30248
                       0.94306                       0.14216                      -0.30071
                       0.95286                       0.12175                      -0.27792
                       0.95952                       0.10814                      -0.26005
                       0.96505                       0.09705                      -0.24342
                       0.97049                       0.08555                      -0.22545
                       0.97565                       0.07401                      -0.20648
                       0.98016                       0.06374                      -0.18769
                       0.98421                       0.05384                      -0.16864
                       0.98753                       0.04538                      -0.15073
                       0.98990                       0.03993                      -0.13604
                       0.99191                       0.03384                      -0.12233
                       0.99331                       0.02759                      -0.11211
                       0.99417                       0.02198                      -0.10555
                       0.99455                       0.01840                      -0.10265
                       0.99451                       0.01795                      -0.10313
        </DataArray>
        <DataArray type="Float32" Name="OrientationY" NumberOfComponents="3" format="ascii">
                       0.30787                      -0.71530                       0.62735
                       0.30784                      -0.71546                       0.62718
                       0.30777                      -0.71585                       0.62676
                       0.30768                      -0.71634                       0.62626
                       0.30754                      -0.71707                       0.62549
                       0.27711                      -0.72227                       0.63367
                       0.25493                      -0.72597                       0.63874
                       0.23542                      -0.72908                       0.64267
                       0.21472                      -0.73203                       0.64655
                       0.19334                      -0.73474                       0.65021
                       0.17304                      -0.73704                       0.65332
                       0.15285                      -0.73905                       0.65608
                       0.13451                      -0.74068                       0.65825
                       0.12057                      -0.74190                       0.65958
                       0.10684                      -0.74290                       0.66082
                       0.09535                      -0.74355                       0.66185
                       0.08679                      -0.74391                       0.66262
                       0.08220                      -0.74406                       0.66304
                       0.08219                      -0.74406                       0.66304
        </DataArray>
        <DataArray type="Float32" Name="OrientationZ" NumberOfComponents="3" format="ascii">
                      -0.13104                      -0.68497                      -0.71669
                      -0.13074                      -0.68475                      -0.71696
                      -0.12989                      -0.68418                      -0.71765
                      -0.12871                      -0.68347                      -0.71854
                      -0.12670                      -0.68235                      -0.71996
                      -0.12358                      -0.68081                      -0.72196
                      -0.11971                      -0.67918                      -0.72415
                      -0.11510                      -0.67752                      -0.72645
                      -0.10972                      -0.67588                      -0.72880
                      -0.10359                      -0.67430                      -0.73116
                      -0.09669                      -0.67283                      -0.73345
                      -0.08931                      -0.67150                      -0.73560
                      -0.08177                      -0.67032                      -0.73755
                      -0.07459                      -0.66932                      -0.73922
                      -0.06852                      -0.66854                      -0.74051
                      -0.06509                      -0.66811                      -0.74121
                      -0.06395                      -0.66792                      -0.74148
                      -0.06417                      -0.66786                      -0.74151
                      -0.06483                      -0.66788                      -0.74144
        </DataArray>
      </PointData>
      <Lines>
        <DataArray type="Int32" Name="connectivity" format="ascii">
      0      1
      1      2
      2      3
      3      4
      4      5
      5      6
      6      7
      7      8
      8      9
      9     10
     10     11
     11     12
     12     13
     13     14
     14     15
     15     16
     16     17
     17     18
        </DataArray>
        <DataArray type="Int32" Name="offsets" format="ascii">
      2
      4
      6
      8
     10
     12
     14
     16
     18
     20
     22
     24
     26
     28
     30
     32
     34
     36
        </DataArray>
      </Lines>
    </Piece>
  </PolyData>
</VTKFile>
