<?xml version="1.0"?>
<VTKFile type="PolyData" version="0.1" byte_order="LittleEndian">
  <PolyData>
    <Piece NumberOfPoints="     19" NumberOfVerts="  0" NumberOfLines="     18"
           NumberOfStrips="  0" NumberOfPolys="      0">
      <Points>
        <DataArray type="Float32" NumberOfComponents="3" format="ascii">
                       3.19692                       1.34383                      90.76325
                       3.20808                       2.58989                      91.32458
                       3.22008                       5.04256                      92.53543
                       3.23015                       7.47661                      93.78805
                       3.24660                      10.50810                      95.37889
                       3.31463                      14.20582                      97.15246
                       3.40843                      17.95702                      98.80539
                       3.52071                      21.70883                     100.45576
                       3.65913                      25.46186                     102.10138
                       3.83005                      29.21506                     103.74352
                       4.03580                      32.96673                     105.38508
                       4.28878                      36.71695                     107.02326
                       4.59557                      40.46524                     108.65665
                       4.95980                      44.21103                     110.28391
                       5.38228                      47.95380                     111.90403
                       5.77204                      51.07059                     113.24896
                       6.10186                      53.56601                     114.31489
                       6.43002                      56.08382                     115.33036
                       6.59853                      57.32550                     115.87579
        </DataArray>
      </Points>
      <PointData>
        <DataArray type="Float32" Name="Force" NumberOfComponents="3" format="ascii">
                      -0.03530                       0.12388                      -0.27619
                      66.29354                       9.10933                     -21.73652
                      77.14383                      21.86325                     -50.68959
                      65.13978                      28.73028                     -66.02741
                     687.92190                     -81.93446                     160.83063
                     950.92170                    -113.12367                     213.78589
                    1069.45035                    -100.07731                     168.06972
                    1347.35682                    -105.73849                     147.92042
                    1451.36784                     -97.35648                      97.45113
                    1675.10821                    -105.94757                      62.29410
                    2082.69323                    -131.09053                      20.52458
                    2417.17148                    -162.87530                     -27.46498
                    2868.69532                    -222.22167                     -66.57657
                    3217.54469                    -280.83671                    -118.47982
                    3569.41283                    -345.52944                    -173.46861
                    3813.13282                    -389.31690                    -222.41870
                    3811.34903                    -392.52291                    -254.58801
                    2829.67853                    -290.98690                    -201.97280
                    1144.95191                     -69.12984                    -193.75403
        </DataArray>
        <DataArray type="Float32" Name="Moment" NumberOfComponents="3" format="ascii">
                       0.00000                       0.00000                       0.00000
                       0.00000                       0.00000                       0.00000
                       0.00000                       0.00000                       0.00000
                       0.00000                       0.00000                       0.00000
                      -2.62860                    -179.07888                     -79.98760
                      -6.05629                    -324.59019                    -144.81676
                     -11.02434                    -467.89543                    -208.45954
                     -19.72394                    -665.19022                    -295.84172
                     -33.98624                    -911.59121                    -404.53888
                     -47.91390                   -1024.01277                    -453.18405
                     -63.81612                   -1089.08035                    -480.33681
                     -83.11380                   -1148.39341                    -504.47449
                     -89.54037                   -1021.98564                    -446.95450
                    -106.21078                   -1028.04646                    -447.54234
                    -118.58168                   -1006.04592                    -436.09315
                    -121.92776                    -957.70190                    -413.98138
                    -112.55356                    -853.81953                    -368.58439
                     -57.44354                    -429.87038                    -185.47102
                     -47.41957                    -355.47891                    -153.38483
        </DataArray>
        <DataArray type="Float32" Name="TranslationalVelocity" NumberOfComponents="3" format="ascii">
                       0.26030                      -0.60992                       1.30050
                       0.41078                      -1.12890                       2.44956
                       0.70752                      -2.24619                       4.71002
                       1.00199                      -3.39921                       6.94901
                       1.36806                      -4.85929                       9.72989
                       1.81229                      -6.48585                      13.10899
                       2.25940                      -7.99779                      16.52084
                       2.70087                      -9.50220                      19.91656
                       3.13176                     -10.99797                      23.29695
                       3.54458                     -12.48697                      26.66201
                       3.93336                     -13.97276                      30.01314
                       4.28596                     -15.45314                      33.35121
                       4.59249                     -16.92703                      36.67880
                       4.84534                     -18.39296                      39.99886
                       5.04170                     -19.84963                      43.31434
                       5.16635                     -21.05656                      46.07577
                       5.24486                     -22.01175                      48.28767
                       5.31608                     -22.92142                      50.51992
                       5.34887                     -23.40966                      51.62105
        </DataArray>
        <DataArray type="Float32" Name="RotationalVelocity" NumberOfComponents="3" format="ascii">
                       0.92285                       0.00535                      -0.11835
                       0.92220                       0.00536                      -0.11835
                       0.92060                       0.00534                      -0.11827
                       0.91862                       0.00529                      -0.11812
                       0.91563                       0.00519                      -0.11785
                       0.91155                       0.00502                      -0.11737
                       0.90723                       0.00465                      -0.11647
                       0.90287                       0.00392                      -0.11475
                       0.89864                       0.00261                      -0.11175
                       0.89468                       0.00053                      -0.10701
                       0.89117                      -0.00258                      -0.09998
                       0.88822                      -0.00666                      -0.09081
                       0.88592                      -0.01158                      -0.07977
                       0.88430                      -0.01700                      -0.06762
                       0.88336                      -0.02236                      -0.05562
                       0.88304                      -0.02613                      -0.04719
                       0.88300                      -0.02819                      -0.04258
                       0.88308                      -0.02938                      -0.03994
                       0.88315                      -0.02959                      -0.03947
        </DataArray>
        <DataArray type="Float32" Name="TranslationalAcceleration" NumberOfComponents="3" format="ascii">
                      -1.45706                      -1.24684                      -0.89536
                      -1.54341                      -2.31463                      -1.39564
                      -1.72533                      -4.40511                      -2.48059
                      -1.88863                      -6.44804                      -3.63413
                      -2.04482                      -8.93558                      -5.15523
                      -2.11139                     -11.89802                      -6.97043
                      -2.03342                     -14.82585                      -8.81977
                      -1.83332                     -17.66287                     -10.80542
                      -1.52831                     -20.41194                     -12.92713
                      -1.15649                     -23.07562                     -15.18218
                      -0.77039                     -25.66491                     -17.55198
                      -0.43113                     -28.17737                     -20.03475
                      -0.21185                     -30.61939                     -22.61039
                      -0.18125                     -32.99756                     -25.25378
                      -0.39016                     -35.31928                     -27.93670
                      -0.75532                     -37.21900                     -30.18316
                      -1.16977                     -38.72598                     -31.97421
                      -1.66248                     -40.26344                     -33.72838
                      -1.92539                     -41.00266                     -34.62608
        </DataArray>
        <DataArray type="Float32" Name="OrientationX" NumberOfComponents="3" format="ascii">
                       0.99323                      -0.05467                       0.10252
                       0.99322                      -0.05501                       0.10237
                       0.99321                      -0.05599                       0.10193
                       0.99320                      -0.05733                       0.10133
                       0.99317                      -0.05955                       0.10034
                       0.99630                      -0.04998                       0.06984
                       0.99789                      -0.04477                       0.04704
                       0.99878                      -0.04173                       0.02642
                       0.99921                      -0.03952                       0.00418
                       0.99907                      -0.03863                      -0.01934
                       0.99828                      -0.04015                      -0.04262
                       0.99685                      -0.04337                      -0.06644
                       0.99484                      -0.04857                      -0.08902
                       0.99261                      -0.05597                      -0.10762
                       0.99012                      -0.06247                      -0.12555
                       0.98805                      -0.06560                      -0.13949
                       0.98666                      -0.06583                      -0.14892
                       0.98594                      -0.06543                      -0.15374
                       0.98597                      -0.06524                      -0.15366
        </DataArray>
        <DataArray type="Float32" Name="OrientationY" NumberOfComponents="3" format="ascii">
                       0.11591                       0.40479                      -0.90704
                       0.11591                       0.40473                      -0.90706
                       0.11591                       0.40461                      -0.90711
                       0.11590                       0.40446                      -0.90718
                       0.11590                       0.40422                      -0.90729
                       0.08416                       0.40565                      -0.91015
                       0.06121                       0.40640                      -0.91164
                       0.04115                       0.40693                      -0.91253
                       0.01993                       0.40746                      -0.91300
                      -0.00189                       0.40800                      -0.91298
                      -0.02252                       0.40852                      -0.91247
                      -0.04296                       0.40910                      -0.91148
                      -0.06143                       0.40971                      -0.91014
                      -0.07541                       0.41025                      -0.90885
                      -0.08912                       0.41092                      -0.90730
                      -0.10055                       0.41158                      -0.90581
                      -0.10903                       0.41212                      -0.90458
                      -0.11358                       0.41242                      -0.90389
                      -0.11358                       0.41242                      -0.90389
        </DataArray>
        <DataArray type="Float32" Name="OrientationZ" NumberOfComponents="3" format="ascii">
                       0.00809                       0.91278                       0.40838
                       0.00847                       0.91278                       0.40837
                       0.00955                       0.91277                       0.40835
                       0.01102                       0.91276                       0.40835
                       0.01347                       0.91272                       0.40836
                       0.01716                       0.91266                       0.40835
                       0.02170                       0.91260                       0.40828
                       0.02733                       0.91251                       0.40815
                       0.03438                       0.91237                       0.40793
                       0.04316                       0.91216                       0.40755
                       0.05404                       0.91187                       0.40691
                       0.06671                       0.91146                       0.40594
                       0.08068                       0.91092                       0.40462
                       0.09502                       0.91025                       0.40300
                       0.10827                       0.90953                       0.40130
                       0.11684                       0.90901                       0.40007
                       0.12092                       0.90875                       0.39945
                       0.12255                       0.90864                       0.39919
                       0.12234                       0.90865                       0.39922
        </DataArray>
      </PointData>
      <Lines>
        <DataArray type="Int32" Name="connectivity" format="ascii">
      0      1
      1      2
      2      3
      3      4
      4      5
      5      6
      6      7
      7      8
      8      9
      9     10
     10     11
     11     12
     12     13
     13     14
     14     15
     15     16
     16     17
     17     18
        </DataArray>
        <DataArray type="Int32" Name="offsets" format="ascii">
      2
      4
      6
      8
     10
     12
     14
     16
     18
     20
     22
     24
     26
     28
     30
     32
     34
     36
        </DataArray>
      </Lines>
    </Piece>
  </PolyData>
</VTKFile>
