<?xml version="1.0"?>
<VTKFile type="PolyData" version="0.1" byte_order="LittleEndian">
  <PolyData>
    <Piece NumberOfPoints="     19" NumberOfVerts="  0" NumberOfLines="     18"
           NumberOfStrips="  0" NumberOfPolys="      0">
      <Points>
        <DataArray type="Float32" NumberOfComponents="3" format="ascii">
                       2.84925                       1.36925                      89.51976
                       2.72326                       2.61857                      88.98014
                       2.45964                       5.15464                      87.98982
                       2.19090                       7.70844                      87.04135
                       1.85254                      10.91133                      85.88038
                       1.48482                      14.69864                      84.34933
                       1.12883                      18.43388                      82.69603
                       0.77291                      22.16775                      81.03965
                       0.41977                      25.89966                      79.37818
                       0.06940                      29.63037                      77.71347
                      -0.27892                      33.36139                      76.04911
                      -0.62356                      37.09217                      74.38348
                      -0.96459                      40.82273                      72.71666
                      -1.30246                      44.55307                      71.04875
                      -1.63564                      48.28331                      69.37975
                      -1.91041                      51.39181                      67.98820
                      -2.12989                      53.87530                      66.86753
                      -2.35630                      56.33632                      65.69705
                      -2.46561                      57.58375                      65.14971
        </DataArray>
      </Points>
      <PointData>
        <DataArray type="Float32" Name="Force" NumberOfComponents="3" format="ascii">
                      -0.03217                      -0.11904                      -0.26625
                      64.43554                      -3.38996                     -22.69732
                      77.10303                     -14.37021                     -50.83916
                      66.92872                     -22.66216                     -67.51367
                     718.73373                     138.10272                     152.49664
                     998.02921                     190.22010                     209.42488
                    1124.42860                     181.53459                     162.27881
                    1409.43391                     198.71666                     139.63285
                    1498.62296                     183.92213                      88.71885
                    1691.27783                     184.87027                      52.17581
                    2027.41375                     195.96543                       9.58247
                    2241.27692                     193.07561                     -36.11118
                    2543.74874                     201.89257                     -71.55257
                    2634.41461                     186.32427                    -116.96195
                    2658.84470                     164.77713                    -162.87338
                    2622.22722                     142.66190                    -200.83686
                    2472.52739                     119.21171                    -222.22772
                    1662.44196                      67.93368                    -176.96794
                    1207.56094                      28.27963                    -176.95496
        </DataArray>
        <DataArray type="Float32" Name="Moment" NumberOfComponents="3" format="ascii">
                       0.00000                       0.00000                       0.00000
                       0.00000                       0.00000                       0.00000
                       0.00000                       0.00000                       0.00000
                       0.00000                       0.00000                       0.00000
                      19.01762                    -190.48101                      82.86964
                      32.06425                    -322.93331                     140.51505
                      45.66020                    -462.90897                     201.45792
                      63.58069                    -649.67189                     282.79770
                      84.51236                    -871.69805                     379.54047
                      93.63042                    -976.62054                     425.35150
                      95.66056                   -1011.22610                     440.57897
                      98.05289                   -1052.43219                     458.71390
                      81.89318                    -893.70278                     389.69567
                      77.84612                    -864.04762                     376.92531
                      72.47632                    -817.04116                     356.55670
                      66.92556                    -761.93030                     332.58632
                      59.40796                    -679.32676                     296.56113
                      29.38024                    -336.40301                     146.86191
                      32.47661                    -371.62097                     162.23437
        </DataArray>
        <DataArray type="Float32" Name="TranslationalVelocity" NumberOfComponents="3" format="ascii">
                       0.18683                       0.55444                       1.27122
                       0.32779                       1.06891                       2.42939
                       0.61623                       2.01659                       4.77919
                       0.91484                       2.92576                       7.14147
                       1.30602                       4.03961                      10.09723
                       1.79880                       5.49822                      13.58155
                       2.32586                       7.06612                      17.00460
                       2.90005                       8.63485                      20.41198
                       3.52940                      10.20621                      23.80264
                       4.22291                      11.77900                      27.17687
                       4.98187                      13.35055                      30.53714
                       5.82165                      14.92235                      33.88073
                       6.74858                      16.49450                      37.20704
                       7.76433                      18.06695                      40.51598
                       8.86297                      19.63912                      43.80890
                       9.82906                      20.94885                      46.54305
                      10.62511                      22.00285                      48.72252
                      11.42194                      23.10258                      50.88053
                      11.82157                      23.61776                      51.97485
        </DataArray>
        <DataArray type="Float32" Name="RotationalVelocity" NumberOfComponents="3" format="ascii">
                       0.92760                      -0.00014                      -0.11172
                       0.92710                      -0.00056                      -0.11258
                       0.92589                      -0.00172                      -0.11496
                       0.92445                      -0.00326                      -0.11818
                       0.92231                      -0.00580                      -0.12351
                       0.91937                      -0.00957                      -0.13150
                       0.91612                      -0.01404                      -0.14102
                       0.91272                      -0.01922                      -0.15216
                       0.90926                      -0.02520                      -0.16510
                       0.90575                      -0.03204                      -0.18000
                       0.90213                      -0.03981                      -0.19703
                       0.89840                      -0.04829                      -0.21566
                       0.89459                      -0.05713                      -0.23510
                       0.89088                      -0.06577                      -0.25411
                       0.88756                      -0.07334                      -0.27076
                       0.88547                      -0.07789                      -0.28072
                       0.88455                      -0.07971                      -0.28470
                       0.88428                      -0.07998                      -0.28526
                       0.88442                      -0.07947                      -0.28412
        </DataArray>
        <DataArray type="Float32" Name="TranslationalAcceleration" NumberOfComponents="3" format="ascii">
                       0.47555                      -1.48650                       0.67307
                       0.46987                      -2.67052                       0.94621
                       0.47530                      -5.05287                       1.40953
                       0.54885                      -7.43241                       1.82780
                       0.78218                     -10.38980                       2.31786
                       1.32615                     -13.88199                       3.01184
                       2.22871                     -17.31308                       3.79288
                       3.53667                     -20.70508                       4.54507
                       5.29050                     -24.06110                       5.26502
                       7.51664                     -27.38675                       5.94611
                      10.17673                     -30.69133                       6.58591
                      13.31566                     -33.98131                       7.17751
                      16.90766                     -37.26648                       7.71937
                      20.89990                     -40.55597                       8.21377
                      25.20600                     -43.85907                       8.66873
                      28.94392                     -46.62408                       9.02751
                      31.97354                     -48.84179                       9.31423
                      34.95671                     -51.04947                       9.65051
                      36.42438                     -52.16175                       9.78703
        </DataArray>
        <DataArray type="Float32" Name="OrientationX" NumberOfComponents="3" format="ascii">
                       0.98837                       0.13218                       0.07515
                       0.98838                       0.13214                       0.07517
                       0.98839                       0.13202                       0.07522
                       0.98841                       0.13185                       0.07529
                       0.98843                       0.13158                       0.07541
                       0.99184                       0.11877                       0.04639
                       0.99369                       0.10925                       0.02552
                       0.99489                       0.10072                       0.00736
                       0.99573                       0.09156                      -0.01178
                       0.99614                       0.08197                      -0.03141
                       0.99611                       0.07264                      -0.04987
                       0.99568                       0.06321                      -0.06808
                       0.99494                       0.05443                      -0.08447
                       0.99418                       0.04744                      -0.09674
                       0.99323                       0.04066                      -0.10883
                       0.99226                       0.03523                      -0.11904
                       0.99144                       0.03140                      -0.12671
                       0.99097                       0.02943                      -0.13085
                       0.99096                       0.02947                      -0.13087
        </DataArray>
        <DataArray type="Float32" Name="OrientationY" NumberOfComponents="3" format="ascii">
                       0.12112                      -0.38564                      -0.91466
                       0.12112                      -0.38569                      -0.91465
                       0.12113                      -0.38579                      -0.91460
                       0.12115                      -0.38591                      -0.91455
                       0.12117                      -0.38609                      -0.91447
                       0.08960                      -0.39034                      -0.91630
                       0.06679                      -0.39323                      -0.91701
                       0.04684                      -0.39561                      -0.91722
                       0.02574                      -0.39792                      -0.91706
                       0.00402                      -0.40006                      -0.91648
                      -0.01653                      -0.40188                      -0.91554
                      -0.03690                      -0.40349                      -0.91424
                      -0.05535                      -0.40476                      -0.91275
                      -0.06933                      -0.40564                      -0.91140
                      -0.08307                      -0.40637                      -0.90992
                      -0.09455                      -0.40689                      -0.90857
                      -0.10308                      -0.40720                      -0.90750
                      -0.10765                      -0.40736                      -0.90690
                      -0.10765                      -0.40736                      -0.90690
        </DataArray>
        <DataArray type="Float32" Name="OrientationZ" NumberOfComponents="3" format="ascii">
                      -0.09192                       0.91313                      -0.39717
                      -0.09187                       0.91312                      -0.39721
                      -0.09172                       0.91309                      -0.39730
                      -0.09153                       0.91307                      -0.39741
                      -0.09121                       0.91303                      -0.39757
                      -0.09073                       0.91298                      -0.39780
                      -0.09015                       0.91292                      -0.39805
                      -0.08947                       0.91288                      -0.39831
                      -0.08865                       0.91284                      -0.39857
                      -0.08769                       0.91282                      -0.39884
                      -0.08654                       0.91280                      -0.39912
                      -0.08526                       0.91280                      -0.39941
                      -0.08387                       0.91280                      -0.39970
                      -0.08248                       0.91280                      -0.39999
                      -0.08123                       0.91280                      -0.40024
                      -0.08044                       0.91280                      -0.40041
                      -0.08009                       0.91280                      -0.40048
                      -0.07999                       0.91279                      -0.40051
                      -0.08004                       0.91279                      -0.40050
        </DataArray>
      </PointData>
      <Lines>
        <DataArray type="Int32" Name="connectivity" format="ascii">
      0      1
      1      2
      2      3
      3      4
      4      5
      5      6
      6      7
      7      8
      8      9
      9     10
     10     11
     11     12
     12     13
     13     14
     14     15
     15     16
     16     17
     17     18
        </DataArray>
        <DataArray type="Int32" Name="offsets" format="ascii">
      2
      4
      6
      8
     10
     12
     14
     16
     18
     20
     22
     24
     26
     28
     30
     32
     34
     36
        </DataArray>
      </Lines>
    </Piece>
  </PolyData>
</VTKFile>
