<?xml version="1.0"?>
<VTKFile type="PolyData" version="0.1" byte_order="LittleEndian">
  <PolyData>
    <Piece NumberOfPoints="     19" NumberOfVerts="  0" NumberOfLines="     18"
           NumberOfStrips="  0" NumberOfPolys="      0">
      <Points>
        <DataArray type="Float32" NumberOfComponents="3" format="ascii">
                       3.27153                      -1.63898                      93.00313
                       3.50511                      -3.41626                      96.14544
                       3.74606                      -5.19583                      99.28589
                       3.99728                      -6.97846                     102.42379
                       4.26127                      -8.76458                     105.55866
                       4.54067                     -10.55442                     108.69007
                       4.83869                     -12.34816                     111.81752
                       5.15917                     -14.14597                     114.94040
                       5.50672                     -15.94793                     118.05798
                       5.88637                     -17.75393                     121.16946
                       6.30321                     -19.56365                     124.27399
                       6.76173                     -21.37652                     127.37080
                       7.26494                     -23.19176                     130.45927
                       7.81335                     -25.00848                     133.53918
                       8.40368                     -26.82584                     136.61099
                       9.02742                     -28.64320                     139.67626
                       9.66911                     -30.46037                     142.73797
                       9.99203                     -31.36892                     144.26841
                       3.15618                      -0.75081                      91.43161
        </DataArray>
      </Points>
      <PointData>
        <DataArray type="Float32" Name="TranslationalVelocity" NumberOfComponents="3" format="ascii">
                       0.13618                      -2.71124                      -1.46475
                      -0.03764                      -5.64165                      -3.10925
                      -0.20623                      -8.57422                      -4.75810
                      -0.36746                     -11.50957                      -6.41276
                      -0.51940                     -14.44802                      -8.07419
                      -0.65996                     -17.38972                      -9.74307
                      -0.78662                     -20.33468                     -11.42011
                      -0.89638                     -23.28278                     -13.10608
                      -0.98567                     -26.23373                     -14.80183
                      -1.05058                     -29.18700                     -16.50815
                      -1.08719                     -32.14181                     -18.22576
                      -1.09203                     -35.09708                     -19.95516
                      -1.06277                     -38.05158                     -21.69649
                      -0.99902                     -41.00407                     -23.44942
                      -0.90330                     -43.95369                     -25.21280
                      -0.78219                     -46.90033                     -26.98426
                      -0.64755                     -49.84517                     -28.75997
                      -0.57872                     -51.31737                     -29.64831
                       0.22410                      -1.24649                      -0.64337
        </DataArray>
        <DataArray type="Float32" Name="RotationalVelocity" NumberOfComponents="3" format="ascii">
                       0.92374                       0.00808                      -0.11328
                       0.92458                       0.00913                      -0.11275
                       0.92580                       0.01080                      -0.11190
                       0.92727                       0.01295                      -0.11079
                       0.92888                       0.01558                      -0.10942
                       0.93058                       0.01877                      -0.10774
                       0.93238                       0.02263                      -0.10569
                       0.93425                       0.02731                      -0.10319
                       0.93618                       0.03291                      -0.10016
                       0.93812                       0.03949                      -0.09659
                       0.94002                       0.04700                      -0.09248
                       0.94182                       0.05525                      -0.08795
                       0.94346                       0.06387                      -0.08320
                       0.94487                       0.07228                      -0.07856
                       0.94597                       0.07963                      -0.07449
                       0.94666                       0.08478                      -0.07163
                       0.94686                       0.08627                      -0.07080
                       0.94683                       0.08590                      -0.07101
                       0.92344                       0.00774                      -0.11346
        </DataArray>
        <DataArray type="Float32" Name="TranslationalAcceleration" NumberOfComponents="3" format="ascii">
                      -0.10383                       1.46545                      -2.62971
                      -0.53804                       2.92265                      -5.37629
                      -0.98097                       4.40182                      -8.11733
                      -1.43511                       5.90871                     -10.85158
                      -1.90299                       7.44666                     -13.57814
                      -2.39991                       9.01944                     -16.29401
                      -2.96225                      10.63274                     -18.99250
                      -3.65201                      12.29381                     -21.66232
                      -4.55709                      14.00979                     -24.28712
                      -5.78728                      15.78551                     -26.84550
                      -7.46568                      17.62121                     -29.31154
                      -9.71592                      19.51077                     -31.65623
                     -12.64488                      21.44168                     -33.85045
                     -16.32119                      23.39704                     -35.87023
                     -20.74983                      25.35874                     -37.70591
                     -25.84248                      27.31234                     -39.37453
                     -31.38360                      29.25429                     -40.93279
                     -34.23026                      30.22286                     -41.69430
                       0.11186                       0.74137                      -1.25531
        </DataArray>
        <DataArray type="Float32" Name="RotationalAcceleration" NumberOfComponents="3" format="ascii">
                       0.02772                      -0.02235                      -0.00898
                       0.02317                      -0.02373                      -0.00943
                       0.01665                      -0.02661                      -0.01058
                       0.00936                      -0.02918                      -0.01150
                       0.00125                      -0.03329                      -0.01323
                      -0.00849                      -0.04330                      -0.01818
                      -0.02093                      -0.06512                      -0.02960
                      -0.03690                      -0.10531                      -0.05114
                      -0.05679                      -0.16995                      -0.08621
                      -0.08035                      -0.26363                      -0.13741
                      -0.10671                      -0.38836                      -0.20595
                      -0.13443                      -0.54249                      -0.29100
                      -0.16192                      -0.71963                      -0.38906
                      -0.18742                      -0.90763                      -0.49340
                      -0.20874                      -1.08754                      -0.59348
                      -0.22360                      -1.23255                      -0.67430
                      -0.23016                      -1.30690                      -0.71583
                      -0.23118                      -1.32136                      -0.72392
                       0.02926                      -0.02252                      -0.00919
        </DataArray>
        <DataArray type="Float32" Name="OrientationX" NumberOfComponents="3" format="ascii">
                       0.95555                      -0.22107                      -0.19508
                       0.95544                      -0.22024                      -0.19657
                       0.95526                      -0.21892                      -0.19889
                       0.95877                      -0.20601                      -0.19575
                       0.96654                      -0.17771                      -0.18500
                       0.97035                      -0.16024                      -0.18098
                       0.97379                      -0.14204                      -0.17763
                       0.97699                      -0.12233                      -0.17474
                       0.97969                      -0.10169                      -0.17282
                       0.98168                      -0.08101                      -0.17244
                       0.98305                      -0.05986                      -0.17328
                       0.98372                      -0.03898                      -0.17544
                       0.98352                      -0.02071                      -0.17961
                       0.98288                      -0.00396                      -0.18420
                       0.98221                       0.01202                      -0.18741
                       0.98184                       0.02631                      -0.18788
                       0.98198                       0.03434                      -0.18586
                       0.98222                       0.03622                      -0.18421
                       0.95558                      -0.22135                      -0.19459
        </DataArray>
        <DataArray type="Float32" Name="OrientationY" NumberOfComponents="3" format="ascii">
                       0.28786                       0.84263                       0.45510
                       0.28787                       0.84255                       0.45523
                       0.28789                       0.84245                       0.45542
                       0.27516                       0.84516                       0.45825
                       0.24535                       0.85098                       0.46438
                       0.22825                       0.85383                       0.46784
                       0.21088                       0.85641                       0.47128
                       0.19245                       0.85878                       0.47483
                       0.17373                       0.86081                       0.47836
                       0.15578                       0.86237                       0.48171
                       0.13807                       0.86354                       0.48501
                       0.12130                       0.86429                       0.48815
                       0.10782                       0.86462                       0.49073
                       0.09589                       0.86470                       0.49306
                       0.08394                       0.86459                       0.49542
                       0.07209                       0.86432                       0.49775
                       0.06428                       0.86406                       0.49927
                       0.06187                       0.86397                       0.49973
                       0.28786                       0.84266                       0.45505
        </DataArray>
        <DataArray type="Float32" Name="OrientationZ" NumberOfComponents="3" format="ascii">
                       0.06377                      -0.49103                       0.86881
                       0.06536                      -0.49153                       0.86840
                       0.06785                      -0.49230                       0.86778
                       0.07104                      -0.49322                       0.86700
                       0.07490                      -0.49423                       0.86610
                       0.07956                      -0.49528                       0.86508
                       0.08518                      -0.49638                       0.86391
                       0.09198                      -0.49753                       0.86256
                       0.10012                      -0.49867                       0.86099
                       0.10969                      -0.49975                       0.85919
                       0.12061                      -0.50072                       0.85717
                       0.13260                      -0.50148                       0.85495
                       0.14513                      -0.50200                       0.85260
                       0.15733                      -0.50228                       0.85027
                       0.16799                      -0.50233                       0.84820
                       0.17549                      -0.50226                       0.84672
                       0.17773                      -0.50222                       0.84628
                       0.17725                      -0.50224                       0.84637
                       0.06325                      -0.49085                       0.86895
        </DataArray>
      </PointData>
      <Lines>
        <DataArray type="Int32" Name="connectivity" format="ascii">
      0      1
      1      2
      2      3
      3      4
      4      5
      5      6
      6      7
      7      8
      8      9
      9     10
     10     11
     11     12
     12     13
     13     14
     14     15
     15     16
     16     17
     18      0
        </DataArray>
        <DataArray type="Int32" Name="offsets" format="ascii">
      2
      4
      6
      8
     10
     12
     14
     16
     18
     20
     22
     24
     26
     28
     30
     32
     34
     36
        </DataArray>
      </Lines>
    </Piece>
  </PolyData>
</VTKFile>
