<?xml version="1.0"?>
<VTKFile type="PolyData" version="0.1" byte_order="LittleEndian">
  <PolyData>
    <Piece NumberOfPoints="     17" NumberOfVerts="  0" NumberOfLines="      0"
           NumberOfStrips="  0" NumberOfPolys="      0">
      <Points>
        <DataArray type="Float32" NumberOfComponents="3" format="ascii">
                       3.28687                      -1.93317                      92.82376
                       3.49883                      -4.02951                      95.76447
                       3.71851                      -6.12838                      98.70281
                       3.94895                      -8.23058                     101.63793
                       4.19278                     -10.33659                     104.56924
                       4.45281                     -12.44664                     107.49625
                       4.73230                     -14.56089                     110.41842
                       5.03524                     -16.67950                     113.33508
                       5.36624                     -18.80245                     116.24552
                       5.73038                     -20.92960                     119.14891
                       6.13274                     -23.06053                     122.04446
                       6.57777                     -25.19459                     124.93145
                       7.06838                     -27.33090                     127.80936
                       7.60493                     -29.46853                     130.67812
                       8.18394                     -31.60657                     133.53835
                       8.79659                     -33.74442                     136.39177
                       9.42708                     -35.88198                     139.24157
        </DataArray>
      </Points>
      <PointData>
        <DataArray type="Float32" Name="Force" NumberOfComponents="3" format="ascii">
                     169.67413                      66.48650                      35.23977
                     552.79115                     207.39244                     106.48617
                    1867.86881                    -581.98445                    -561.02088
                    3100.05285                    -990.14682                    -960.78010
                    1856.40325                    -518.17131                    -530.13377
                    3931.65147                    -935.29663                   -1028.32434
                    4626.50787                    -903.47379                   -1105.19841
                    4956.74236                    -767.49090                   -1088.72969
                    5173.90930                    -631.74732                   -1073.78534
                    6402.09412                    -584.39673                   -1270.57437
                    7148.57166                    -453.17919                   -1384.38440
                    8041.58299                    -341.33028                   -1570.96541
                    4532.60466                    -117.87579                    -890.05529
                    8869.01705                     -79.87566                   -1747.89748
                    8441.15788                      69.43372                   -1677.41593
                   12378.66663                     258.40736                   -2484.71658
                    5946.15875                     138.99061                   -1206.05839
        </DataArray>
        <DataArray type="Float32" Name="Moment" NumberOfComponents="3" format="ascii">
                     -17.12701                      14.18401                      16.32423
                     147.24842                     236.59453                     237.75369
                     971.65516                    1350.87008                    1369.35660
                    1036.69213                    1730.28981                    1788.80784
                      60.34706                      62.98685                     230.63902
                    -766.09118                   -1581.19624                   -1116.99137
                    -559.15107                    -712.36681                   -1302.58798
                    -304.89076                     773.06248                   -1424.05090
                    -193.18832                    1458.18995                   -1313.62651
                    -142.41664                    2138.20290                   -1178.28001
                      91.30621                    3604.42271                    -316.23626
                     468.76816                    5144.73491                    1518.38824
                    -179.80927                     196.44328                    -862.05767
                   -1048.98131                   -4051.97789                   -4848.39430
                    -889.26177                   -3695.92679                   -4424.94953
                    -336.86209                     846.86880                   -1523.40080
                     -68.12920                     805.95287                     -59.27397
        </DataArray>
      </PointData>
    </Piece>
  </PolyData>
</VTKFile>
