<?xml version="1.0"?>
<VTKFile type="PolyData" version="0.1" byte_order="LittleEndian">
  <PolyData>
    <Piece NumberOfPoints="     17" NumberOfVerts="  0" NumberOfLines="      0"
           NumberOfStrips="  0" NumberOfPolys="      0">
      <Points>
        <DataArray type="Float32" NumberOfComponents="3" format="ascii">
                       2.66940                       2.97229                      88.69691
                       2.32326                       6.22202                      87.14554
                       1.97752                       9.47168                      85.59389
                       1.63234                      12.72123                      84.04192
                       1.28784                      15.97067                      82.48956
                       0.94412                      19.22000                      80.93680
                       0.60134                      22.46923                      79.38362
                       0.25967                      25.71837                      77.83000
                      -0.08068                      28.96745                      76.27595
                      -0.41947                      32.21647                      74.72146
                      -0.75646                      35.46546                      73.16652
                      -1.09145                      38.71444                      71.61111
                      -1.42429                      41.96341                      70.05523
                      -1.75496                      45.21238                      68.49888
                      -2.08361                      48.46136                      66.94211
                      -2.41065                      51.71033                      65.38501
                      -2.73682                      54.95930                      63.82771
        </DataArray>
      </Points>
      <PointData>
        <DataArray type="Float32" Name="Force" NumberOfComponents="3" format="ascii">
                     152.47881                     -15.42860                     -66.35949
                     509.24267                     -57.12222                    -233.15951
                    2066.04761                     388.56012                     354.33216
                    3618.89588                     729.48599                     724.40355
                    2202.54618                     410.88227                     372.41570
                    4675.06062                     776.97941                     593.44201
                    5540.26050                     811.94301                     479.14659
                    6042.09952                     782.56159                     312.12598
                    6396.81016                     745.21232                     162.34528
                    7968.66523                     838.29183                      22.77646
                    9033.75547                     864.25193                    -142.37124
                   10236.54502                     912.53567                    -286.14179
                    5801.57349                     488.78122                    -215.04692
                   11353.42574                     895.66360                    -535.30948
                   10665.72870                     771.73012                    -635.38987
                   14689.87736                     945.79501                   -1105.58462
                    5994.57220                     321.64236                    -583.42336
        </DataArray>
        <DataArray type="Float32" Name="Moment" NumberOfComponents="3" format="ascii">
                     -18.93202                      -5.27764                     -16.57313
                      66.81623                     -98.33220                    -363.47082
                     589.76686                    -553.57352                   -2123.93717
                     676.79057                    -478.33003                   -3028.16241
                     -11.39804                     253.03560                    -372.16274
                    -574.42019                    1337.43989                    1894.61345
                    -327.76262                     616.07230                    1415.74980
                     -62.53963                    -616.04017                     468.16838
                      27.90336                   -1101.60635                    -117.68100
                      44.33400                   -1411.77469                    -862.35516
                      92.51297                   -2282.84696                   -2858.48672
                      55.01254                   -3033.80236                   -5737.77202
                     -15.30599                     156.73817                     367.37718
                      -2.68832                    3334.95866                    7024.39828
                      96.92185                    3005.90524                    6339.52877
                     -88.65063                     406.75817                    1204.55999
                     -89.61638                    -380.94052                    -212.80300
        </DataArray>
      </PointData>
    </Piece>
  </PolyData>
</VTKFile>
