<?xml version="1.0"?>
<VTKFile type="PolyData" version="0.1" byte_order="LittleEndian">
  <PolyData>
    <Piece NumberOfPoints="     17" NumberOfVerts="  0" NumberOfLines="      0"
           NumberOfStrips="  0" NumberOfPolys="      0">
      <Points>
        <DataArray type="Float32" NumberOfComponents="3" format="ascii">
                       2.90668                       3.29082                      90.07358
                       2.74565                       6.90434                      90.01154
                       2.59244                      10.51812                      89.94464
                       2.44994                      14.13222                      89.87173
                       2.32046                      17.74666                      89.79203
                       2.20648                      21.36145                      89.70503
                       2.11132                      24.97660                      89.61051
                       2.03942                      28.59206                      89.50843
                       1.99626                      32.20775                      89.39873
                       1.98817                      35.82343                      89.28128
                       2.02172                      39.43868                      89.15576
                       2.10301                      43.05285                      89.02177
                       2.23652                      46.66513                      88.87892
                       2.42385                      50.27468                      88.72713
                       2.66212                      53.88091                      88.56688
                       2.94209                      57.48390                      88.39962
                       3.24611                      61.08482                      88.22823
        </DataArray>
      </Points>
      <PointData>
        <DataArray type="Float32" Name="Force" NumberOfComponents="3" format="ascii">
                     148.10757                       5.56798                     -69.01486
                     481.43274                      16.35087                    -242.44954
                    1983.15734                      85.12070                     433.61586
                    3495.33194                     141.19697                     874.16624
                    2124.78151                      77.66061                     456.69216
                    4478.49962                     141.60091                     747.15917
                    5225.50047                     129.42193                     622.01627
                    5552.84620                      90.41431                     420.42503
                    5704.52263                      36.18952                     232.90085
                    6867.83989                     -36.67257                      58.09985
                    7402.93587                    -142.52227                    -156.95566
                    7928.58006                    -275.53549                    -350.17667
                    4245.67213                    -199.05356                    -262.27598
                    7779.42348                    -462.55806                    -633.62301
                    6787.42940                    -500.20375                    -708.57463
                    9199.87614                    -787.42325                   -1127.33894
                    4561.95705                    -412.45803                    -578.15003
        </DataArray>
        <DataArray type="Float32" Name="Moment" NumberOfComponents="3" format="ascii">
                     -19.31939                       2.90279                     -15.63199
                      64.54695                      56.62738                    -349.99931
                     555.57986                     354.40509                   -2075.65864
                     656.77159                     769.19680                   -2854.31892
                       8.63103                     371.82403                    -228.19139
                    -489.65349                     423.52571                    2183.35304
                    -293.13726                    -149.31494                    1488.50584
                    -126.99809                   -1060.24831                     235.28861
                     -89.05861                   -1421.66410                    -405.27190
                    -124.46381                   -1728.18210                   -1023.02789
                    -198.11969                   -2033.31521                   -2689.43466
                    -344.33089                   -1725.85000                   -4784.81544
                     -34.68043                    -779.09221                     360.38925
                     283.24417                   -1456.84261                    5594.29231
                     319.35107                   -1479.35104                    4656.15774
                    -192.30692                   -2189.74416                     439.75612
                    -172.56903                    -727.95733                    -772.31568
        </DataArray>
      </PointData>
    </Piece>
  </PolyData>
</VTKFile>
