<?xml version="1.0"?>
<VTKFile type="PolyData" version="0.1" byte_order="LittleEndian">
  <PolyData>
    <Piece NumberOfPoints="     17" NumberOfVerts="  0" NumberOfLines="      0"
           NumberOfStrips="  0" NumberOfPolys="      0">
      <Points>
        <DataArray type="Float32" NumberOfComponents="3" format="ascii">
                       2.74030                       3.16433                      89.19628
                       2.46178                       6.62725                      88.18734
                       2.18726                      10.08996                      87.17659
                       1.91825                      13.55246                      86.16364
                       1.65598                      17.01475                      85.14818
                       1.40159                      20.47682                      84.12998
                       1.15630                      23.93869                      83.10892
                       0.92147                      27.40043                      82.08492
                       0.69863                      30.86208                      81.05794
                       0.48935                      34.32366                      80.02791
                       0.29512                      37.78519                      78.99476
                       0.11714                      41.24663                      77.95839
                      -0.04398                      44.70792                      76.91879
                      -0.18855                      48.16901                      75.87605
                      -0.31827                      51.62983                      74.83048
                      -0.43666                      55.09039                      73.78270
                      -0.54966                      58.55079                      72.73377
        </DataArray>
      </Points>
      <PointData>
        <DataArray type="Float32" Name="Force" NumberOfComponents="3" format="ascii">
                     153.71125                      -7.74506                     -69.27232
                     500.62368                     -30.03716                    -239.44529
                    2023.72585                     273.48058                     399.36573
                    3519.89371                     501.65807                     803.45186
                    2124.12060                     279.01523                     415.94300
                    4453.95794                     518.01605                     674.22191
                    5163.63539                     520.59323                     559.19414
                    5437.34222                     468.88749                     381.85385
                    5506.22697                     404.80048                     220.09359
                    6492.49044                     395.88423                      76.37166
                    6814.07726                     329.82855                     -99.42667
                    7100.52786                     261.96014                    -256.64651
                    3713.37655                     103.59297                    -199.00577
                    6601.82713                     119.84220                    -486.27622
                    5463.14717                      35.15150                    -542.93913
                    7129.68881                     -29.98756                    -888.15850
                    3577.72225                     -25.89953                    -471.87293
        </DataArray>
        <DataArray type="Float32" Name="Moment" NumberOfComponents="3" format="ascii">
                     -19.18183                      -1.97943                     -16.51245
                      67.54250                     -37.67716                    -362.62627
                     568.06859                    -214.85809                   -2130.29028
                     650.89484                      -1.28732                   -2959.20953
                      -4.52465                     299.48927                    -311.40515
                    -526.49119                     990.45319                    2009.64616
                    -304.25380                     351.36117                    1463.69685
                     -87.30261                    -706.10773                     481.30817
                     -19.19163                   -1122.10788                     -29.65011
                     -18.63320                   -1410.82417                    -518.21586
                     -25.42233                   -1974.30281                   -1923.85968
                    -129.75357                   -2102.60565                   -3773.15434
                      14.23788                    -342.71562                     447.24027
                     276.69885                     405.93955                    4938.07027
                     335.67926                      45.23408                    4034.79668
                      17.65784                   -1565.56709                     671.35771
                     -78.06747                    -799.68167                    -513.00492
        </DataArray>
      </PointData>
    </Piece>
  </PolyData>
</VTKFile>
