<?xml version="1.0"?>
<VTKFile type="PolyData" version="0.1" byte_order="LittleEndian">
  <PolyData>
    <Piece NumberOfPoints="     17" NumberOfVerts="  0" NumberOfLines="      0"
           NumberOfStrips="  0" NumberOfPolys="      0">
      <Points>
        <DataArray type="Float32" NumberOfComponents="3" format="ascii">
                       3.27730                       2.61755                      92.12958
                       3.39879                       5.51903                      94.28691
                       3.52756                       8.42214                      96.44160
                       3.66632                      11.32720                      98.59305
                       3.81725                      14.23440                     100.74078
                       3.98262                      17.14382                     102.88441
                       4.16518                      20.05541                     105.02372
                       4.36842                      22.96892                     107.15852
                       4.59650                      25.88407                     109.28855
                       4.85410                      28.80051                     111.41344
                       5.14595                      31.71785                     113.53265
                       5.47630                      34.63568                     115.64549
                       5.84804                      37.55361                     117.75131
                       6.26180                      40.47125                     119.84972
                       6.71469                      43.38831                     121.94088
                       7.19897                      46.30475                     124.02593
                       7.70051                      49.22082                     126.10745
        </DataArray>
      </Points>
      <PointData>
        <DataArray type="Float32" Name="Force" NumberOfComponents="3" format="ascii">
                     170.62336                      38.78597                     -61.53557
                     534.75806                     132.80502                    -210.32368
                    2049.11339                    -354.12257                     344.36568
                    3536.01273                    -679.90183                     670.14415
                    2142.83037                    -372.07516                     341.61483
                    4555.81380                    -681.23000                     549.96952
                    5436.19386                    -696.91905                     450.95600
                    6003.15536                    -671.14944                     297.48839
                    6435.13000                    -657.99953                     150.58273
                    8143.46626                    -786.08705                       1.61423
                    9410.74727                    -893.23079                    -190.43858
                   10822.13565                   -1064.30078                    -387.21251
                    6241.63898                    -633.61085                    -294.99507
                   12505.00764                   -1305.57243                    -740.27407
                   12092.87297                   -1292.57832                    -885.89179
                   17005.95075                   -1782.59052                   -1531.49954
                    6834.14232                    -629.51470                    -772.26510
        </DataArray>
        <DataArray type="Float32" Name="Moment" NumberOfComponents="3" format="ascii">
                     -19.72720                      14.91268                     -11.23633
                      82.50769                     257.66034                    -248.66609
                     637.70713                    1495.36210                   -1528.25831
                     753.82111                    2202.33751                   -1909.49230
                      38.87226                     370.34021                      -3.16603
                    -499.79317                   -1065.10159                    1952.17945
                    -327.59425                   -1008.61974                    1078.38170
                    -173.91082                    -779.12723                    -456.12320
                    -111.73485                    -454.38340                   -1150.29404
                     -80.35048                     119.52026                   -1803.94342
                      10.58798                    1572.95974                   -3590.12904
                     130.78508                    3852.89104                   -5818.64044
                     -20.35991                    -229.64571                     302.97970
                    -154.34698                   -4844.95796                    6838.93034
                     -61.00413                   -4469.80361                    6424.50650
                    -136.13930                    -672.97297                    1137.48323
                    -145.17591                       1.27036                    -243.55392
        </DataArray>
      </PointData>
    </Piece>
  </PolyData>
</VTKFile>
