<?xml version="1.0"?>
<VTKFile type="PolyData" version="0.1" byte_order="LittleEndian">
  <PolyData>
    <Piece NumberOfPoints="     19" NumberOfVerts="  0" NumberOfLines="     18"
           NumberOfStrips="  0" NumberOfPolys="      0">
      <Points>
        <DataArray type="Float32" NumberOfComponents="3" format="ascii">
                       3.08288                       1.19158                      93.21068
                       3.33386                       2.51359                      96.56876
                       3.59400                       3.83353                      99.92695
                       3.86686                       5.15065                     103.28523
                       4.15545                       6.46455                     106.64345
                       4.46300                       7.77499                     110.00134
                       4.79344                       9.08171                     113.35850
                       5.15164                      10.38439                     116.71437
                       5.54340                      11.68273                     120.06815
                       5.97520                      12.97654                     123.41875
                       6.45356                      14.26570                     126.76480
                       6.98428                      15.55030                     130.10469
                       7.57135                      16.83055                     133.43682
                       8.21556                      18.10683                     136.75995
                       8.91297                      19.37973                     140.07370
                       9.65301                      20.65018                     143.37923
                      10.41639                      21.91937                     146.68001
                      10.80089                      22.55383                     148.32981
                       2.95918                       0.53017                      91.53167
        </DataArray>
      </Points>
      <PointData>
        <DataArray type="Float32" Name="TranslationalVelocity" NumberOfComponents="3" format="ascii">
                      -0.55315                      -2.83823                       1.06714
                      -0.46401                      -5.95308                       2.28674
                      -0.37490                      -9.07498                       3.50690
                      -0.28566                     -12.20579                       4.72756
                      -0.19595                     -15.34661                       5.94869
                      -0.10502                     -18.49804                       7.17022
                      -0.01162                     -21.66035                       8.39189
                       0.08605                     -24.83360                       9.61324
                       0.19033                     -28.01758                      10.83365
                       0.30404                     -31.21179                      12.05237
                       0.43022                     -34.41539                      13.26857
                       0.57179                     -37.62715                      14.48133
                       0.73119                     -40.84550                      15.68974
                       0.90977                     -44.06871                      16.89301
                       1.10722                     -47.29503                      18.09084
                       1.32087                     -50.52297                      19.28379
                       1.54481                     -53.75156                      20.47367
                       1.65839                     -55.36595                      21.06817
                      -0.59775                      -1.28228                       0.45750
        </DataArray>
        <DataArray type="Float32" Name="RotationalVelocity" NumberOfComponents="3" format="ascii">
                       0.91857                      -0.01695                      -0.11047
                       0.92005                      -0.01698                      -0.11057
                       0.92208                      -0.01694                      -0.11074
                       0.92444                      -0.01686                      -0.11094
                       0.92699                      -0.01664                      -0.11121
                       0.92963                      -0.01616                      -0.11160
                       0.93227                      -0.01528                      -0.11213
                       0.93486                      -0.01386                      -0.11288
                       0.93735                      -0.01175                      -0.11390
                       0.93971                      -0.00886                      -0.11521
                       0.94187                      -0.00517                      -0.11682
                       0.94380                      -0.00075                      -0.11870
                       0.94545                       0.00420                      -0.12077
                       0.94680                       0.00934                      -0.12289
                       0.94779                       0.01412                      -0.12485
                       0.94840                       0.01784                      -0.12636
                       0.94858                       0.01952                      -0.12704
                       0.94856                       0.01972                      -0.12712
                       0.91799                      -0.01692                      -0.11045
        </DataArray>
        <DataArray type="Float32" Name="TranslationalAcceleration" NumberOfComponents="3" format="ascii">
                      -0.10903                      -1.30019                      -2.65425
                      -0.49576                      -2.34456                      -5.54874
                      -0.87747                      -3.32016                      -8.48362
                      -1.25380                      -4.20970                     -11.46896
                      -1.62647                      -5.00278                     -14.51055
                      -2.00387                      -5.69352                     -17.61088
                      -2.40285                      -6.27885                     -20.76965
                      -2.85001                      -6.75743                     -23.98390
                      -3.38193                      -7.12913                     -27.24768
                      -4.04321                      -7.39476                     -30.55168
                      -4.88306                      -7.55605                     -33.88282
                      -5.95010                      -7.61579                     -37.22435
                      -7.28566                      -7.57821                     -40.55702
                      -8.91546                      -7.44975                     -43.86165
                     -10.83991                      -7.24100                     -47.12334
                     -13.02277                      -6.96961                     -50.33733
                     -15.37814                      -6.66273                     -53.51575
                     -16.58469                      -6.50448                     -55.09885
                       0.08561                      -0.76349                      -1.21555
        </DataArray>
        <DataArray type="Float32" Name="RotationalAcceleration" NumberOfComponents="3" format="ascii">
                      -0.01548                      -0.00023                       0.01810
                      -0.03339                       0.00185                       0.01859
                      -0.05782                       0.00415                       0.01947
                      -0.08624                       0.00687                       0.02047
                      -0.11694                       0.00854                       0.02205
                      -0.14876                       0.00708                       0.02495
                      -0.18084                       0.00010                       0.03004
                      -0.21256                      -0.01513                       0.03836
                      -0.24331                      -0.04111                       0.05084
                      -0.27249                      -0.07962                       0.06815
                      -0.29943                      -0.13137                       0.09050
                      -0.32345                      -0.19551                       0.11754
                      -0.34399                      -0.26925                       0.14809
                      -0.36054                      -0.34738                       0.18009
                      -0.37259                      -0.42194                       0.21036
                      -0.37966                      -0.48171                       0.23443
                      -0.38155                      -0.51178                       0.24642
                      -0.38120                      -0.51728                       0.24856
                      -0.00852                      -0.00137                       0.01804
        </DataArray>
        <DataArray type="Float32" Name="OrientationX" NumberOfComponents="3" format="ascii">
                       0.98001                      -0.19887                       0.00614
                       0.97987                      -0.19961                       0.00426
                       0.97964                      -0.20077                       0.00132
                       0.98173                      -0.19011                      -0.00737
                       0.98626                      -0.16353                      -0.02338
                       0.98815                      -0.14939                      -0.03533
                       0.98960                      -0.13543                      -0.04846
                       0.99063                      -0.12101                      -0.06332
                       0.99106                      -0.10693                      -0.07984
                       0.99074                      -0.09423                      -0.09772
                       0.98970                      -0.08237                      -0.11706
                       0.98792                      -0.07187                      -0.13730
                       0.98549                      -0.06472                      -0.15694
                       0.98269                      -0.05889                      -0.17562
                       0.97990                      -0.05235                      -0.19251
                       0.97761                      -0.04449                      -0.20567
                       0.97668                      -0.03813                      -0.21128
                       0.97669                      -0.03565                      -0.21169
                       0.98005                      -0.19863                       0.00676
        </DataArray>
        <DataArray type="Float32" Name="OrientationY" NumberOfComponents="3" format="ascii">
                       0.18684                       0.90925                      -0.37195
                       0.18685                       0.90927                      -0.37190
                       0.18685                       0.90930                      -0.37184
                       0.17380                       0.91193                      -0.37173
                       0.14331                       0.91744                      -0.37118
                       0.12587                       0.92023                      -0.37058
                       0.10818                       0.92281                      -0.36976
                       0.08946                       0.92526                      -0.36863
                       0.07049                       0.92747                      -0.36720
                       0.05234                       0.92933                      -0.36551
                       0.03448                       0.93095                      -0.36352
                       0.01761                       0.93228                      -0.36130
                       0.00408                       0.93324                      -0.35924
                      -0.00786                       0.93400                      -0.35718
                      -0.01979                       0.93469                      -0.35491
                      -0.03159                       0.93529                      -0.35248
                      -0.03936                       0.93562                      -0.35080
                      -0.04176                       0.93571                      -0.35028
                       0.18684                       0.90925                      -0.37197
        </DataArray>
        <DataArray type="Float32" Name="OrientationZ" NumberOfComponents="3" format="ascii">
                       0.06839                       0.36566                       0.92823
                       0.07036                       0.36521                       0.92826
                       0.07346                       0.36451                       0.92830
                       0.07739                       0.36366                       0.92831
                       0.08215                       0.36273                       0.92827
                       0.08787                       0.36174                       0.92813
                       0.09479                       0.36067                       0.92786
                       0.10320                       0.35951                       0.92742
                       0.11332                       0.35828                       0.92671
                       0.12525                       0.35701                       0.92566
                       0.13892                       0.35574                       0.92420
                       0.15397                       0.35452                       0.92229
                       0.16971                       0.35338                       0.91996
                       0.18507                       0.35238                       0.91738
                       0.19851                       0.35158                       0.91487
                       0.20804                       0.35108                       0.91294
                       0.21105                       0.35093                       0.91231
                       0.21057                       0.35095                       0.91241
                       0.06774                       0.36581                       0.92822
        </DataArray>
      </PointData>
      <Lines>
        <DataArray type="Int32" Name="connectivity" format="ascii">
      0      1
      1      2
      2      3
      3      4
      4      5
      5      6
      6      7
      7      8
      8      9
      9     10
     10     11
     11     12
     12     13
     13     14
     14     15
     15     16
     16     17
     18      0
        </DataArray>
        <DataArray type="Int32" Name="offsets" format="ascii">
      2
      4
      6
      8
     10
     12
     14
     16
     18
     20
     22
     24
     26
     28
     30
     32
     34
     36
        </DataArray>
      </Lines>
    </Piece>
  </PolyData>
</VTKFile>
