<?xml version="1.0"?>
<VTKFile type="PolyData" version="0.1" byte_order="LittleEndian">
  <PolyData>
    <Piece NumberOfPoints="     19" NumberOfVerts="  0" NumberOfLines="     18"
           NumberOfStrips="  0" NumberOfPolys="      0">
      <Points>
        <DataArray type="Float32" NumberOfComponents="3" format="ascii">
                       2.79668                       0.57785                      88.79854
                       2.58299                       1.13362                      87.56836
                       2.13936                       2.33136                      85.14958
                       1.69127                       3.57016                      82.74990
                       1.13400                       5.14377                      79.76081
                       0.52400                       6.90329                      76.10617
                      -0.05003                       8.54570                      72.39314
                      -0.60342                      10.18730                      68.67662
                      -1.12840                      11.82681                      64.95507
                      -1.61890                      13.46627                      61.22883
                      -2.07323                      15.10891                      57.49947
                      -2.47914                      16.75342                      53.76538
                      -2.83047                      18.39922                      50.02638
                      -3.12406                      20.04550                      46.28263
                      -3.35957                      21.69146                      42.53464
                      -3.51858                      23.06237                      39.40884
                      -3.62777                      24.15128                      36.90393
                      -3.73573                      25.18980                      34.37647
                      -3.78811                      25.74709                      33.12972
        </DataArray>
      </Points>
      <PointData>
        <DataArray type="Float32" Name="Force" NumberOfComponents="3" format="ascii">
                      -0.04452                      -0.81350                      -0.35729
                      60.75872                     -13.39029                     -16.51760
                      78.21331                     -39.31790                     -31.05988
                      71.22669                     -56.80730                     -37.56837
                     692.58570                     265.99938                       3.82206
                     882.35277                     288.48540                     -13.71638
                    1055.13960                     291.76071                     -34.38284
                    1379.61763                     329.40674                     -58.89756
                    1527.48016                     308.02917                     -77.81626
                    1769.94580                     308.10469                     -93.95338
                    2174.96714                     320.60164                    -114.39759
                    2483.63033                     309.71839                    -120.44495
                    2869.97175                     312.27928                    -115.00763
                    3126.79286                     282.88823                    -101.52795
                    3352.43323                     245.97225                     -85.99277
                    3485.43670                     207.49062                     -78.73051
                    3414.35974                     165.78655                     -79.14721
                    2497.57568                     105.59200                     -60.98619
                    1099.70019                     -45.68910                     -67.96685
        </DataArray>
        <DataArray type="Float32" Name="Moment" NumberOfComponents="3" format="ascii">
                       0.00000                       0.00000                       0.00000
                       0.00000                       0.00000                       0.00000
                       0.00000                       0.00000                       0.00000
                       0.00000                       0.00000                       0.00000
                      42.43912                    -114.15794                     254.63083
                      66.09121                    -182.75230                     407.86180
                      79.96183                    -228.92760                     511.26706
                     103.72841                    -310.38764                     693.77681
                     129.77595                    -411.14358                     919.93600
                     132.91117                    -453.62445                    1016.26734
                     124.18818                    -467.89060                    1049.83600
                     114.22999                    -488.77218                    1098.62083
                      88.11093                    -442.64761                     996.85731
                      72.22663                    -441.10707                     995.32905
                      56.25647                    -428.28059                     968.11525
                      45.10844                    -407.66984                     922.57703
                      36.50785                    -361.31188                     818.09920
                      17.55479                    -179.90697                     407.43145
                      14.71069                    -149.47629                     338.50014
        </DataArray>
        <DataArray type="Float32" Name="TranslationalVelocity" NumberOfComponents="3" format="ascii">
                      -0.50100                       1.32621                       0.51619
                      -0.41760                       2.48368                       1.02463
                      -0.24104                       4.75936                       2.11884
                      -0.05850                       7.00869                       3.24495
                       0.17504                       9.79401                       4.66495
                       0.44620                      13.16410                       6.23687
                       0.71001                      16.54822                       7.68705
                       0.97698                      19.89690                       9.12070
                       1.24439                      23.21075                      10.53760
                       1.50877                      26.48993                      11.94087
                       1.76702                      29.73793                      13.33599
                       2.01370                      32.95373                      14.72200
                       2.24401                      36.13983                      16.09996
                       2.45406                      39.29939                      17.47064
                       2.64200                      42.43636                      18.83483
                       2.78295                      45.03738                      19.96757
                       2.88622                      47.11470                      20.86575
                       2.98079                      49.20882                      21.72203
                       3.03111                      50.24158                      22.18158
        </DataArray>
        <DataArray type="Float32" Name="RotationalVelocity" NumberOfComponents="3" format="ascii">
                       0.92232                      -0.01552                      -0.11511
                       0.92092                      -0.01583                      -0.11501
                       0.91747                      -0.01659                      -0.11475
                       0.91324                      -0.01750                      -0.11443
                       0.90681                      -0.01885                      -0.11392
                       0.89803                      -0.02058                      -0.11317
                       0.88872                      -0.02208                      -0.11223
                       0.87931                      -0.02314                      -0.11107
                       0.87011                      -0.02351                      -0.10964
                       0.86133                      -0.02298                      -0.10788
                       0.85320                      -0.02129                      -0.10572
                       0.84580                      -0.01853                      -0.10319
                       0.83926                      -0.01481                      -0.10039
                       0.83370                      -0.01044                      -0.09747
                       0.82933                      -0.00595                      -0.09469
                       0.82682                      -0.00270                      -0.09280
                       0.82569                      -0.00087                      -0.09178
                       0.82523                       0.00023                      -0.09121
                       0.82527                       0.00046                      -0.09111
        </DataArray>
        <DataArray type="Float32" Name="TranslationalAcceleration" NumberOfComponents="3" format="ascii">
                      -0.49538                      -0.42702                       0.97673
                      -0.32203                      -0.87662                       2.04836
                       0.01222                      -1.85064                       4.15346
                       0.32783                      -2.85965                       6.22372
                       0.69044                      -4.14128                       8.76780
                       1.08426                      -5.57216                      11.81348
                       1.41716                      -6.91392                      14.83394
                       1.67294                      -8.26389                      17.78515
                       1.85822                      -9.61899                      20.66792
                       1.99128                     -10.97720                      23.48257
                       2.10159                     -12.33734                      26.23589
                       2.22108                     -13.69442                      28.92313
                       2.39193                     -15.04555                      31.54740
                       2.65558                     -16.38969                      34.11422
                       3.04498                     -17.72777                      36.63237
                       3.47390                     -18.84008                      38.70297
                       3.88692                     -19.72474                      40.34881
                       4.35372                     -20.57688                      42.00704
                       4.59179                     -21.02843                      42.82193
        </DataArray>
        <DataArray type="Float32" Name="OrientationX" NumberOfComponents="3" format="ascii">
                       0.97147                       0.22770                      -0.06634
                       0.97154                       0.22753                      -0.06597
                       0.97172                       0.22704                      -0.06489
                       0.97197                       0.22638                      -0.06342
                       0.97238                       0.22529                      -0.06098
                       0.97819                       0.19524                      -0.07088
                       0.98204                       0.17262                      -0.07611
                       0.98521                       0.15206                      -0.07904
                       0.98821                       0.12983                      -0.08111
                       0.99096                       0.10629                      -0.08185
                       0.99332                       0.08296                      -0.08022
                       0.99529                       0.05905                      -0.07692
                       0.99676                       0.03638                      -0.07170
                       0.99777                       0.01769                      -0.06437
                       0.99832                      -0.00030                      -0.05801
                       0.99838                      -0.01427                      -0.05505
                       0.99821                      -0.02371                      -0.05498
                       0.99805                      -0.02848                      -0.05557
                       0.99803                      -0.02835                      -0.05588
        </DataArray>
        <DataArray type="Float32" Name="OrientationY" NumberOfComponents="3" format="ascii">
                       0.17836                      -0.88581                      -0.42840
                       0.17838                      -0.88585                      -0.42832
                       0.17841                      -0.88594                      -0.42811
                       0.17846                      -0.88606                      -0.42785
                       0.17852                      -0.88624                      -0.42745
                       0.14749                      -0.89319                      -0.42481
                       0.12504                      -0.89767                      -0.42255
                       0.10536                      -0.90119                      -0.42042
                       0.08450                      -0.90443                      -0.41817
                       0.06297                      -0.90724                      -0.41586
                       0.04254                      -0.90942                      -0.41369
                       0.02224                      -0.91108                      -0.41164
                       0.00381                      -0.91214                      -0.40987
                      -0.01017                      -0.91267                      -0.40858
                      -0.02395                      -0.91290                      -0.40747
                      -0.03547                      -0.91289                      -0.40667
                      -0.04405                      -0.91275                      -0.40614
                      -0.04865                      -0.91264                      -0.40587
                      -0.04865                      -0.91264                      -0.40587
        </DataArray>
        <DataArray type="Float32" Name="OrientationZ" NumberOfComponents="3" format="ascii">
                      -0.15631                       0.40435                      -0.90115
                      -0.15589                       0.40436                      -0.90122
                      -0.15469                       0.40442                      -0.90140
                      -0.15305                       0.40454                      -0.90162
                      -0.15034                       0.40476                      -0.90198
                      -0.14625                       0.40509                      -0.90250
                      -0.14126                       0.40545                      -0.90314
                      -0.13515                       0.40588                      -0.90388
                      -0.12764                       0.40639                      -0.90474
                      -0.11846                       0.40695                      -0.90574
                      -0.10727                       0.40752                      -0.90687
                      -0.09439                       0.40799                      -0.90810
                      -0.08031                       0.40826                      -0.90932
                      -0.06597                       0.40832                      -0.91045
                      -0.05284                       0.40817                      -0.91137
                      -0.04445                       0.40797                      -0.91191
                      -0.04056                       0.40784                      -0.91215
                      -0.03916                       0.40778                      -0.91224
                      -0.03949                       0.40779                      -0.91222
        </DataArray>
      </PointData>
      <Lines>
        <DataArray type="Int32" Name="connectivity" format="ascii">
      0      1
      1      2
      2      3
      3      4
      4      5
      5      6
      6      7
      7      8
      8      9
      9     10
     10     11
     11     12
     12     13
     13     14
     14     15
     15     16
     16     17
     17     18
        </DataArray>
        <DataArray type="Int32" Name="offsets" format="ascii">
      2
      4
      6
      8
     10
     12
     14
     16
     18
     20
     22
     24
     26
     28
     30
     32
     34
     36
        </DataArray>
      </Lines>
    </Piece>
  </PolyData>
</VTKFile>
