<?xml version="1.0"?>
<VTKFile type="PolyData" version="0.1" byte_order="LittleEndian">
  <PolyData>
    <Piece NumberOfPoints="     17" NumberOfVerts="  0" NumberOfLines="      0"
           NumberOfStrips="  0" NumberOfPolys="      0">
      <Points>
        <DataArray type="Float32" NumberOfComponents="3" format="ascii">
                       2.56483                       0.90772                      87.02778
                       1.97877                       1.93946                      83.61027
                       1.39997                       2.97398                      80.19236
                       0.83128                       4.01216                      76.77387
                       0.27513                       5.05452                      73.35458
                      -0.26582                       6.10131                      69.93422
                      -0.78832                       7.15278                      66.51242
                      -1.28835                       8.20913                      63.08878
                      -1.76111                       9.27046                      59.66282
                      -2.20123                      10.33674                      56.23406
                      -2.60325                      11.40767                      52.80208
                      -2.96226                      12.48274                      49.36664
                      -3.27484                      13.56117                      45.92772
                      -3.54017                      14.64209                      42.48559
                      -3.76137                      15.72458                      39.04079
                      -3.94712                      16.80779                      35.59408
                      -4.11341                      17.89121                      32.14639
        </DataArray>
      </Points>
      <PointData>
        <DataArray type="Float32" Name="Force" NumberOfComponents="3" format="ascii">
                     142.10635                     -51.54026                     -39.98804
                     483.34629                    -176.58698                    -135.11390
                    1788.00837                     621.38206                    -110.65857
                    2997.02142                    1037.05249                    -177.64715
                    1858.24089                     569.04176                    -126.08096
                    4133.71674                    1120.46222                    -306.90694
                    5147.39125                    1209.37256                    -406.61678
                    5864.88462                    1180.82563                    -477.16902
                    6430.00442                    1129.58928                    -513.94077
                    8256.46638                    1262.92682                    -628.05303
                    9619.50412                    1285.79771                    -666.40230
                   11058.77085                    1325.32662                    -658.53211
                    6349.47053                     693.37942                    -329.75468
                   12620.55561                    1230.38116                    -563.33738
                   12058.34888                     999.49921                    -448.00474
                   16871.26315                    1086.29216                    -560.80091
                    6871.16763                     274.96102                    -253.08314
        </DataArray>
        <DataArray type="Float32" Name="Moment" NumberOfComponents="3" format="ascii">
                     -17.21303                     -17.05669                      -6.19755
                      85.25366                    -297.95009                    -149.82452
                     649.81936                   -1697.12049                    -767.72467
                     634.70561                   -2209.70113                   -1021.80100
                      26.84817                    -175.82910                    -143.05444
                    -525.82364                    1833.65257                     646.87610
                    -299.67456                    1159.41192                     810.95946
                      37.63388                    -253.35160                    1009.89800
                     153.00968                    -959.60726                     849.78262
                     215.15695                   -1738.07875                     468.75797
                     429.87994                   -3895.10617                    -405.81728
                     654.04318                   -6737.38562                   -1896.04781
                     -49.87718                     419.31604                     161.45175
                    -740.49025                    8176.75741                    2666.29692
                    -593.42107                    7514.66107                    2452.84145
                    -234.84471                    1251.88505                     571.01418
                     -91.16812                    -233.60375                     152.13260
        </DataArray>
      </PointData>
    </Piece>
  </PolyData>
</VTKFile>
