<?xml version="1.0"?>
<VTKFile type="PolyData" version="0.1" byte_order="LittleEndian">
  <PolyData>
    <Piece NumberOfPoints="     19" NumberOfVerts="  0" NumberOfLines="     18"
           NumberOfStrips="  0" NumberOfPolys="      0">
      <Points>
        <DataArray type="Float32" NumberOfComponents="3" format="ascii">
                       3.27644                      -2.78921                      91.97251
                       3.37697                      -5.80953                      93.96120
                       3.48473                      -8.83168                      95.94675
                       3.60259                     -11.85621                      97.92806
                       3.73304                     -14.88348                      99.90441
                       3.87871                     -17.91364                     101.87525
                       4.04268                     -20.94679                     103.84003
                       4.22857                     -23.98301                     105.79811
                       4.44061                     -27.02223                     107.74883
                       4.68341                     -30.06426                     109.69156
                       4.96156                     -33.10870                     111.62573
                       5.27905                     -36.15496                     113.55096
                       5.63844                     -39.20227                     115.46714
                       6.03995                     -42.24982                     117.37458
                       6.48027                     -45.29694                     119.27420
                       6.95120                     -48.34326                     121.16782
                       7.43812                     -51.38902                     123.05834
                       7.68330                     -52.91184                     124.00327
                       3.22757                      -1.27941                      90.97754
        </DataArray>
      </Points>
      <PointData>
        <DataArray type="Float32" Name="TranslationalVelocity" NumberOfComponents="3" format="ascii">
                      -0.29858                      -1.73815                      -2.52897
                      -0.65093                      -3.58414                      -5.31476
                      -0.99914                      -5.42591                      -8.09917
                      -1.34178                      -7.26231                     -10.88212
                      -1.67776                      -9.09265                     -13.66356
                      -2.00672                     -10.91648                     -16.44340
                      -2.32912                     -12.73347                     -19.22151
                      -2.64637                     -14.54328                     -21.99770
                      -2.96086                     -16.34567                     -24.77163
                      -3.27581                     -18.14052                     -27.54272
                      -3.59506                     -19.92793                     -30.31022
                      -3.92273                     -21.70831                     -33.07318
                      -4.26276                     -23.48237                     -35.83061
                      -4.61834                     -25.25115                     -38.58168
                      -4.99128                     -27.01595                     -41.32604
                      -5.38121                     -28.77831                     -44.06424
                      -5.78471                     -30.53978                     -46.79824
                      -5.98920                     -31.42049                     -48.16455
                      -0.12156                      -0.81427                      -1.13574
        </DataArray>
        <DataArray type="Float32" Name="RotationalVelocity" NumberOfComponents="3" format="ascii">
                       0.92274                       0.00145                      -0.11820
                       0.92184                       0.00197                      -0.11737
                       0.92066                       0.00273                      -0.11616
                       0.91933                       0.00370                      -0.11462
                       0.91789                       0.00479                      -0.11290
                       0.91637                       0.00588                      -0.11117
                       0.91477                       0.00683                      -0.10965
                       0.91308                       0.00749                      -0.10858
                       0.91129                       0.00771                      -0.10816
                       0.90940                       0.00738                      -0.10857
                       0.90745                       0.00641                      -0.10995
                       0.90547                       0.00479                      -0.11230
                       0.90353                       0.00259                      -0.11554
                       0.90173                      -0.00003                      -0.11943
                       0.90019                      -0.00279                      -0.12355
                       0.89905                      -0.00530                      -0.12730
                       0.89850                      -0.00699                      -0.12984
                       0.89840                      -0.00756                      -0.13069
                       0.92309                       0.00125                      -0.11852
        </DataArray>
        <DataArray type="Float32" Name="TranslationalAcceleration" NumberOfComponents="3" format="ascii">
                      -1.70558                       2.26331                      -1.88544
                      -2.05048                       4.83043                      -3.64755
                      -2.37861                       7.38477                      -5.41608
                      -2.68305                       9.92318                      -7.19332
                      -2.95763                      12.44392                      -8.98088
                      -3.19581                      14.94617                     -10.77980
                      -3.39023                      17.42978                     -12.59095
                      -3.53242                      19.89514                     -14.41514
                      -3.61282                      22.34317                     -16.25319
                      -3.62125                      24.77533                     -18.10600
                      -3.54787                      27.19372                     -19.97467
                      -3.38445                      29.60101                     -21.86041
                      -3.12614                      32.00031                     -23.76439
                      -2.77351                      34.39479                     -25.68728
                      -2.33508                      36.78721                     -27.62845
                      -1.83016                      39.17933                     -29.58483
                      -1.29217                      41.57127                     -31.54972
                      -1.02006                      42.76709                     -32.53319
                      -1.52990                       0.97705                      -1.00566
        </DataArray>
        <DataArray type="Float32" Name="RotationalAcceleration" NumberOfComponents="3" format="ascii">
                       0.02042                      -0.06780                       0.00197
                       0.02380                      -0.06588                       0.00472
                       0.02867                      -0.06281                       0.00914
                       0.03454                      -0.05881                       0.01492
                       0.04101                      -0.05387                       0.02210
                       0.04786                      -0.04789                       0.03084
                       0.05504                      -0.04072                       0.04136
                       0.06246                      -0.03217                       0.05397
                       0.07002                      -0.02210                       0.06888
                       0.07762                      -0.01046                       0.08617
                       0.08509                       0.00262                       0.10565
                       0.09221                       0.01679                       0.12680
                       0.09876                       0.03140                       0.14864
                       0.10447                       0.04545                       0.16967
                       0.10898                       0.05753                       0.18776
                       0.11185                       0.06574                       0.20007
                       0.11261                       0.06765                       0.20293
                       0.11241                       0.06669                       0.20149
                       0.01918                      -0.06843                       0.00107
        </DataArray>
        <DataArray type="Float32" Name="OrientationX" NumberOfComponents="3" format="ascii">
                       0.94293                      -0.16143                      -0.29126
                       0.94288                      -0.15998                      -0.29221
                       0.94280                      -0.15772                      -0.29369
                       0.94702                      -0.14782                      -0.28513
                       0.95631                      -0.12793                      -0.26287
                       0.96109                      -0.11441                      -0.25144
                       0.96555                      -0.09996                      -0.24024
                       0.96986                      -0.08401                      -0.22871
                       0.97375                      -0.06688                      -0.21756
                       0.97697                      -0.04908                      -0.20766
                       0.97962                      -0.03041                      -0.19855
                       0.98159                      -0.01147                      -0.19063
                       0.98260                       0.00601                      -0.18562
                       0.98311                       0.02231                      -0.18164
                       0.98354                       0.03731                      -0.17678
                       0.98413                       0.04966                      -0.17034
                       0.98478                       0.05554                      -0.16467
                       0.98513                       0.05636                      -0.16231
                       0.94294                      -0.16191                      -0.29094
        </DataArray>
        <DataArray type="Float32" Name="OrientationY" NumberOfComponents="3" format="ascii">
                       0.33190                       0.52654                       0.78269
                       0.33191                       0.52634                       0.78282
                       0.33192                       0.52607                       0.78299
                       0.31935                       0.52779                       0.78705
                       0.28987                       0.53173                       0.79576
                       0.27295                       0.53352                       0.80053
                       0.25573                       0.53510                       0.80515
                       0.23744                       0.53651                       0.80980
                       0.21885                       0.53765                       0.81427
                       0.20100                       0.53842                       0.81836
                       0.18337                       0.53887                       0.82219
                       0.16665                       0.53898                       0.82567
                       0.15319                       0.53880                       0.82839
                       0.14127                       0.53844                       0.83074
                       0.12932                       0.53793                       0.83301
                       0.11744                       0.53730                       0.83517
                       0.10961                       0.53684                       0.83653
                       0.10719                       0.53671                       0.83693
                       0.33190                       0.52662                       0.78263
        </DataArray>
        <DataArray type="Float32" Name="OrientationZ" NumberOfComponents="3" format="ascii">
                       0.02701                      -0.83469                       0.55006
                       0.02856                      -0.83509                       0.54937
                       0.03101                      -0.83569                       0.54833
                       0.03415                      -0.83641                       0.54703
                       0.03797                      -0.83720                       0.54558
                       0.04256                      -0.83801                       0.54399
                       0.04807                      -0.83885                       0.54223
                       0.05468                      -0.83970                       0.54029
                       0.06251                      -0.84051                       0.53817
                       0.07164                      -0.84125                       0.53588
                       0.08199                      -0.84184                       0.53346
                       0.09327                      -0.84224                       0.53097
                       0.10499                      -0.84241                       0.52851
                       0.11633                      -0.84237                       0.52620
                       0.12617                      -0.84216                       0.52426
                       0.13300                      -0.84193                       0.52295
                       0.13486                      -0.84185                       0.52259
                       0.13428                      -0.84189                       0.52268
                       0.02650                      -0.83454                       0.55031
        </DataArray>
      </PointData>
      <Lines>
        <DataArray type="Int32" Name="connectivity" format="ascii">
      0      1
      1      2
      2      3
      3      4
      4      5
      5      6
      6      7
      7      8
      8      9
      9     10
     10     11
     11     12
     12     13
     13     14
     14     15
     15     16
     16     17
     18      0
        </DataArray>
        <DataArray type="Int32" Name="offsets" format="ascii">
      2
      4
      6
      8
     10
     12
     14
     16
     18
     20
     22
     24
     26
     28
     30
     32
     34
     36
        </DataArray>
      </Lines>
    </Piece>
  </PolyData>
</VTKFile>
