<?xml version="1.0"?>
<VTKFile type="PolyData" version="0.1" byte_order="LittleEndian">
  <PolyData>
    <Piece NumberOfPoints="     19" NumberOfVerts="  0" NumberOfLines="     18"
           NumberOfStrips="  0" NumberOfPolys="      0">
      <Points>
        <DataArray type="Float32" NumberOfComponents="3" format="ascii">
                       2.62418                      -0.48473                      86.92005
                       2.02018                      -0.98885                      83.38899
                       1.42411                      -1.49295                      79.85657
                       0.83893                      -1.99682                      76.32231
                       0.26713                      -2.50037                      72.78582
                      -0.28851                      -3.00351                      69.24669
                      -0.82430                      -3.50598                      65.70442
                      -1.33544                      -4.00735                      62.15836
                      -1.81594                      -4.50717                      58.60781
                      -2.25890                      -5.00506                      55.05213
                      -2.65710                      -5.50081                      51.49089
                      -3.00383                      -5.99440                      47.92397
                      -3.29406                      -6.48601                      44.35175
                      -3.52586                      -6.97598                      40.77500
                      -3.70221                      -7.46473                      37.19486
                      -3.83304                      -7.95278                      33.61258
                      -3.93758                      -8.44057                      30.02933
                      -3.98634                      -8.68445                      28.23759
                       2.92772                      -0.23270                      88.68532
        </DataArray>
      </Points>
      <PointData>
        <DataArray type="Float32" Name="TranslationalVelocity" NumberOfComponents="3" format="ascii">
                       0.06274                       3.00720                      -0.37319
                      -0.02880                       6.34102                      -0.83349
                      -0.12624                       9.67653                      -1.29305
                      -0.23169                      13.01404                      -1.75142
                      -0.34687                      16.35377                      -2.20834
                      -0.47392                      19.69575                      -2.66353
                      -0.61595                      23.03975                      -3.11641
                      -0.77732                      26.38528                      -3.56621
                      -0.96373                      29.73169                      -4.01213
                      -1.18194                      33.07816                      -4.45365
                      -1.43927                      36.42375                      -4.89073
                      -1.74280                      39.76741                      -5.32406
                      -2.09822                      43.10805                      -5.75505
                      -2.50841                      46.44469                      -6.18557
                      -2.97163                      49.77676                      -6.61749
                      -3.47949                      53.10460                      -7.05193
                      -4.01452                      56.42980                      -7.48838
                      -4.28600                      58.09204                      -7.70692
                       0.10736                       1.34066                      -0.14292
        </DataArray>
        <DataArray type="Float32" Name="RotationalVelocity" NumberOfComponents="3" format="ascii">
                       0.92379                       0.00844                      -0.11794
                       0.92410                       0.00970                      -0.11818
                       0.92447                       0.01168                      -0.11852
                       0.92488                       0.01413                      -0.11894
                       0.92531                       0.01706                      -0.11943
                       0.92569                       0.02069                      -0.12002
                       0.92595                       0.02534                      -0.12073
                       0.92603                       0.03139                      -0.12160
                       0.92592                       0.03918                      -0.12270
                       0.92566                       0.04892                      -0.12404
                       0.92530                       0.06066                      -0.12566
                       0.92491                       0.07416                      -0.12752
                       0.92454                       0.08885                      -0.12955
                       0.92425                       0.10373                      -0.13163
                       0.92407                       0.11733                      -0.13354
                       0.92401                       0.12759                      -0.13499
                       0.92400                       0.13181                      -0.13559
                       0.92399                       0.13203                      -0.13562
                       0.92364                       0.00803                      -0.11786
        </DataArray>
        <DataArray type="Float32" Name="TranslationalAcceleration" NumberOfComponents="3" format="ascii">
                      -0.69804                       0.28534                       2.58847
                      -0.08215                       0.71814                       5.63132
                       0.60330                       1.26117                       8.65029
                       1.39163                       1.94464                      11.63676
                       2.31434                       2.78688                      14.58452
                       3.38801                       3.79382                      17.49194
                       4.60329                       4.96135                      20.36315
                       5.91939                       6.27787                      23.20823
                       7.26340                       7.72670                      26.04220
                       8.53296                       9.28934                      28.88268
                       9.60307                      10.94822                      31.74644
                      10.33719                      12.68864                      34.64556
                      10.60271                      14.49906                      37.58415
                      10.29099                      16.36988                      40.55728
                       9.34217                      18.29168                      43.55315
                       7.77480                      20.25287                      46.55906
                       5.71973                      22.23525                      49.56948
                       4.59478                      23.22888                      51.07584
                      -0.99248                       0.09205                       1.06220
        </DataArray>
        <DataArray type="Float32" Name="RotationalAcceleration" NumberOfComponents="3" format="ascii">
                      -0.01685                      -0.05895                      -0.01676
                       0.00895                      -0.07446                      -0.01900
                       0.04481                      -0.09876                      -0.02172
                       0.08776                      -0.13307                      -0.02423
                       0.13404                      -0.17495                      -0.02624
                       0.18035                      -0.21836                      -0.02803
                       0.22419                      -0.25480                      -0.03039
                       0.26350                      -0.27525                      -0.03426
                       0.29708                      -0.27093                      -0.04067
                       0.32457                      -0.23450                      -0.05061
                       0.34639                      -0.16119                      -0.06484
                       0.36346                      -0.05000                      -0.08366
                       0.37671                       0.09521                      -0.10667
                       0.38685                       0.26453                      -0.13259
                       0.39439                       0.44090                      -0.15907
                       0.39928                       0.59903                      -0.18249
                       0.40017                       0.70433                      -0.19767
                       0.39934                       0.73883                      -0.20245
                      -0.02693                      -0.05299                      -0.01587
        </DataArray>
        <DataArray type="Float32" Name="OrientationX" NumberOfComponents="3" format="ascii">
                       0.95510                       0.22222                      -0.19596
                       0.95538                       0.22246                      -0.19432
                       0.95582                       0.22283                      -0.19173
                       0.95953                       0.21043                      -0.18716
                       0.96688                       0.18091                      -0.18002
                       0.97106                       0.16435                      -0.17331
                       0.97512                       0.14770                      -0.16533
                       0.97919                       0.13020                      -0.15567
                       0.98313                       0.11266                      -0.14412
                       0.98676                       0.09616                      -0.13063
                       0.99011                       0.08016                      -0.11517
                       0.99303                       0.06531                      -0.09814
                       0.99530                       0.05387                      -0.08052
                       0.99703                       0.04396                      -0.06318
                       0.99830                       0.03380                      -0.04748
                       0.99910                       0.02321                      -0.03558
                       0.99940                       0.01583                      -0.03078
                       0.99944                       0.01337                      -0.03061
                       0.95501                       0.22215                      -0.19649
        </DataArray>
        <DataArray type="Float32" Name="OrientationY" NumberOfComponents="3" format="ascii">
                       0.24418                      -0.96499                       0.09579
                       0.24425                      -0.96493                       0.09620
                       0.24434                      -0.96485                       0.09675
                       0.23170                      -0.96764                       0.09992
                       0.20196                      -0.97361                       0.10631
                       0.18494                      -0.97656                       0.11015
                       0.16763                      -0.97925                       0.11389
                       0.14924                      -0.98178                       0.11762
                       0.13052                      -0.98402                       0.12115
                       0.11252                      -0.98585                       0.12429
                       0.09472                      -0.98736                       0.12708
                       0.07780                      -0.98853                       0.12943
                       0.06415                      -0.98929                       0.13111
                       0.05203                      -0.98983                       0.13237
                       0.03987                      -0.99027                       0.13334
                       0.02779                      -0.99059                       0.13403
                       0.01983                      -0.99074                       0.13435
                       0.01737                      -0.99077                       0.13442
                       0.24415                      -0.96501                       0.09563
        </DataArray>
        <DataArray type="Float32" Name="OrientationZ" NumberOfComponents="3" format="ascii">
                      -0.16781                      -0.13934                      -0.97592
                      -0.16610                      -0.13936                      -0.97621
                      -0.16343                      -0.13932                      -0.97667
                      -0.16008                      -0.13924                      -0.97723
                      -0.15604                      -0.13915                      -0.97790
                      -0.15114                      -0.13901                      -0.97869
                      -0.14508                      -0.13877                      -0.97964
                      -0.13752                      -0.13841                      -0.98078
                      -0.12816                      -0.13792                      -0.98212
                      -0.11683                      -0.13734                      -0.98361
                      -0.10353                      -0.13674                      -0.98518
                      -0.08856                      -0.13616                      -0.98672
                      -0.07260                      -0.13566                      -0.98809
                      -0.05672                      -0.13526                      -0.98918
                      -0.04252                      -0.13501                      -0.98993
                      -0.03214                      -0.13490                      -0.99034
                      -0.02837                      -0.13488                      -0.99046
                      -0.02853                      -0.13488                      -0.99045
                      -0.16837                      -0.13930                      -0.97583
        </DataArray>
      </PointData>
      <Lines>
        <DataArray type="Int32" Name="connectivity" format="ascii">
      0      1
      1      2
      2      3
      3      4
      4      5
      5      6
      6      7
      7      8
      8      9
      9     10
     10     11
     11     12
     12     13
     13     14
     14     15
     15     16
     16     17
     18      0
        </DataArray>
        <DataArray type="Int32" Name="offsets" format="ascii">
      2
      4
      6
      8
     10
     12
     14
     16
     18
     20
     22
     24
     26
     28
     30
     32
     34
     36
        </DataArray>
      </Lines>
    </Piece>
  </PolyData>
</VTKFile>
