<?xml version="1.0"?>
<VTKFile type="PolyData" version="0.1" byte_order="LittleEndian">
  <PolyData>
    <Piece NumberOfPoints="     19" NumberOfVerts="  0" NumberOfLines="     18"
           NumberOfStrips="  0" NumberOfPolys="      0">
      <Points>
        <DataArray type="Float32" NumberOfComponents="3" format="ascii">
                       2.82101                       0.51106                      88.77388
                       2.60340                       1.00840                      87.51962
                       2.15140                       2.09115                      85.04875
                       1.69462                       3.21622                      82.59534
                       1.12619                       4.64896                      79.53842
                       0.50320                       6.23816                      75.80897
                      -0.08352                       7.70964                      72.02717
                      -0.64985                       9.18205                      68.24262
                      -1.18788                      10.65408                      64.45378
                      -1.69136                      12.12777                      60.66085
                      -2.15845                      13.60617                      56.86513
                      -2.57657                      15.08803                      53.06505
                      -2.93931                      16.57266                      49.26038
                      -3.24328                      18.05908                      45.45125
                      -3.48801                      19.54630                      41.63815
                      -3.65388                      20.78559                      38.45826
                      -3.76802                      21.76938                      35.91047
                      -3.88044                      22.70198                      33.34223
                      -3.93521                      23.20700                      32.07351
        </DataArray>
      </Points>
      <PointData>
        <DataArray type="Float32" Name="Force" NumberOfComponents="3" format="ascii">
                      -0.04463                      -0.92474                      -0.35613
                      60.05523                     -14.30929                     -16.00723
                      77.11753                     -40.70809                     -29.23977
                      70.37217                     -58.19943                     -34.83453
                     668.76890                     260.04811                      -9.30602
                     859.74807                     283.79375                     -28.07927
                    1032.45422                     287.72646                     -49.03881
                    1357.76495                     326.56952                     -75.86996
                    1510.97784                     306.75006                     -94.32350
                    1761.27465                     309.49285                    -111.12371
                    2175.73361                     325.25338                    -132.93193
                    2492.08642                     317.76259                    -138.46878
                    2881.71401                     323.99355                    -132.58376
                    3132.28399                     295.75737                    -116.82605
                    3342.19323                     257.46163                     -99.07416
                    3458.33654                     215.71041                     -90.29567
                    3376.85498                     170.17458                     -89.32885
                    2469.64683                     106.37818                     -68.42047
                    1107.12037                     -42.91392                     -66.14171
        </DataArray>
        <DataArray type="Float32" Name="Moment" NumberOfComponents="3" format="ascii">
                       0.00000                       0.00000                       0.00000
                       0.00000                       0.00000                       0.00000
                       0.00000                       0.00000                       0.00000
                       0.00000                       0.00000                       0.00000
                      41.51774                     -97.86413                     248.91338
                      67.00439                    -162.15827                     412.66710
                      81.66328                    -204.34417                     520.37096
                     106.55669                    -278.26386                     709.19291
                     134.32940                    -370.79341                     945.97680
                     137.57488                    -408.37287                    1043.14970
                     129.09845                    -422.17017                    1080.03824
                     118.79112                    -440.11966                    1127.93788
                      91.60274                    -397.29076                    1020.13449
                      75.31653                    -395.61223                    1017.81681
                      58.96651                    -384.30545                     990.50623
                      47.54081                    -366.41399                     945.48066
                      38.62451                    -325.42336                     840.16086
                      18.61115                    -162.38037                     419.30799
                      15.57752                    -134.86898                     348.25152
        </DataArray>
        <DataArray type="Float32" Name="TranslationalVelocity" NumberOfComponents="3" format="ascii">
                      -0.47128                       1.34463                       0.47086
                      -0.39768                       2.52425                       0.92583
                      -0.24014                       4.84806                       1.91506
                      -0.07585                       7.14763                       2.93811
                       0.13612                       9.99736                       4.23176
                       0.38288                      13.44040                       5.65283
                       0.62461                      16.89430                       6.95377
                       0.87286                      20.31454                       8.24205
                       1.12514                      23.70163                       9.51734
                       1.37801                      27.05569                      10.78265
                       1.62785                      30.38001                      12.04300
                       1.86921                      33.67342                      13.29759
                       2.09667                      36.93817                      14.54725
                       2.30556                      40.17710                      15.79245
                       2.49310                      43.39392                      17.03358
                       2.63360                      46.06169                      18.06517
                       2.73597                      48.19226                      18.88296
                       2.82845                      50.33808                      19.65798
                       2.87775                      51.39792                      20.07775
        </DataArray>
        <DataArray type="Float32" Name="RotationalVelocity" NumberOfComponents="3" format="ascii">
                       0.92174                      -0.01254                      -0.11554
                       0.92045                      -0.01290                      -0.11546
                       0.91728                      -0.01378                      -0.11525
                       0.91338                      -0.01487                      -0.11501
                       0.90748                      -0.01652                      -0.11464
                       0.89942                      -0.01874                      -0.11411
                       0.89085                      -0.02084                      -0.11345
                       0.88218                      -0.02255                      -0.11263
                       0.87369                      -0.02361                      -0.11157
                       0.86556                      -0.02374                      -0.11021
                       0.85801                      -0.02262                      -0.10846
                       0.85112                      -0.02030                      -0.10636
                       0.84500                      -0.01686                      -0.10394
                       0.83981                      -0.01259                      -0.10136
                       0.83571                      -0.00800                      -0.09885
                       0.83337                      -0.00452                      -0.09707
                       0.83231                      -0.00242                      -0.09606
                       0.83190                      -0.00100                      -0.09543
                       0.83194                      -0.00059                      -0.09528
        </DataArray>
        <DataArray type="Float32" Name="TranslationalAcceleration" NumberOfComponents="3" format="ascii">
                      -0.68734                      -0.32081                       0.88615
                      -0.48012                      -0.75536                       1.95665
                      -0.07508                      -1.70392                       4.05791
                       0.32081                      -2.70165                       6.11760
                       0.80171                      -3.99385                       8.63549
                       1.37220                      -5.47757                      11.63332
                       1.92602                      -6.92303                      14.59004
                       2.43892                      -8.43124                      17.46046
                       2.89330                     -10.00271                      20.24843
                       3.26497                     -11.63839                      22.95862
                       3.53858                     -13.33229                      25.60310
                       3.67419                     -15.08474                      28.18142
                       3.64326                     -16.88783                      30.70033
                       3.42568                     -18.73116                      33.16636
                       3.01786                     -20.60273                      35.58633
                       2.55062                     -22.17519                      37.57544
                       2.11001                     -23.43313                      39.15735
                       1.64929                     -24.66137                      40.76177
                       1.41276                     -25.29926                      41.54452
        </DataArray>
        <DataArray type="Float32" Name="OrientationX" NumberOfComponents="3" format="ascii">
                       0.97010                       0.22998                      -0.07758
                       0.97017                       0.22983                      -0.07719
                       0.97035                       0.22939                      -0.07610
                       0.97061                       0.22880                      -0.07460
                       0.97103                       0.22782                      -0.07212
                       0.97700                       0.19740                      -0.08067
                       0.98098                       0.17459                      -0.08489
                       0.98425                       0.15394                      -0.08690
                       0.98739                       0.13164                      -0.08796
                       0.99027                       0.10809                      -0.08762
                       0.99278                       0.08482                      -0.08486
                       0.99489                       0.06103                      -0.08038
                       0.99651                       0.03855                      -0.07399
                       0.99764                       0.02010                      -0.06563
                       0.99830                       0.00232                      -0.05827
                       0.99844                      -0.01159                      -0.05454
                       0.99832                      -0.02105                      -0.05398
                       0.99819                      -0.02587                      -0.05430
                       0.99818                      -0.02575                      -0.05460
        </DataArray>
        <DataArray type="Float32" Name="OrientationY" NumberOfComponents="3" format="ascii">
                       0.18323                      -0.90357                      -0.38728
                       0.18324                      -0.90358                      -0.38726
                       0.18325                      -0.90360                      -0.38720
                       0.18326                      -0.90363                      -0.38713
                       0.18328                      -0.90367                      -0.38702
                       0.15222                      -0.91051                      -0.38444
                       0.12973                      -0.91485                      -0.38238
                       0.11001                      -0.91821                      -0.38050
                       0.08912                      -0.92131                      -0.37849
                       0.06755                      -0.92398                      -0.37643
                       0.04711                      -0.92603                      -0.37451
                       0.02679                      -0.92757                      -0.37269
                       0.00836                      -0.92853                      -0.37115
                      -0.00562                      -0.92898                      -0.37009
                      -0.01939                      -0.92916                      -0.36916
                      -0.03091                      -0.92912                      -0.36848
                      -0.03949                      -0.92898                      -0.36801
                      -0.04408                      -0.92887                      -0.36777
                      -0.04408                      -0.92887                      -0.36777
        </DataArray>
        <DataArray type="Float32" Name="OrientationZ" NumberOfComponents="3" format="ascii">
                      -0.15916                       0.36148                      -0.91869
                      -0.15875                       0.36156                      -0.91873
                      -0.15759                       0.36178                      -0.91885
                      -0.15599                       0.36208                      -0.91900
                      -0.15334                       0.36259                      -0.91925
                      -0.14934                       0.36331                      -0.91962
                      -0.14442                       0.36409                      -0.92010
                      -0.13836                       0.36495                      -0.92069
                      -0.13087                       0.36588                      -0.92142
                      -0.12165                       0.36685                      -0.92229
                      -0.11035                       0.36781                      -0.92333
                      -0.09731                       0.36863                      -0.92447
                      -0.08301                       0.36924                      -0.92562
                      -0.06841                       0.36958                      -0.92668
                      -0.05500                       0.36967                      -0.92754
                      -0.04641                       0.36959                      -0.92803
                      -0.04240                       0.36953                      -0.92825
                      -0.04093                       0.36949                      -0.92833
                      -0.04125                       0.36950                      -0.92831
        </DataArray>
      </PointData>
      <Lines>
        <DataArray type="Int32" Name="connectivity" format="ascii">
      0      1
      1      2
      2      3
      3      4
      4      5
      5      6
      6      7
      7      8
      8      9
      9     10
     10     11
     11     12
     12     13
     13     14
     14     15
     15     16
     16     17
     17     18
        </DataArray>
        <DataArray type="Int32" Name="offsets" format="ascii">
      2
      4
      6
      8
     10
     12
     14
     16
     18
     20
     22
     24
     26
     28
     30
     32
     34
     36
        </DataArray>
      </Lines>
    </Piece>
  </PolyData>
</VTKFile>
