<?xml version="1.0"?>
<VTKFile type="PolyData" version="0.1" byte_order="LittleEndian">
  <PolyData>
    <Piece NumberOfPoints="     19" NumberOfVerts="  0" NumberOfLines="     18"
           NumberOfStrips="  0" NumberOfPolys="      0">
      <Points>
        <DataArray type="Float32" NumberOfComponents="3" format="ascii">
                       3.22646                      -1.12213                      91.16083
                       3.28319                      -2.12837                      92.08395
                       3.36658                      -4.20462                      93.86270
                       3.43869                      -6.31223                      95.60795
                       3.52718                      -8.96725                      97.76708
                       3.71189                     -12.06223                     100.45133
                       3.95033                     -15.07546                     103.22086
                       4.20890                     -18.09262                     105.98431
                       4.49560                     -21.11274                     108.74185
                       4.81601                     -24.13705                     111.49116
                       5.17110                     -27.16712                     114.22990
                       5.57273                     -30.20187                     116.95708
                       6.02649                     -33.24021                     119.67214
                       6.53500                     -36.28081                     122.37503
                       7.09822                     -39.32233                     125.06613
                       7.60233                     -41.85687                     127.30140
                       8.02332                     -43.87893                     129.09192
                       8.45265                     -45.86449                     130.92258
                       8.66276                     -46.88493                     131.80702
        </DataArray>
      </Points>
      <PointData>
        <DataArray type="Float32" Name="Force" NumberOfComponents="3" format="ascii">
                       0.44097                       3.23753                       3.48247
                      72.90940                      18.62222                      15.63095
                      94.03650                      43.16709                      40.77170
                      86.04531                      56.08643                      55.11239
                     659.54417                    -204.43902                    -268.32360
                     859.38392                    -228.59732                    -313.91448
                     975.41296                    -209.18093                    -309.09757
                    1239.72509                    -218.80538                    -353.23783
                    1329.99377                    -185.36153                    -340.37660
                    1527.84236                    -171.07651                    -366.54946
                    1895.04972                    -159.72507                    -429.10653
                    2170.65849                    -132.24452                    -477.61827
                    2587.81607                    -118.99716                    -580.97330
                    2863.77079                     -80.39530                    -647.14436
                    3142.06199                     -40.11142                    -717.69413
                    3325.05091                      -5.00652                    -758.79377
                    3322.99709                      19.59980                    -749.50784
                    2505.23729                      21.04354                    -562.62516
                    1240.05026                      75.30824                    -205.80361
        </DataArray>
        <DataArray type="Float32" Name="Moment" NumberOfComponents="3" format="ascii">
                       0.00000                       0.00000                       0.00000
                       0.00000                       0.00000                       0.00000
                       0.00000                       0.00000                       0.00000
                       0.00000                       0.00000                       0.00000
                      -8.86370                     136.56819                    -125.84009
                     -22.23686                     316.17169                    -291.11752
                     -32.37906                     420.21013                    -386.55399
                     -50.53935                     592.36510                    -544.30062
                     -77.51688                     812.04391                    -745.11195
                     -97.82023                     907.49689                    -831.28016
                    -119.33042                     972.49745                    -888.98507
                    -143.29561                    1025.44245                    -935.17149
                    -138.34184                     874.30445                    -795.29127
                    -153.91584                     869.84887                    -789.17701
                    -163.56740                     843.24905                    -763.22600
                    -164.17678                     801.90983                    -724.71726
                    -149.30397                     712.33091                    -643.32229
                     -75.90973                     359.45875                    -324.56354
                     -65.76827                     312.29757                    -282.00368
        </DataArray>
        <DataArray type="Float32" Name="TranslationalVelocity" NumberOfComponents="3" format="ascii">
                       0.11267                      -0.97530                      -0.97165
                       0.00304                      -1.83428                      -1.90123
                      -0.22440                      -3.48598                      -3.81846
                      -0.45642                      -5.10406                      -5.76266
                      -0.75046                      -7.10330                      -8.20832
                      -1.09476                      -9.59325                     -11.05424
                      -1.43316                     -12.16230                     -13.81877
                      -1.77755                     -14.72230                     -16.58017
                      -2.12873                     -17.27446                     -19.33755
                      -2.48756                     -19.81771                     -22.09218
                      -2.85385                     -22.35100                     -24.84644
                      -3.22830                     -24.87496                     -27.59904
                      -3.61043                     -27.39046                     -30.34949
                      -3.99922                     -29.89848                     -33.09720
                      -4.39301                     -32.40009                     -35.84179
                      -4.72334                     -34.48106                     -38.12671
                      -4.98728                     -36.14943                     -39.94874
                      -5.24543                     -37.85475                     -41.73782
                      -5.37765                     -38.67894                     -42.65736
        </DataArray>
        <DataArray type="Float32" Name="RotationalVelocity" NumberOfComponents="3" format="ascii">
                       0.92364                       0.00851                      -0.11666
                       0.92335                       0.00845                      -0.11670
                       0.92260                       0.00829                      -0.11683
                       0.92167                       0.00806                      -0.11702
                       0.92022                       0.00765                      -0.11738
                       0.91822                       0.00697                      -0.11799
                       0.91609                       0.00610                      -0.11880
                       0.91392                       0.00507                      -0.11979
                       0.91179                       0.00390                      -0.12092
                       0.90976                       0.00265                      -0.12216
                       0.90790                       0.00135                      -0.12344
                       0.90622                       0.00009                      -0.12471
                       0.90475                      -0.00106                      -0.12587
                       0.90352                      -0.00202                      -0.12683
                       0.90257                      -0.00268                      -0.12749
                       0.90205                      -0.00290                      -0.12770
                       0.90184                      -0.00281                      -0.12759
                       0.90179                      -0.00251                      -0.12725
                       0.90183                      -0.00227                      -0.12700
        </DataArray>
        <DataArray type="Float32" Name="TranslationalAcceleration" NumberOfComponents="3" format="ascii">
                      -0.92527                       0.67109                      -0.78742
                      -1.02329                       1.49599                      -1.63064
                      -1.21327                       3.20886                      -3.25068
                      -1.39776                       4.96464                      -4.81611
                      -1.62266                       7.20234                      -6.70672
                      -1.89771                       9.85034                      -8.98708
                      -2.18222                      12.48714                     -11.25711
                      -2.47143                      15.18919                     -13.43385
                      -2.76088                      17.95370                     -15.52163
                      -3.03840                      20.77724                     -17.52630
                      -3.28935                      23.65092                     -19.46239
                      -3.48832                      26.57377                     -21.33412
                      -3.60870                      29.54040                     -23.15483
                      -3.62583                      32.54624                     -24.93862
                      -3.52314                      35.58695                     -26.69973
                      -3.34709                      38.14305                     -28.15951
                      -3.15127                      40.19651                     -29.33246
                      -2.92472                      42.23295                     -30.54942
                      -2.80348                      43.26841                     -31.12724
        </DataArray>
        <DataArray type="Float32" Name="OrientationX" NumberOfComponents="3" format="ascii">
                       0.94687                      -0.18716                      -0.26154
                       0.94685                      -0.18683                      -0.26184
                       0.94680                      -0.18591                      -0.26269
                       0.94672                      -0.18466                      -0.26385
                       0.94659                      -0.18256                      -0.26577
                       0.95607                      -0.15854                      -0.24656
                       0.96218                      -0.13955                      -0.23397
                       0.96696                      -0.12159                      -0.22405
                       0.97149                      -0.10183                      -0.21412
                       0.97552                      -0.08045                      -0.20469
                       0.97861                      -0.05842                      -0.19724
                       0.98099                      -0.03536                      -0.19081
                       0.98240                      -0.01279                      -0.18636
                       0.98268                       0.00689                      -0.18519
                       0.98273                       0.02545                      -0.18327
                       0.98291                       0.03903                      -0.17992
                       0.98327                       0.04741                      -0.17590
                       0.98354                       0.05133                      -0.17324
                       0.98361                       0.05101                      -0.17296
        </DataArray>
        <DataArray type="Float32" Name="OrientationY" NumberOfComponents="3" format="ascii">
                       0.31886                       0.65241                       0.68752
                       0.31887                       0.65231                       0.68761
                       0.31888                       0.65207                       0.68783
                       0.31890                       0.65178                       0.68811
                       0.31893                       0.65134                       0.68851
                       0.28861                       0.65617                       0.69723
                       0.26660                       0.65896                       0.70335
                       0.24728                       0.66094                       0.70853
                       0.22677                       0.66268                       0.71374
                       0.20560                       0.66407                       0.71885
                       0.18551                       0.66496                       0.72347
                       0.16556                       0.66543                       0.72787
                       0.14747                       0.66543                       0.73174
                       0.13379                       0.66509                       0.73468
                       0.12032                       0.66455                       0.73749
                       0.10904                       0.66399                       0.73974
                       0.10063                       0.66352                       0.74136
                       0.09611                       0.66326                       0.74220
                       0.09611                       0.66326                       0.74220
        </DataArray>
        <DataArray type="Float32" Name="OrientationZ" NumberOfComponents="3" format="ascii">
                       0.04196                      -0.73439                       0.67743
                       0.04233                      -0.73456                       0.67722
                       0.04342                      -0.73501                       0.67667
                       0.04491                      -0.73559                       0.67594
                       0.04741                      -0.73650                       0.67477
                       0.05125                      -0.73777                       0.67311
                       0.05602                      -0.73912                       0.67124
                       0.06193                      -0.74052                       0.66917
                       0.06921                      -0.74195                       0.66688
                       0.07810                      -0.74333                       0.66435
                       0.08889                      -0.74459                       0.66158
                       0.10124                      -0.74562                       0.65864
                       0.11465                      -0.74635                       0.65561
                       0.12822                      -0.74673                       0.65265
                       0.14056                      -0.74681                       0.65002
                       0.14834                      -0.74672                       0.64839
                       0.15186                      -0.74665                       0.64765
                       0.15300                      -0.74663                       0.64741
                       0.15258                      -0.74665                       0.64748
        </DataArray>
      </PointData>
      <Lines>
        <DataArray type="Int32" Name="connectivity" format="ascii">
      0      1
      1      2
      2      3
      3      4
      4      5
      5      6
      6      7
      7      8
      8      9
      9     10
     10     11
     11     12
     12     13
     13     14
     14     15
     15     16
     16     17
     17     18
        </DataArray>
        <DataArray type="Int32" Name="offsets" format="ascii">
      2
      4
      6
      8
     10
     12
     14
     16
     18
     20
     22
     24
     26
     28
     30
     32
     34
     36
        </DataArray>
      </Lines>
    </Piece>
  </PolyData>
</VTKFile>
