<?xml version="1.0"?>
<VTKFile type="PolyData" version="0.1" byte_order="LittleEndian">
  <PolyData>
    <Piece NumberOfPoints="     19" NumberOfVerts="  0" NumberOfLines="     18"
           NumberOfStrips="  0" NumberOfPolys="      0">
      <Points>
        <DataArray type="Float32" NumberOfComponents="3" format="ascii">
                       3.24231                       2.06910                      92.70250
                       3.43861                       4.36693                      95.48976
                       3.64303                       6.66619                      98.27525
                       3.85864                       8.96708                     101.05854
                       4.08791                      11.26975                     103.83927
                       4.33345                      13.57425                     106.61709
                       4.59849                      15.88044                     109.39171
                       4.88712                      18.18800                     112.16282
                       5.20426                      20.49653                     114.92999
                       5.55546                      22.80561                     117.69257
                       5.94637                      25.11481                     120.44969
                       6.38206                      27.42373                     123.20032
                       6.86607                      29.73201                     125.94340
                       7.39922                      32.03935                     128.67816
                       7.97830                      34.34560                     131.40456
                       8.59435                      36.65089                     134.12374
                       9.23093                      38.95563                     136.83871
                       9.55176                      40.10795                     138.19565
                       3.14576                       0.92051                      91.30849
        </DataArray>
      </Points>
      <PointData>
        <DataArray type="Float32" Name="TranslationalVelocity" NumberOfComponents="3" format="ascii">
                      -0.32568                      -2.32763                       1.91731
                      -0.08861                      -4.92606                       4.04277
                       0.15486                      -7.53252                       6.17637
                       0.40754                     -10.14929                       8.32003
                       0.67203                     -12.77773                      10.47477
                       0.95065                     -15.41845                      12.64088
                       1.24511                     -18.07169                      14.81803
                       1.55642                     -20.73745                      17.00540
                       1.88492                     -23.41541                      19.20182
                       2.23019                     -26.10501                      21.40597
                       2.59112                     -28.80540                      23.61643
                       2.96584                     -31.51539                      25.83185
                       3.35177                     -34.23348                      28.05102
                       3.74567                     -36.95795                      30.27294
                       4.14368                     -39.68688                      32.49691
                       4.54141                     -42.41834                      34.72267
                       4.93396                     -45.15065                      36.95028
                       5.12831                     -46.51683                      38.06457
                      -0.44297                      -1.03008                       0.85632
        </DataArray>
        <DataArray type="Float32" Name="RotationalVelocity" NumberOfComponents="3" format="ascii">
                       0.92277                      -0.01143                      -0.11599
                       0.92533                      -0.01049                      -0.11693
                       0.92885                      -0.00897                      -0.11842
                       0.93299                      -0.00690                      -0.12041
                       0.93741                      -0.00431                      -0.12285
                       0.94190                      -0.00127                      -0.12566
                       0.94630                       0.00207                      -0.12872
                       0.95049                       0.00558                      -0.13189
                       0.95439                       0.00910                      -0.13506
                       0.95796                       0.01248                      -0.13809
                       0.96119                       0.01557                      -0.14085
                       0.96405                       0.01820                      -0.14321
                       0.96655                       0.02023                      -0.14506
                       0.96867                       0.02152                      -0.14626
                       0.97036                       0.02192                      -0.14671
                       0.97155                       0.02134                      -0.14631
                       0.97210                       0.01966                      -0.14497
                       0.97220                       0.01854                      -0.14405
                       0.92178                      -0.01175                      -0.11565
        </DataArray>
        <DataArray type="Float32" Name="TranslationalAcceleration" NumberOfComponents="3" format="ascii">
                      -1.42127                      -1.64821                      -2.45018
                      -1.91666                      -3.66432                      -4.81656
                      -2.38038                      -5.74574                      -7.15898
                      -2.79734                      -7.90989                      -9.47186
                      -3.15309                     -10.16737                     -11.75257
                      -3.43894                     -12.52252                     -14.00104
                      -3.65646                     -14.97489                     -16.21884
                      -3.81969                     -17.52035                     -18.40826
                      -3.95514                     -20.15197                     -20.57136
                      -4.10070                     -22.86087                     -22.70883
                      -4.30292                     -25.63693                     -24.81900
                      -4.61274                     -28.46912                     -26.89724
                      -5.07976                     -31.34569                     -28.93629
                      -5.74507                     -34.25430                     -30.92774
                      -6.63265                     -37.18284                     -32.86494
                      -7.73939                     -40.12068                     -34.74730
                      -9.02381                     -43.05968                     -36.58617
                      -9.70250                     -44.52863                     -37.49711
                      -1.16745                      -0.65388                      -1.26188
        </DataArray>
        <DataArray type="Float32" Name="RotationalAcceleration" NumberOfComponents="3" format="ascii">
                       0.00171                      -0.05907                       0.00764
                       0.01646                      -0.05396                       0.00242
                       0.03671                      -0.04585                      -0.00565
                       0.06057                      -0.03435                      -0.01675
                       0.08608                      -0.02009                      -0.03024
                       0.11174                      -0.00486                      -0.04455
                       0.13662                       0.00877                      -0.05747
                       0.16001                       0.01809                      -0.06675
                       0.18162                       0.02045                      -0.07017
                       0.20147                       0.01359                      -0.06588
                       0.21984                      -0.00400                      -0.05265
                       0.23703                      -0.03278                      -0.03013
                       0.25319                      -0.07181                       0.00091
                       0.26816                      -0.11844                       0.03829
                       0.28134                      -0.16798                       0.07818
                       0.29157                      -0.21338                       0.11487
                       0.29677                      -0.24496                       0.14052
                       0.29777                      -0.25591                       0.14948
                      -0.00405                      -0.06099                       0.00961
        </DataArray>
        <DataArray type="Float32" Name="OrientationX" NumberOfComponents="3" format="ascii">
                       0.98693                      -0.15108                       0.05613
                       0.98684                      -0.15214                       0.05485
                       0.98669                      -0.15379                       0.05284
                       0.98843                      -0.14582                       0.04182
                       0.99200                      -0.12481                       0.01897
                       0.99343                      -0.11440                       0.00398
                       0.99446                      -0.10445                      -0.01197
                       0.99508                      -0.09452                      -0.02956
                       0.99517                      -0.08533                      -0.04846
                       0.99464                      -0.07778                      -0.06806
                       0.99350                      -0.07142                      -0.08864
                       0.99175                      -0.06660                      -0.10954
                       0.98956                      -0.06476                      -0.12878
                       0.98710                      -0.06397                      -0.14680
                       0.98457                      -0.06216                      -0.16359
                       0.98235                      -0.05827                      -0.17772
                       0.98128                      -0.05393                      -0.18489
                       0.98115                      -0.05181                      -0.18618
                       0.98696                      -0.15074                       0.05655
        </DataArray>
        <DataArray type="Float32" Name="OrientationY" NumberOfComponents="3" format="ascii">
                       0.15208                       0.75760                      -0.63476
                       0.15203                       0.75709                      -0.63538
                       0.15197                       0.75639                      -0.63622
                       0.13875                       0.75757                      -0.63784
                       0.10797                       0.76089                      -0.63984
                       0.09033                       0.76211                      -0.64112
                       0.07243                       0.76317                      -0.64212
                       0.05349                       0.76419                      -0.64276
                       0.03429                       0.76510                      -0.64300
                       0.01590                       0.76583                      -0.64285
                      -0.00220                       0.76647                      -0.64228
                      -0.01933                       0.76701                      -0.64134
                      -0.03312                       0.76736                      -0.64037
                      -0.04531                       0.76767                      -0.63925
                      -0.05747                       0.76807                      -0.63778
                      -0.06947                       0.76856                      -0.63599
                      -0.07732                       0.76893                      -0.63464
                      -0.07973                       0.76906                      -0.63418
                       0.15209                       0.75780                      -0.63451
        </DataArray>
        <DataArray type="Float32" Name="OrientationZ" NumberOfComponents="3" format="ascii">
                       0.05338                       0.63499                       0.77067
                       0.05514                       0.63535                       0.77025
                       0.05788                       0.63578                       0.76969
                       0.06132                       0.63626                       0.76904
                       0.06543                       0.63677                       0.76828
                       0.07031                       0.63727                       0.76743
                       0.07620                       0.63770                       0.76651
                       0.08334                       0.63802                       0.76549
                       0.09194                       0.63823                       0.76433
                       0.10212                       0.63832                       0.76296
                       0.11381                       0.63830                       0.76133
                       0.12673                       0.63817                       0.75940
                       0.14030                       0.63794                       0.75720
                       0.15359                       0.63765                       0.75486
                       0.16529                       0.63734                       0.75264
                       0.17365                       0.63712                       0.75095
                       0.17639                       0.63705                       0.75037
                       0.17605                       0.63707                       0.75043
                       0.05279                       0.63484                       0.77084
        </DataArray>
      </PointData>
      <Lines>
        <DataArray type="Int32" Name="connectivity" format="ascii">
      0      1
      1      2
      2      3
      3      4
      4      5
      5      6
      6      7
      7      8
      8      9
      9     10
     10     11
     11     12
     12     13
     13     14
     14     15
     15     16
     16     17
     18      0
        </DataArray>
        <DataArray type="Int32" Name="offsets" format="ascii">
      2
      4
      6
      8
     10
     12
     14
     16
     18
     20
     22
     24
     26
     28
     30
     32
     34
     36
        </DataArray>
      </Lines>
    </Piece>
  </PolyData>
</VTKFile>
