<?xml version="1.0"?>
<VTKFile type="PolyData" version="0.1" byte_order="LittleEndian">
  <PolyData>
    <Piece NumberOfPoints="     19" NumberOfVerts="  0" NumberOfLines="     18"
           NumberOfStrips="  0" NumberOfPolys="      0">
      <Points>
        <DataArray type="Float32" NumberOfComponents="3" format="ascii">
                       3.28917                      -2.69948                      92.09653
                       3.40684                      -5.62432                      94.22229
                       3.53157                      -8.55119                      96.34483
                       3.66618                     -11.48076                      98.46306
                       3.81311                     -14.41337                     100.57622
                       3.97500                     -17.34923                     102.68379
                       4.15493                     -20.28845                     104.78518
                       4.35661                     -23.23112                     106.87977
                       4.58439                     -26.17718                     108.96687
                       4.84303                     -29.12644                     111.04582
                       5.13730                     -32.07850                     113.11603
                       5.47138                     -35.03274                     115.17706
                       5.84802                     -37.98834                     117.22877
                       6.26757                     -40.94447                     119.27142
                       6.72679                     -43.90036                     121.30591
                       7.21744                     -46.85559                     123.33410
                       7.72472                     -49.81030                     125.35899
                       7.98021                     -51.28760                     126.37107
                       3.23170                      -1.23748                      91.03300
        </DataArray>
      </Points>
      <PointData>
        <DataArray type="Float32" Name="TranslationalVelocity" NumberOfComponents="3" format="ascii">
                      -0.21065                      -1.85079                      -2.43075
                      -0.54346                      -3.82435                      -5.12776
                      -0.87392                      -5.79299                      -7.82298
                      -1.20132                      -7.75534                     -10.51616
                      -1.52522                      -9.71060                     -13.20712
                      -1.84570                     -11.65833                     -15.89571
                      -2.16345                     -13.59821                     -18.58182
                      -2.47984                     -15.53003                     -21.26535
                      -2.79693                     -17.45368                     -23.94607
                      -3.11734                     -19.36921                     -26.62360
                      -3.44406                     -21.27685                     -29.29738
                      -3.78018                     -23.17714                     -31.96666
                      -4.12852                     -25.07084                     -34.63064
                      -4.49115                     -26.95900                     -37.28865
                      -4.86887                     -28.84290                     -39.94046
                      -5.26056                     -30.72402                     -42.58669
                      -5.66254                     -32.60397                     -45.22930
                      -5.86544                     -33.54384                     -46.55004
                      -0.04376                      -0.86298                      -1.08185
        </DataArray>
        <DataArray type="Float32" Name="RotationalVelocity" NumberOfComponents="3" format="ascii">
                       0.92242                       0.00549                      -0.11815
                       0.92133                       0.00581                      -0.11764
                       0.91986                       0.00627                      -0.11693
                       0.91816                       0.00684                      -0.11606
                       0.91632                       0.00745                      -0.11513
                       0.91438                       0.00799                      -0.11428
                       0.91239                       0.00838                      -0.11364
                       0.91034                       0.00848                      -0.11340
                       0.90825                       0.00819                      -0.11368
                       0.90614                       0.00743                      -0.11462
                       0.90403                       0.00615                      -0.11626
                       0.90197                       0.00435                      -0.11862
                       0.90001                       0.00212                      -0.12157
                       0.89825                      -0.00037                      -0.12491
                       0.89678                      -0.00288                      -0.12828
                       0.89574                      -0.00503                      -0.13117
                       0.89529                      -0.00629                      -0.13289
                       0.89524                      -0.00664                      -0.13336
                       0.92285                       0.00535                      -0.11835
        </DataArray>
        <DataArray type="Float32" Name="TranslationalAcceleration" NumberOfComponents="3" format="ascii">
                      -1.76737                       2.26476                      -1.98506
                      -2.18881                       4.80635                      -3.77091
                      -2.56033                       7.33139                      -5.56700
                      -2.86143                       9.83504                      -7.37813
                      -3.07451                      12.31466                      -9.20786
                      -3.18836                      14.77013                     -11.05740
                      -3.20104                      17.20333                     -12.92561
                      -3.12138                      19.61774                     -14.80913
                      -2.96929                      22.01784                     -16.70239
                      -2.77495                      24.40833                     -18.59820
                      -2.57697                      26.79299                     -20.48845
                      -2.41921                      29.17389                     -22.36476
                      -2.34650                      31.55081                     -24.21920
                      -2.39913                      33.92148                     -26.04502
                      -2.60623                      36.28255                     -27.83787
                      -2.97800                      38.63157                     -29.59753
                      -3.49677                      40.96967                     -31.32961
                      -3.78867                      42.13645                     -32.18987
                      -1.54680                       0.99053                      -1.09409
        </DataArray>
        <DataArray type="Float32" Name="RotationalAcceleration" NumberOfComponents="3" format="ascii">
                      -0.00998                      -0.08215                      -0.00625
                      -0.00537                      -0.07578                       0.00226
                       0.00156                      -0.06600                       0.01534
                       0.01041                      -0.05295                       0.03279
                       0.02014                      -0.03742                       0.05361
                       0.02979                      -0.02074                       0.07601
                       0.03865                      -0.00462                       0.09769
                       0.04594                       0.00911                       0.11616
                       0.05108                       0.01865                       0.12900
                       0.05378                       0.02243                       0.13404
                       0.05402                       0.01928                       0.12970
                       0.05206                       0.00866                       0.11521
                       0.04831                      -0.00918                       0.09090
                       0.04335                      -0.03298                       0.05847
                       0.03791                      -0.06030                       0.02123
                       0.03285                      -0.08732                      -0.01563
                       0.02901                      -0.10869                      -0.04477
                       0.02749                      -0.11718                      -0.05636
                      -0.01171                      -0.08451                      -0.00939
        </DataArray>
        <DataArray type="Float32" Name="OrientationX" NumberOfComponents="3" format="ascii">
                       0.94395                      -0.16911                      -0.28347
                       0.94390                      -0.16773                      -0.28448
                       0.94380                      -0.16556                      -0.28604
                       0.94797                      -0.15529                      -0.27792
                       0.95714                      -0.13440                      -0.25656
                       0.96183                      -0.12038                      -0.24573
                       0.96622                      -0.10544                      -0.23518
                       0.97043                      -0.08898                      -0.22438
                       0.97422                      -0.07131                      -0.21403
                       0.97733                      -0.05301                      -0.20499
                       0.97986                      -0.03384                      -0.19680
                       0.98171                      -0.01442                      -0.18985
                       0.98259                       0.00345                      -0.18575
                       0.98297                       0.02011                      -0.18265
                       0.98328                       0.03551                      -0.17861
                       0.98376                       0.04832                      -0.17286
                       0.98435                       0.05456                      -0.16755
                       0.98469                       0.05553                      -0.16524
                       0.94397                      -0.16957                      -0.28314
        </DataArray>
        <DataArray type="Float32" Name="OrientationY" NumberOfComponents="3" format="ascii">
                       0.32855                       0.56402                       0.75759
                       0.32856                       0.56378                       0.75776
                       0.32857                       0.56345                       0.75800
                       0.31600                       0.56520                       0.76203
                       0.28650                       0.56928                       0.77061
                       0.26956                       0.57112                       0.77535
                       0.25234                       0.57272                       0.77994
                       0.23405                       0.57416                       0.78458
                       0.21546                       0.57532                       0.78904
                       0.19761                       0.57610                       0.79313
                       0.17998                       0.57656                       0.79699
                       0.16327                       0.57667                       0.80049
                       0.14983                       0.57648                       0.80325
                       0.13792                       0.57612                       0.80565
                       0.12598                       0.57560                       0.80797
                       0.11412                       0.57497                       0.81018
                       0.10629                       0.57451                       0.81157
                       0.10387                       0.57437                       0.81198
                       0.32855                       0.56411                       0.75752
        </DataArray>
        <DataArray type="Float32" Name="OrientationZ" NumberOfComponents="3" format="ascii">
                       0.03177                      -0.80826                       0.58796
                       0.03328                      -0.80872                       0.58725
                       0.03567                      -0.80939                       0.58618
                       0.03874                      -0.81020                       0.58487
                       0.04249                      -0.81108                       0.58339
                       0.04701                      -0.81199                       0.58177
                       0.05246                      -0.81294                       0.57998
                       0.05902                      -0.81389                       0.57801
                       0.06687                      -0.81482                       0.57585
                       0.07605                      -0.81566                       0.57352
                       0.08650                      -0.81636                       0.57104
                       0.09794                      -0.81685                       0.56848
                       0.10986                      -0.81710                       0.56593
                       0.12143                      -0.81712                       0.56353
                       0.13150                      -0.81696                       0.56150
                       0.13854                      -0.81675                       0.56012
                       0.14054                      -0.81668                       0.55972
                       0.14000                      -0.81671                       0.55981
                       0.03127                      -0.80810                       0.58821
        </DataArray>
      </PointData>
      <Lines>
        <DataArray type="Int32" Name="connectivity" format="ascii">
      0      1
      1      2
      2      3
      3      4
      4      5
      5      6
      6      7
      7      8
      8      9
      9     10
     10     11
     11     12
     12     13
     13     14
     14     15
     15     16
     16     17
     18      0
        </DataArray>
        <DataArray type="Int32" Name="offsets" format="ascii">
      2
      4
      6
      8
     10
     12
     14
     16
     18
     20
     22
     24
     26
     28
     30
     32
     34
     36
        </DataArray>
      </Lines>
    </Piece>
  </PolyData>
</VTKFile>
