<?xml version="1.0"?>
<VTKFile type="PolyData" version="0.1" byte_order="LittleEndian">
  <PolyData>
    <Piece NumberOfPoints="     17" NumberOfVerts="  0" NumberOfLines="      0"
           NumberOfStrips="  0" NumberOfPolys="      0">
      <Points>
        <DataArray type="Float32" NumberOfComponents="3" format="ascii">
                       3.24424                      -2.93220                      91.74484
                       3.31286                      -6.10403                      93.48328
                       3.38904                      -9.27736                      95.21865
                       3.47577                     -12.45269                      96.94985
                       3.57564                     -15.63031                      98.67615
                       3.69132                     -18.81033                     100.39700
                       3.82587                     -21.99285                     102.11186
                       3.98289                     -25.17789                     103.82009
                       4.16650                     -28.36540                     105.52105
                       4.38114                     -31.55515                     107.21412
                       4.63123                     -34.74676                     108.89879
                       4.92053                     -37.93964                     110.57474
                       5.25142                     -41.13308                     112.24192
                       5.62391                     -44.32633                     113.90070
                       6.03454                     -47.51879                     115.55205
                       6.47506                     -50.71023                     117.19774
                       6.93092                     -53.90101                     118.84059
        </DataArray>
      </Points>
      <PointData>
        <DataArray type="Float32" Name="Force" NumberOfComponents="3" format="ascii">
                     194.95805                      42.27079                      69.57541
                     623.52619                     127.09843                     204.55266
                    1959.30984                    -399.77228                    -827.37826
                    3231.13205                    -666.90757                   -1400.43887
                    1948.27232                    -351.80829                    -767.00314
                    4185.31490                    -650.85023                   -1494.03708
                    5034.66253                    -651.73570                   -1622.26036
                    5548.15800                    -578.86445                   -1620.58582
                    5951.09913                    -495.77279                   -1617.48345
                    7537.27841                    -474.47573                   -1923.17092
                    8692.94610                    -380.31992                   -2119.83949
                   10117.71217                    -282.97187                   -2437.55516
                    5866.79014                     -93.70397                   -1400.41020
                   11790.59906                     -41.69313                   -2777.18245
                   11489.80743                     118.26478                   -2657.29825
                   16437.93842                     388.08529                   -3664.16949
                    6872.33627                     243.02026                   -1419.35775
        </DataArray>
        <DataArray type="Float32" Name="Moment" NumberOfComponents="3" format="ascii">
                     -17.12817                       7.42908                      23.66484
                     170.34880                     109.16868                     329.25040
                    1086.46896                     667.37632                    1880.74100
                    1151.59176                     874.97811                    2424.82788
                      66.87568                       0.72522                     227.51802
                    -878.46201                    -916.15163                   -1797.08761
                    -608.07316                    -118.24813                   -1514.14093
                    -214.78574                    1226.20080                    -812.92401
                     -24.54231                    1702.61892                    -276.65495
                     136.93544                    2119.85685                     384.24651
                     629.62712                    3072.36006                    2290.98103
                    1351.26058                    3861.02998                    5296.52963
                    -125.23635                      48.90261                    -478.58664
                   -1758.63936                   -3411.06402                   -7186.67258
                   -1568.31560                   -3268.79432                   -6707.15557
                    -399.01341                    -181.51677                   -1199.87825
                     -77.68161                     398.98042                     154.37381
        </DataArray>
      </PointData>
    </Piece>
  </PolyData>
</VTKFile>
