<?xml version="1.0"?>
<VTKFile type="PolyData" version="0.1" byte_order="LittleEndian">
  <PolyData>
    <Piece NumberOfPoints="     17" NumberOfVerts="  0" NumberOfLines="      0"
           NumberOfStrips="  0" NumberOfPolys="      0">
      <Points>
        <DataArray type="Float32" NumberOfComponents="3" format="ascii">
                       3.20048                       3.02638                      91.43086
                       3.22426                       6.36171                      92.83171
                       3.25511                       9.69690                      94.23275
                       3.29574                      13.03187                      95.63406
                       3.34840                      16.36657                      97.03561
                       3.41557                      19.70097                      98.43723
                       3.50038                      23.03502                      99.83873
                       3.60682                      26.36858                     101.23989
                       3.73975                      29.70150                     102.64030
                       3.90461                      33.03355                     104.03935
                       4.10702                      36.36443                     105.43623
                       4.35203                      39.69378                     106.82990
                       4.64324                      43.02119                     108.21930
                       4.98168                      46.34628                     109.60360
                       5.36441                      49.66886                     110.98245
                       5.78303                      52.98920                     112.35640
                       6.22180                      56.30820                     113.72741
        </DataArray>
      </Points>
      <PointData>
        <DataArray type="Float32" Name="Force" NumberOfComponents="3" format="ascii">
                     155.08731                      26.54431                     -65.61348
                     493.53149                      91.84833                    -229.52714
                    1957.01691                    -187.32373                     391.34048
                    3413.90844                    -374.48668                     773.06572
                    2071.65468                    -203.98026                     398.24058
                    4393.02904                    -367.36729                     647.21762
                    5222.45278                    -371.78719                     541.09970
                    5745.05142                    -360.48081                     375.70609
                    6179.02927                    -369.54323                     226.67976
                    7882.55203                    -475.25487                      95.71308
                    9205.24734                    -595.99432                     -72.68374
                   10739.21306                    -790.50858                    -224.56454
                    6280.91854                    -508.97375                    -188.89848
                   12815.57560                   -1134.46422                    -504.96482
                   12746.53094                   -1232.90739                    -634.47597
                   18744.56579                   -1910.79946                   -1156.25886
                    7793.09734                    -769.87680                    -618.99064
        </DataArray>
        <DataArray type="Float32" Name="Moment" NumberOfComponents="3" format="ascii">
                     -19.44581                      10.26643                     -13.29209
                      68.49389                     186.45893                    -290.55880
                     570.68143                    1093.32161                   -1741.28625
                     671.31245                    1705.73706                   -2268.29611
                      24.29123                     367.62160                     -72.48702
                    -460.05434                    -568.26829                    2084.51571
                    -293.34957                    -773.45641                    1240.04349
                    -151.78310                    -967.23037                    -274.00062
                    -103.23392                    -839.43311                   -1020.85497
                     -96.44513                    -496.02439                   -1798.65981
                     -56.33065                     488.28117                   -3843.78981
                       3.83966                    2286.34872                   -6543.15719
                     -15.27532                    -211.50996                     337.05553
                     -20.20675                   -3300.31761                    7818.95869
                      44.54720                   -3056.92419                    7528.65205
                     -62.77986                    -163.04568                     959.14537
                    -131.60808                     -12.46405                    -120.34719
        </DataArray>
      </PointData>
    </Piece>
  </PolyData>
</VTKFile>
