<?xml version="1.0"?>
<VTKFile type="PolyData" version="0.1" byte_order="LittleEndian">
  <PolyData>
    <Piece NumberOfPoints="     17" NumberOfVerts="  0" NumberOfLines="      0"
           NumberOfStrips="  0" NumberOfPolys="      0">
      <Points>
        <DataArray type="Float32" NumberOfComponents="3" format="ascii">
                       2.62256                       0.08237                      86.89468
                       2.01280                       0.20867                      83.33103
                       1.41060                       0.33654                      79.76615
                       0.81888                       0.46658                      76.19960
                       0.24013                       0.59913                      72.63102
                      -0.32305                       0.73435                      69.06004
                      -0.86756                       0.87244                      65.48629
                      -1.38961                       1.01364                      61.90932
                      -1.88477                       1.15811                      58.32866
                      -2.34810                       1.30590                      54.74389
                      -2.77463                       1.45693                      51.15471
                      -3.15998                       1.61086                      47.56099
                      -3.50116                       1.76723                      43.96292
                      -3.79766                       1.92547                      40.36096
                      -4.05270                       2.08493                      36.75584
                      -4.27471                       2.24501                      33.14853
                      -4.47900                       2.40529                      29.54014
        </DataArray>
      </Points>
      <PointData>
        <DataArray type="Float32" Name="Force" NumberOfComponents="3" format="ascii">
                     133.06298                     -64.20849                     -25.11049
                     451.47167                    -219.97107                     -84.07203
                    1638.98752                     573.86759                    -252.07120
                    2818.55690                     999.94018                    -424.21583
                    1772.27891                     555.52297                    -263.28243
                    3980.18876                    1101.88835                    -579.78243
                    5011.99928                    1204.82208                    -706.53154
                    5752.94937                    1194.91341                    -774.53631
                    6394.51984                    1177.71437                    -810.48043
                    8354.57720                    1371.93941                    -980.85783
                    9975.79873                    1485.75286                   -1059.60650
                   11867.48488                    1666.40912                   -1112.17988
                    7003.58004                     943.18270                    -588.59075
                   14427.15441                    1854.27243                   -1072.84588
                   14559.46785                    1770.40657                    -931.26227
                   21656.18108                    2455.03234                   -1210.79391
                    9032.42237                     836.74950                    -483.87201
        </DataArray>
        <DataArray type="Float32" Name="Moment" NumberOfComponents="3" format="ascii">
                     -17.64788                     -17.21529                      -1.04467
                      83.46669                    -297.24272                     -72.68589
                     643.67535                   -1688.40332                    -405.28571
                     666.15602                   -2288.62872                    -533.16914
                      25.29872                    -200.35826                    -137.89390
                    -572.03929                    1839.05226                      87.96972
                    -332.84601                    1271.20877                     435.67088
                      52.02596                     -35.20601                    1009.67042
                     195.32312                    -780.16544                    1032.85415
                     291.10376                   -1691.36189                     805.60347
                     614.60029                   -4178.13650                     442.90198
                    1020.26024                   -7719.96175                    -370.88306
                     -75.52252                     437.89456                     -95.20731
                   -1245.96947                    9460.72268                     164.84163
                   -1154.86268                    9205.63708                     -11.41905
                    -272.15137                    1018.68658                    -769.39196
                    -154.55125                    -102.51406                     -54.35272
        </DataArray>
      </PointData>
    </Piece>
  </PolyData>
</VTKFile>
