<?xml version="1.0"?>
<VTKFile type="PolyData" version="0.1" byte_order="LittleEndian">
  <PolyData>
    <Piece NumberOfPoints="     19" NumberOfVerts="  0" NumberOfLines="     18"
           NumberOfStrips="  0" NumberOfPolys="      0">
      <Points>
        <DataArray type="Float32" NumberOfComponents="3" format="ascii">
                       3.11928                      -0.50529                      91.53112
                       3.21516                      -0.96228                      92.81558
                       3.38162                      -1.96549                      95.35480
                       3.53856                      -3.01181                      97.87948
                       3.73322                      -4.34684                     101.02585
                       4.03576                      -5.81795                     104.84227
                       4.38197                      -7.17086                     108.69704
                       4.74353                      -8.52556                     112.54979
                       5.12631                      -9.88049                     116.40044
                       5.53319                     -11.23742                     120.24794
                       5.96348                     -12.59920                     124.09118
                       6.42433                     -13.96448                     127.92965
                       6.91791                     -15.33269                     131.76303
                       7.44445                     -16.70312                     135.59123
                       8.00349                     -18.07514                     139.41428
                       8.48924                     -19.21915                     142.59699
                       8.88725                     -20.12714                     145.14433
                       9.28770                     -20.98348                     147.71030
                       9.48532                     -21.45083                     148.97922
        </DataArray>
      </Points>
      <PointData>
        <DataArray type="Float32" Name="Force" NumberOfComponents="3" format="ascii">
                       0.13407                       3.15045                       1.10149
                      71.18461                      24.90541                       3.42510
                      89.81174                      58.38796                      13.74972
                      80.72359                      76.25237                      20.64329
                     698.37491                    -280.56144                    -154.84238
                     904.29041                    -319.11633                    -188.03629
                    1013.20526                    -290.68755                    -191.33369
                    1247.31462                    -296.12598                    -219.98306
                    1254.95095                    -235.46892                    -206.65773
                    1325.80126                    -197.81678                    -209.43410
                    1477.26264                    -158.39939                    -223.17812
                    1437.44765                     -98.50054                    -210.08448
                    1473.14550                     -59.79349                    -214.33736
                    1265.38793                      -7.94803                    -180.20987
                    1017.71822                      27.71341                    -140.98031
                     635.31532                      45.33179                     -81.10553
                    1061.65166                      50.47245                    -146.63062
                    1077.15570                      35.32207                    -154.78226
                    1312.52222                      29.85071                    -192.62199
        </DataArray>
        <DataArray type="Float32" Name="Moment" NumberOfComponents="3" format="ascii">
                       0.00000                       0.00000                       0.00000
                       0.00000                       0.00000                       0.00000
                       0.00000                       0.00000                       0.00000
                       0.00000                       0.00000                       0.00000
                     -13.65342                      60.32975                    -170.89255
                     -31.08291                     131.77419                    -373.11558
                     -43.60068                     176.14346                    -498.49638
                     -64.96213                     248.50154                    -702.85401
                     -94.43449                     339.93900                    -960.79504
                    -112.41037                     378.60871                   -1069.20970
                    -128.66656                     403.32693                   -1137.92984
                    -145.85011                     424.74061                   -1197.08549
                    -123.48165                     334.61787                    -942.04017
                    -127.89326                     324.42245                    -912.34240
                    -129.25165                     310.38791                    -872.03564
                    -123.75211                     287.92187                    -808.44795
                    -115.13191                     264.51249                    -742.54196
                     -59.87413                     137.27587                    -385.34709
                     -64.04206                     147.31440                    -413.55187
        </DataArray>
        <DataArray type="Float32" Name="TranslationalVelocity" NumberOfComponents="3" format="ascii">
                       0.14115                      -1.37243                      -0.43923
                       0.09702                      -2.58029                      -0.86567
                       0.00074                      -4.96545                      -1.80166
                      -0.09262                      -7.33615                      -2.77820
                      -0.19623                     -10.29136                      -4.02526
                      -0.27748                     -13.88466                      -5.40307
                      -0.30663                     -17.52015                      -6.67545
                      -0.28750                     -21.15758                      -7.95532
                      -0.20594                     -24.79863                      -9.24379
                      -0.04376                     -28.44375                     -10.54582
                       0.20847                     -32.09203                     -11.86622
                       0.58239                     -35.74415                     -13.20963
                       1.09875                     -39.39888                     -14.58012
                       1.77103                     -43.05418                     -15.98073
                       2.59901                     -46.70768                     -17.41260
                       3.39127                     -49.74987                     -18.62670
                       4.07905                     -52.18435                     -19.60168
                       4.79106                     -54.63632                     -20.53091
                       5.14360                     -55.84884                     -21.03229
        </DataArray>
        <DataArray type="Float32" Name="RotationalVelocity" NumberOfComponents="3" format="ascii">
                       0.93194                       0.00498                      -0.11315
                       0.93193                       0.00580                      -0.11286
                       0.93201                       0.00816                      -0.11204
                       0.93221                       0.01137                      -0.11092
                       0.93263                       0.01669                      -0.10908
                       0.93327                       0.02464                      -0.10632
                       0.93407                       0.03450                      -0.10290
                       0.93519                       0.04695                      -0.09859
                       0.93679                       0.06291                      -0.09308
                       0.93889                       0.08329                      -0.08605
                       0.94144                       0.10920                      -0.07710
                       0.94419                       0.13999                      -0.06644
                       0.94688                       0.17458                      -0.05444
                       0.94931                       0.21070                      -0.04187
                       0.95124                       0.24466                      -0.03004
                       0.95229                       0.26709                      -0.02220
                       0.95274                       0.27815                      -0.01834
                       0.95292                       0.28304                      -0.01662
                       0.95292                       0.28289                      -0.01668
        </DataArray>
        <DataArray type="Float32" Name="TranslationalAcceleration" NumberOfComponents="3" format="ascii">
                       0.79650                       0.50266                      -0.89062
                       0.73677                       0.91564                      -2.01813
                       0.59861                       1.82240                      -4.24008
                       0.39904                       2.77503                      -6.44064
                       0.02572                       4.00741                      -9.16938
                      -0.64661                       5.40336                     -12.46301
                      -1.61814                       6.73494                     -15.76031
                      -2.91168                       8.10353                     -19.02004
                      -4.50333                       9.49882                     -22.24927
                      -6.32143                      10.90972                     -25.46277
                      -8.24876                      12.32713                     -28.68040
                     -10.15996                      13.74244                     -31.93097
                     -11.88823                      15.15413                     -35.25016
                     -13.26932                      16.56858                     -38.67557
                     -14.17108                      17.99704                     -42.23808
                     -14.51912                      19.20469                     -45.31750
                     -14.52408                      20.17631                     -47.85389
                     -14.31149                      21.10720                     -50.45078
                     -14.18514                      21.60798                     -51.73956
        </DataArray>
        <DataArray type="Float32" Name="OrientationX" NumberOfComponents="3" format="ascii">
                       0.96070                      -0.23122                      -0.15361
                       0.96067                      -0.23111                      -0.15394
                       0.96060                      -0.23078                      -0.15485
                       0.96051                      -0.23034                      -0.15610
                       0.96035                      -0.22961                      -0.15816
                       0.96817                      -0.19922                      -0.15154
                       0.97306                      -0.17663                      -0.14818
                       0.97679                      -0.15641                      -0.14635
                       0.98023                      -0.13480                      -0.14485
                       0.98320                      -0.11224                      -0.14393
                       0.98540                      -0.09041                      -0.14423
                       0.98703                      -0.06846                      -0.14522
                       0.98794                      -0.04813                      -0.14714
                       0.98811                      -0.03206                      -0.15034
                       0.98814                      -0.01654                      -0.15264
                       0.98823                      -0.00415                      -0.15292
                       0.98841                       0.00455                      -0.15171
                       0.98858                       0.00898                      -0.15042
                       0.98865                       0.00882                      -0.14998
        </DataArray>
        <DataArray type="Float32" Name="OrientationY" NumberOfComponents="3" format="ascii">
                       0.26849                       0.91454                       0.30254
                       0.26849                       0.91453                       0.30257
                       0.26850                       0.91449                       0.30267
                       0.26851                       0.91445                       0.30279
                       0.26852                       0.91439                       0.30296
                       0.23777                       0.92115                       0.30813
                       0.21547                       0.92538                       0.31183
                       0.19590                       0.92864                       0.31504
                       0.17516                       0.93164                       0.31837
                       0.15376                       0.93425                       0.32176
                       0.13347                       0.93627                       0.32494
                       0.11331                       0.93783                       0.32808
                       0.09503                       0.93885                       0.33096
                       0.08118                       0.93935                       0.33321
                       0.06755                       0.93964                       0.33542
                       0.05614                       0.93973                       0.33727
                       0.04765                       0.93971                       0.33862
                       0.04310                       0.93968                       0.33934
                       0.04310                       0.93968                       0.33934
        </DataArray>
        <DataArray type="Float32" Name="OrientationZ" NumberOfComponents="3" format="ascii">
                       0.07053                      -0.33189                       0.94068
                       0.07085                      -0.33201                       0.94061
                       0.07176                      -0.33232                       0.94043
                       0.07300                      -0.33274                       0.94019
                       0.07506                      -0.33341                       0.93979
                       0.07821                      -0.33435                       0.93920
                       0.08205                      -0.33536                       0.93851
                       0.08663                      -0.33640                       0.93773
                       0.09204                      -0.33745                       0.93683
                       0.09835                      -0.33848                       0.93582
                       0.10566                      -0.33944                       0.93467
                       0.11373                      -0.34028                       0.93342
                       0.12221                      -0.34096                       0.93210
                       0.13054                      -0.34145                       0.93079
                       0.13788                      -0.34176                       0.92962
                       0.14230                      -0.34188                       0.92891
                       0.14410                      -0.34193                       0.92861
                       0.14440                      -0.34195                       0.92856
                       0.14393                      -0.34195                       0.92863
        </DataArray>
      </PointData>
      <Lines>
        <DataArray type="Int32" Name="connectivity" format="ascii">
      0      1
      1      2
      2      3
      3      4
      4      5
      5      6
      6      7
      7      8
      8      9
      9     10
     10     11
     11     12
     12     13
     13     14
     14     15
     15     16
     16     17
     17     18
        </DataArray>
        <DataArray type="Int32" Name="offsets" format="ascii">
      2
      4
      6
      8
     10
     12
     14
     16
     18
     20
     22
     24
     26
     28
     30
     32
     34
     36
        </DataArray>
      </Lines>
    </Piece>
  </PolyData>
</VTKFile>
