<?xml version="1.0"?>
<VTKFile type="PolyData" version="0.1" byte_order="LittleEndian">
  <PolyData>
    <Piece NumberOfPoints="     19" NumberOfVerts="  0" NumberOfLines="     18"
           NumberOfStrips="  0" NumberOfPolys="      0">
      <Points>
        <DataArray type="Float32" NumberOfComponents="3" format="ascii">
                       3.13415                      -1.46074                      90.62440
                       3.12783                      -2.75985                      91.04885
                       3.08264                      -5.38661                      91.81028
                       3.02521                      -8.02749                      92.52835
                       2.95162                     -11.33794                      93.39692
                       2.94665                     -15.27040                      94.56060
                       3.00026                     -19.16662                      95.83475
                       3.07575                     -23.06503                      97.10115
                       3.18145                     -26.96519                      98.36017
                       3.32327                     -30.86750                      99.60907
                       3.50216                     -34.77245                     100.84505
                       3.73066                     -38.67914                     102.06741
                       4.01466                     -42.58655                     103.27597
                       4.35688                     -46.49345                     104.47121
                       4.75712                     -50.39869                     105.65409
                       5.12746                     -53.65143                     106.63240
                       5.44259                     -56.25025                     107.41907
                       5.76766                     -58.83287                     108.25726
                       5.92450                     -60.13633                     108.63686
        </DataArray>
      </Points>
      <PointData>
        <DataArray type="Float32" Name="Force" NumberOfComponents="3" format="ascii">
                       0.74738                       1.93496                       5.87821
                      85.51280                       7.82275                      24.74078
                     110.04004                      19.40544                      59.75923
                     100.21016                      25.65914                      78.17020
                     714.48149                    -120.26358                    -370.41486
                     922.49634                    -131.91589                    -420.77792
                    1069.16481                    -125.28007                    -422.87841
                    1381.90100                    -133.41266                    -489.99742
                    1507.22973                    -113.15760                    -475.92963
                    1748.70293                     -98.94883                    -509.83383
                    2164.29590                     -78.90320                    -581.70704
                    2470.07591                     -41.62944                    -624.67900
                    2919.99136                       0.86112                    -724.97143
                    3168.77358                      60.63983                    -756.52087
                    3364.04294                     123.20661                    -769.55084
                    3437.12765                     168.61847                    -748.92657
                    3334.20465                     187.71758                    -692.53143
                    2441.25236                     145.53422                    -491.15389
                    1340.15722                     104.91667                    -187.62127
        </DataArray>
        <DataArray type="Float32" Name="Moment" NumberOfComponents="3" format="ascii">
                       0.00000                       0.00000                       0.00000
                       0.00000                       0.00000                       0.00000
                       0.00000                       0.00000                       0.00000
                       0.00000                       0.00000                       0.00000
                      -0.49761                     227.20177                     -74.72602
                      -3.15832                     467.47450                    -153.47967
                      -7.47102                     602.63742                    -197.42368
                     -16.03658                     830.62802                    -271.38358
                     -31.08370                    1120.08076                    -364.75124
                     -47.18789                    1242.46969                    -402.99115
                     -66.44116                    1320.94101                    -426.37408
                     -89.38217                    1389.51377                    -446.02977
                     -95.28667                    1198.39017                    -382.36581
                    -112.99919                    1191.39774                    -377.81204
                    -125.34078                    1152.42453                    -363.41386
                    -128.51508                    1093.49266                    -343.61134
                    -117.96011                     971.14992                    -304.68108
                     -60.04818                     489.38034                    -153.45737
                     -53.07888                     434.37443                    -136.23686
        </DataArray>
        <DataArray type="Float32" Name="TranslationalVelocity" NumberOfComponents="3" format="ascii">
                      -0.53062                      -0.42379                      -1.31795
                      -0.68547                      -0.81161                      -2.50726
                      -0.99774                      -1.50374                      -4.91386
                      -1.31120                      -2.15584                      -7.33866
                      -1.70324                      -2.94597                     -10.38768
                      -2.16856                      -4.01924                     -14.02407
                      -2.62735                      -5.20711                     -17.64489
                      -3.08047                      -6.39655                     -21.28691
                      -3.52449                      -7.58885                     -24.95008
                      -3.95513                      -8.78175                     -28.63485
                      -4.36969                      -9.97158                     -32.33954
                      -4.76149                     -11.15866                     -36.06494
                      -5.12585                     -12.34208                     -39.80931
                      -5.45969                     -13.52101                     -43.57027
                      -5.76281                     -14.69474                     -47.34469
                      -5.99523                     -15.66923                     -50.49749
                      -6.17061                     -16.45429                     -53.02077
                      -6.34140                     -17.29013                     -55.52969
                      -6.42773                     -17.66938                     -56.79597
        </DataArray>
        <DataArray type="Float32" Name="RotationalVelocity" NumberOfComponents="3" format="ascii">
                       0.91476                      -0.00899                      -0.11624
                       0.91543                      -0.00900                      -0.11626
                       0.91712                      -0.00900                      -0.11625
                       0.91922                      -0.00898                      -0.11616
                       0.92244                      -0.00891                      -0.11591
                       0.92688                      -0.00875                      -0.11535
                       0.93166                      -0.00843                      -0.11431
                       0.93661                      -0.00789                      -0.11263
                       0.94161                      -0.00709                      -0.11012
                       0.94657                      -0.00594                      -0.10659
                       0.95141                      -0.00439                      -0.10182
                       0.95602                      -0.00249                      -0.09598
                       0.96031                      -0.00031                      -0.08931
                       0.96411                       0.00199                      -0.08230
                       0.96723                       0.00415                      -0.07572
                       0.96908                       0.00556                      -0.07141
                       0.96992                       0.00623                      -0.06935
                       0.97027                       0.00650                      -0.06853
                       0.97024                       0.00646                      -0.06865
        </DataArray>
        <DataArray type="Float32" Name="TranslationalAcceleration" NumberOfComponents="3" format="ascii">
                      -1.34042                       1.48310                      -0.59802
                      -1.38516                       2.56141                      -1.04159
                      -1.45955                       4.75219                      -1.85038
                      -1.52008                       6.97057                      -2.60813
                      -1.57810                       9.77557                      -3.50465
                      -1.64303                      13.13974                      -4.64720
                      -1.69757                      16.52004                      -5.84108
                      -1.72952                      19.95770                      -6.98181
                      -1.75106                      23.45354                      -8.06820
                      -1.78150                      27.00753                      -9.09573
                      -1.84089                      30.61285                     -10.06468
                      -1.96007                      34.27063                     -10.96665
                      -2.16918                      37.97393                     -11.79920
                      -2.49376                      41.71337                     -12.56190
                      -2.94819                      45.47765                     -13.25803
                      -3.42124                      48.62539                     -13.79538
                      -3.85559                      51.14531                     -14.21093
                      -4.32425                      53.65621                     -14.66920
                      -4.55823                      54.91913                     -14.85894
        </DataArray>
        <DataArray type="Float32" Name="OrientationX" NumberOfComponents="3" format="ascii">
                       0.93852                      -0.11179                      -0.32663
                       0.93852                      -0.11133                      -0.32678
                       0.93853                      -0.11004                      -0.32720
                       0.93853                      -0.10829                      -0.32778
                       0.93853                      -0.10536                      -0.32873
                       0.94904                      -0.09161                      -0.30153
                       0.95599                      -0.07946                      -0.28243
                       0.96159                      -0.06701                      -0.26619
                       0.96701                      -0.05283                      -0.24921
                       0.97201                      -0.03685                      -0.23203
                       0.97611                      -0.01934                      -0.21641
                       0.97953                      -0.00037                      -0.20129
                       0.98195                       0.01905                      -0.18817
                       0.98311                       0.03722                      -0.17920
                       0.98397                       0.05397                      -0.16998
                       0.98472                       0.06532                      -0.16143
                       0.98543                       0.07141                      -0.15435
                       0.98587                       0.07387                      -0.15032
                       0.98593                       0.07341                      -0.15018
        </DataArray>
        <DataArray type="Float32" Name="OrientationY" NumberOfComponents="3" format="ascii">
                       0.34520                       0.29254                       0.89177
                       0.34520                       0.29242                       0.89181
                       0.34520                       0.29213                       0.89191
                       0.34520                       0.29177                       0.89203
                       0.34520                       0.29123                       0.89220
                       0.31509                       0.29364                       0.90249
                       0.29319                       0.29483                       0.90946
                       0.27394                       0.29551                       0.91522
                       0.25350                       0.29602                       0.92093
                       0.23238                       0.29627                       0.92640
                       0.21233                       0.29621                       0.93122
                       0.19239                       0.29582                       0.93567
                       0.17430                       0.29511                       0.93943
                       0.16059                       0.29425                       0.94214
                       0.14710                       0.29325                       0.94465
                       0.13580                       0.29233                       0.94663
                       0.12736                       0.29162                       0.94802
                       0.12283                       0.29124                       0.94873
                       0.12283                       0.29124                       0.94873
        </DataArray>
        <DataArray type="Float32" Name="OrientationZ" NumberOfComponents="3" format="ascii">
                      -0.00414                      -0.94970                       0.31314
                      -0.00373                      -0.94979                       0.31288
                      -0.00257                      -0.95003                       0.31216
                      -0.00096                      -0.95034                       0.31121
                       0.00173                      -0.95083                       0.30970
                       0.00586                      -0.95152                       0.30754
                       0.01100                      -0.95224                       0.30515
                       0.01733                      -0.95299                       0.30252
                       0.02512                      -0.95372                       0.29965
                       0.03461                      -0.95439                       0.29654
                       0.04609                      -0.95493                       0.29324
                       0.05920                      -0.95524                       0.28983
                       0.07343                      -0.95527                       0.28647
                       0.08779                      -0.95500                       0.28331
                       0.10083                      -0.95451                       0.28061
                       0.10903                      -0.95408                       0.27899
                       0.11271                      -0.95386                       0.27828
                       0.11386                      -0.95379                       0.27805
                       0.11339                      -0.95383                       0.27812
        </DataArray>
      </PointData>
      <Lines>
        <DataArray type="Int32" Name="connectivity" format="ascii">
      0      1
      1      2
      2      3
      3      4
      4      5
      5      6
      6      7
      7      8
      8      9
      9     10
     10     11
     11     12
     12     13
     13     14
     14     15
     15     16
     16     17
     17     18
        </DataArray>
        <DataArray type="Int32" Name="offsets" format="ascii">
      2
      4
      6
      8
     10
     12
     14
     16
     18
     20
     22
     24
     26
     28
     30
     32
     34
     36
        </DataArray>
      </Lines>
    </Piece>
  </PolyData>
</VTKFile>
