<?xml version="1.0"?>
<VTKFile type="PolyData" version="0.1" byte_order="LittleEndian">
  <PolyData>
    <Piece NumberOfPoints="     19" NumberOfVerts="  0" NumberOfLines="     18"
           NumberOfStrips="  0" NumberOfPolys="      0">
      <Points>
        <DataArray type="Float32" NumberOfComponents="3" format="ascii">
                       3.25272                      -1.25298                      93.17961
                       3.50603                      -2.61344                      96.52211
                       3.76587                      -3.97591                      99.86330
                       4.03479                      -5.34104                     103.20268
                       4.31500                      -6.70922                     106.53988
                       4.60874                      -8.08063                     109.87458
                       4.91848                      -9.45541                     113.20645
                       5.24706                     -10.83366                     116.53507
                       5.59772                     -12.21539                     119.85999
                       5.97387                     -13.60049                     123.18071
                       6.37884                     -14.98872                     126.49672
                       6.81539                     -16.37965                     129.80759
                       7.28517                     -17.77274                     133.11300
                       7.78794                     -19.16738                     136.41291
                       8.32071                     -20.56296                     139.70773
                       8.87674                     -21.95896                     142.99855
                       9.44437                     -23.35508                     146.28735
                       9.72929                     -24.05315                     147.93156
                       3.12734                      -0.57314                      91.50810
        </DataArray>
      </Points>
      <PointData>
        <DataArray type="Float32" Name="TranslationalVelocity" NumberOfComponents="3" format="ascii">
                       0.11853                      -2.90692                      -1.11400
                      -0.00049                      -6.04202                      -2.38103
                      -0.10968                      -9.17767                      -3.65120
                      -0.20546                     -12.31419                      -4.92569
                      -0.28481                     -15.45168                      -6.20536
                      -0.34329                     -18.59043                      -7.49106
                      -0.37375                     -21.73109                      -8.78416
                      -0.36558                     -24.87460                     -10.08663
                      -0.30473                     -28.02186                     -11.40106
                      -0.17433                     -31.17346                     -12.73056
                       0.04396                     -34.32937                     -14.07863
                       0.36788                     -37.48871                     -15.44887
                       0.81188                     -40.64987                     -16.84452
                       1.38364                     -43.81086                     -18.26773
                       2.08010                     -46.96982                     -19.71840
                       2.88268                     -50.12571                     -21.19258
                       3.75193                     -53.27938                     -22.68097
                       4.19680                     -54.85591                     -23.42719
                       0.17993                      -1.33946                      -0.48108
        </DataArray>
        <DataArray type="Float32" Name="RotationalVelocity" NumberOfComponents="3" format="ascii">
                       0.92925                       0.00940                      -0.11343
                       0.92952                       0.01140                      -0.11264
                       0.93003                       0.01459                      -0.11138
                       0.93066                       0.01849                      -0.10984
                       0.93138                       0.02325                      -0.10796
                       0.93230                       0.02946                      -0.10550
                       0.93363                       0.03794                      -0.10215
                       0.93545                       0.04963                      -0.09754
                       0.93779                       0.06540                      -0.09130
                       0.94061                       0.08583                      -0.08321
                       0.94375                       0.11109                      -0.07317
                       0.94700                       0.14072                      -0.06137
                       0.95014                       0.17347                      -0.04829
                       0.95297                       0.20710                      -0.03483
                       0.95524                       0.23826                      -0.02233
                       0.95672                       0.26224                      -0.01269
                       0.95730                       0.27287                      -0.00842
                       0.95736                       0.27397                      -0.00797
                       0.92919                       0.00879                      -0.11367
        </DataArray>
        <DataArray type="Float32" Name="TranslationalAcceleration" NumberOfComponents="3" format="ascii">
                       0.60636                       1.48628                      -2.25786
                       0.37324                       2.95023                      -5.06940
                       0.03205                       4.38243                      -7.88798
                      -0.45760                       5.77794                     -10.71311
                      -1.12799                       7.13341                     -13.54328
                      -2.00314                       8.44588                     -16.37730
                      -3.09918                       9.71401                     -19.21452
                      -4.42415                      10.93787                     -22.05515
                      -5.97775                      12.11813                     -24.90056
                      -7.75125                      13.25640                     -27.75346
                      -9.72753                      14.35589                     -30.61803
                     -11.88121                      15.42197                     -33.50022
                     -14.17898                      16.46260                     -36.40780
                     -16.58000                      17.48801                     -39.34978
                     -19.03630                      18.50887                     -42.33443
                     -21.49320                      19.53346                     -45.36571
                     -23.88992                      20.56463                     -48.43897
                     -25.06528                      21.08181                     -49.98483
                       0.70145                       0.74720                      -0.85379
        </DataArray>
        <DataArray type="Float32" Name="RotationalAcceleration" NumberOfComponents="3" format="ascii">
                      -0.08688                       0.05691                      -0.00951
                      -0.07874                       0.03513                      -0.01897
                      -0.06876                       0.00206                      -0.03316
                      -0.05801                      -0.04035                      -0.05120
                      -0.04649                      -0.08995                      -0.07222
                      -0.03442                      -0.14466                      -0.09536
                      -0.02231                      -0.20246                      -0.11976
                      -0.01011                      -0.26122                      -0.14456
                       0.00225                      -0.31876                      -0.16887
                       0.01482                      -0.37290                      -0.19181
                       0.02757                      -0.42150                      -0.21252
                       0.04033                      -0.46246                      -0.23012
                       0.05276                      -0.49379                      -0.24378
                       0.06432                      -0.51362                      -0.25270
                       0.07434                      -0.52021                      -0.25613
                       0.08184                      -0.51204                      -0.25337
                       0.08557                      -0.48783                      -0.24380
                       0.08633                      -0.47158                      -0.23725
                      -0.09028                       0.06476                      -0.00607
        </DataArray>
        <DataArray type="Float32" Name="OrientationX" NumberOfComponents="3" format="ascii">
                       0.95930                      -0.22907                      -0.16513
                       0.95920                      -0.22851                      -0.16651
                       0.95903                      -0.22763                      -0.16867
                       0.96237                      -0.21453                      -0.16682
                       0.96971                      -0.18517                      -0.15928
                       0.97330                      -0.16751                      -0.15691
                       0.97655                      -0.14932                      -0.15508
                       0.97957                      -0.12983                      -0.15359
                       0.98215                      -0.10970                      -0.15281
                       0.98411                      -0.08993                      -0.15313
                       0.98554                      -0.07005                      -0.15428
                       0.98640                      -0.05078                      -0.15632
                       0.98655                      -0.03449                      -0.15975
                       0.98637                      -0.01979                      -0.16337
                       0.98615                      -0.00557                      -0.16576
                       0.98611                       0.00762                      -0.16590
                       0.98635                       0.01544                      -0.16396
                       0.98656                       0.01747                      -0.16247
                       0.95934                      -0.22926                      -0.16466
        </DataArray>
        <DataArray type="Float32" Name="OrientationY" NumberOfComponents="3" format="ascii">
                       0.27374                       0.89792                       0.34467
                       0.27375                       0.89788                       0.34477
                       0.27376                       0.89783                       0.34490
                       0.26098                       0.90071                       0.34729
                       0.23106                       0.90683                       0.35251
                       0.21390                       0.90988                       0.35547
                       0.19647                       0.91265                       0.35843
                       0.17798                       0.91522                       0.36151
                       0.15920                       0.91745                       0.36460
                       0.14119                       0.91923                       0.36754
                       0.12343                       0.92062                       0.37045
                       0.10659                       0.92160                       0.37322
                       0.09304                       0.92214                       0.37550
                       0.08104                       0.92243                       0.37756
                       0.06902                       0.92255                       0.37964
                       0.05709                       0.92252                       0.38171
                       0.04924                       0.92242                       0.38304
                       0.04681                       0.92238                       0.38344
                       0.27374                       0.89794                       0.34463
        </DataArray>
        <DataArray type="Float32" Name="OrientationZ" NumberOfComponents="3" format="ascii">
                       0.06932                      -0.37585                       0.92409
                       0.07072                      -0.37628                       0.92380
                       0.07292                      -0.37695                       0.92336
                       0.07575                      -0.37776                       0.92280
                       0.07917                      -0.37863                       0.92215
                       0.08322                      -0.37955                       0.92142
                       0.08801                      -0.38049                       0.92059
                       0.09364                      -0.38146                       0.91963
                       0.10020                      -0.38242                       0.91854
                       0.10771                      -0.38332                       0.91731
                       0.11609                      -0.38414                       0.91595
                       0.12511                      -0.38481                       0.91448
                       0.13436                      -0.38532                       0.91295
                       0.14322                      -0.38565                       0.91146
                       0.15081                      -0.38583                       0.91016
                       0.15595                      -0.38588                       0.90927
                       0.15716                      -0.38589                       0.90906
                       0.15656                      -0.38590                       0.90916
                       0.06885                      -0.37569                       0.92418
        </DataArray>
      </PointData>
      <Lines>
        <DataArray type="Int32" Name="connectivity" format="ascii">
      0      1
      1      2
      2      3
      3      4
      4      5
      5      6
      6      7
      7      8
      8      9
      9     10
     10     11
     11     12
     12     13
     13     14
     14     15
     15     16
     16     17
     18      0
        </DataArray>
        <DataArray type="Int32" Name="offsets" format="ascii">
      2
      4
      6
      8
     10
     12
     14
     16
     18
     20
     22
     24
     26
     28
     30
     32
     34
     36
        </DataArray>
      </Lines>
    </Piece>
  </PolyData>
</VTKFile>
