<?xml version="1.0"?>
<VTKFile type="PolyData" version="0.1" byte_order="LittleEndian">
  <PolyData>
    <Piece NumberOfPoints="     19" NumberOfVerts="  0" NumberOfLines="     18"
           NumberOfStrips="  0" NumberOfPolys="      0">
      <Points>
        <DataArray type="Float32" NumberOfComponents="3" format="ascii">
                       2.43966                       1.82198                      87.43568
                       1.92556                       3.83483                      84.47401
                       1.41940                       5.84561                      81.50957
                       0.92415                       7.85396                      78.54164
                       0.44219                       9.85964                      75.56973
                      -0.02405                      11.86255                      72.59345
                      -0.47154                      13.86281                      69.61251
                      -0.89645                      15.86071                      66.62670
                      -1.29419                      17.85656                      63.63579
                      -1.65958                      19.85063                      60.63959
                      -1.98729                      21.84299                      57.63790
                      -2.27256                      23.83349                      54.63067
                      -2.51201                      25.82183                      51.61801
                      -2.70482                      27.80766                      48.60033
                      -2.85402                      29.79079                      45.57837
                      -2.96810                      31.77141                      42.55317
                      -3.06276                      33.75048                      39.52623
                      -3.10772                      34.73980                      38.01255
                       2.69828                       0.81509                      88.91593
        </DataArray>
      </Points>
      <PointData>
        <DataArray type="Float32" Name="TranslationalVelocity" NumberOfComponents="3" format="ascii">
                      -0.39596                       2.57847                       1.65567
                      -0.12801                       5.36262                       3.50136
                       0.13779                       8.14214                       5.34131
                       0.40034                      10.91567                       7.17431
                       0.65851                      13.68240                       8.99966
                       0.91181                      16.44204                      10.81709
                       1.16087                      19.19466                      12.62675
                       1.40777                      21.94056                      14.42898
                       1.65599                      24.68023                      16.22419
                       1.91025                      27.41416                      18.01273
                       2.17624                      30.14269                      19.79479
                       2.45999                      32.86594                      21.57048
                       2.76721                      35.58376                      23.33989
                       3.10237                      38.29588                      25.10331
                       3.46754                      41.00225                      26.86133
                       3.86109                      43.70348                      28.61495
                       4.27624                      46.40147                      30.36580
                       4.48799                      47.74998                      31.24079
                      -0.53036                       1.18544                       0.73158
        </DataArray>
        <DataArray type="Float32" Name="RotationalVelocity" NumberOfComponents="3" format="ascii">
                       0.92152                      -0.01461                      -0.11200
                       0.91980                      -0.01440                      -0.11155
                       0.91745                      -0.01404                      -0.11089
                       0.91469                      -0.01342                      -0.10999
                       0.91173                      -0.01260                      -0.10891
                       0.90874                      -0.01177                      -0.10782
                       0.90584                      -0.01123                      -0.10694
                       0.90310                      -0.01132                      -0.10652
                       0.90057                      -0.01234                      -0.10677
                       0.89824                      -0.01455                      -0.10787
                       0.89608                      -0.01812                      -0.10992
                       0.89406                      -0.02306                      -0.11293
                       0.89216                      -0.02920                      -0.11677
                       0.89041                      -0.03613                      -0.12119
                       0.88889                      -0.04317                      -0.12571
                       0.88772                      -0.04929                      -0.12967
                       0.88718                      -0.05313                      -0.13218
                       0.88710                      -0.05428                      -0.13295
                       0.92219                      -0.01470                      -0.11217
        </DataArray>
        <DataArray type="Float32" Name="TranslationalAcceleration" NumberOfComponents="3" format="ascii">
                       0.25255                      -1.95226                       2.10049
                       0.54356                      -3.78509                       4.59601
                       0.79257                      -5.47810                       7.17700
                       0.98698                      -6.99692                       9.86383
                       1.12058                      -8.32034                      12.66814
                       1.19769                      -9.43645                      15.59494
                       1.23342                     -10.34048                      18.64400
                       1.25456                     -11.03293                      21.81110
                       1.30015                     -11.51814                      25.08899
                       1.41948                     -11.80395                      28.46830
                       1.66852                     -11.90199                      31.93837
                       2.10481                     -11.82819                      35.48800
                       2.78051                     -11.60319                      39.10620
                       3.73367                     -11.25240                      42.78236
                       4.97784                     -10.80543                      46.50542
                       6.48978                     -10.29503                      50.26206
                       8.19519                      -9.75556                      54.03486
                       9.08329                      -9.48291                      55.92280
                       0.09828                      -1.00619                       0.87093
        </DataArray>
        <DataArray type="Float32" Name="RotationalAcceleration" NumberOfComponents="3" format="ascii">
                      -0.05032                      -0.02097                       0.01920
                      -0.01283                      -0.01000                       0.02008
                       0.03802                       0.00515                       0.02148
                       0.09715                       0.02351                       0.02360
                       0.16105                       0.04246                       0.02528
                       0.22704                       0.05928                       0.02515
                       0.29304                       0.07137                       0.02180
                       0.35756                       0.07570                       0.01342
                       0.41944                       0.06951                      -0.00164
                       0.47766                       0.05075                      -0.02463
                       0.53124                       0.01835                      -0.05608
                       0.57920                      -0.02736                      -0.09562
                       0.62063                      -0.08425                      -0.14161
                       0.65461                      -0.14803                      -0.19099
                       0.67999                      -0.21195                      -0.23895
                       0.69546                      -0.26631                      -0.27867
                       0.69967                      -0.29806                      -0.30102
                       0.69879                      -0.30643                      -0.30656
                      -0.06499                      -0.02539                       0.01876
        </DataArray>
        <DataArray type="Float32" Name="OrientationX" NumberOfComponents="3" format="ascii">
                       0.97641                       0.21451                      -0.02468
                       0.97664                       0.21362                      -0.02338
                       0.97699                       0.21224                      -0.02133
                       0.97949                       0.19975                      -0.02634
                       0.98416                       0.17250                      -0.04085
                       0.98671                       0.15554                      -0.04711
                       0.98906                       0.13779                      -0.05265
                       0.99128                       0.11847                      -0.05772
                       0.99326                       0.09810                      -0.06171
                       0.99494                       0.07754                      -0.06394
                       0.99631                       0.05636                      -0.06476
                       0.99732                       0.03530                      -0.06402
                       0.99801                       0.01666                      -0.06086
                       0.99837                      -0.00053                      -0.05700
                       0.99838                      -0.01692                      -0.05437
                       0.99803                      -0.03145                      -0.05432
                       0.99762                      -0.03954                      -0.05650
                       0.99745                      -0.04140                      -0.05814
                       0.97634                       0.21480                      -0.02511
        </DataArray>
        <DataArray type="Float32" Name="OrientationY" NumberOfComponents="3" format="ascii">
                       0.16180                      -0.80257                      -0.57419
                       0.16196                      -0.80316                      -0.57332
                       0.16216                      -0.80397                      -0.57213
                       0.14937                      -0.80765                      -0.57043
                       0.11918                      -0.81443                      -0.56790
                       0.10200                      -0.81835                      -0.56559
                       0.08454                      -0.82200                      -0.56318
                       0.06600                      -0.82541                      -0.56066
                       0.04715                      -0.82842                      -0.55812
                       0.02905                      -0.83091                      -0.55565
                       0.01115                      -0.83293                      -0.55327
                      -0.00584                      -0.83444                      -0.55107
                      -0.01954                      -0.83544                      -0.54923
                      -0.03172                      -0.83608                      -0.54769
                      -0.04393                      -0.83639                      -0.54637
                      -0.05604                      -0.83637                      -0.54529
                      -0.06399                      -0.83618                      -0.54471
                      -0.06644                      -0.83608                      -0.54457
                       0.16174                      -0.80234                      -0.57453
        </DataArray>
        <DataArray type="Float32" Name="OrientationZ" NumberOfComponents="3" format="ascii">
                      -0.14297                       0.55666                      -0.81835
                      -0.14125                       0.55614                      -0.81900
                      -0.13858                       0.55551                      -0.81988
                      -0.13522                       0.55480                      -0.82092
                      -0.13124                       0.55403                      -0.82208
                      -0.12652                       0.55327                      -0.82334
                      -0.12088                       0.55257                      -0.82466
                      -0.11406                       0.55196                      -0.82603
                      -0.10587                       0.55145                      -0.82747
                      -0.09621                       0.55098                      -0.82895
                      -0.08513                       0.55051                      -0.83048
                      -0.07287                       0.54997                      -0.83200
                      -0.06000                       0.54933                      -0.83345
                      -0.04736                       0.54861                      -0.83474
                      -0.03623                       0.54787                      -0.83578
                      -0.02828                       0.54726                      -0.83649
                      -0.02571                       0.54703                      -0.83672
                      -0.02607                       0.54705                      -0.83670
                      -0.14355                       0.55688                      -0.81809
        </DataArray>
      </PointData>
      <Lines>
        <DataArray type="Int32" Name="connectivity" format="ascii">
      0      1
      1      2
      2      3
      3      4
      4      5
      5      6
      6      7
      7      8
      8      9
      9     10
     10     11
     11     12
     12     13
     13     14
     14     15
     15     16
     16     17
     18      0
        </DataArray>
        <DataArray type="Int32" Name="offsets" format="ascii">
      2
      4
      6
      8
     10
     12
     14
     16
     18
     20
     22
     24
     26
     28
     30
     32
     34
     36
        </DataArray>
      </Lines>
    </Piece>
  </PolyData>
</VTKFile>
