<?xml version="1.0"?>
<VTKFile type="PolyData" version="0.1" byte_order="LittleEndian">
  <PolyData>
    <Piece NumberOfPoints="     17" NumberOfVerts="  0" NumberOfLines="      0"
           NumberOfStrips="  0" NumberOfPolys="      0">
      <Points>
        <DataArray type="Float32" NumberOfComponents="3" format="ascii">
                       3.29388                      -2.65250                      92.15668
                       3.41974                      -5.52720                      94.34931
                       3.55262                      -8.40408                      96.53867
                       3.69532                     -11.28380                      98.72365
                       3.85028                     -14.16676                     100.90352
                       4.02015                     -17.05316                     103.07772
                       4.20802                     -19.94313                     105.24568
                       4.41763                     -22.83674                     107.40676
                       4.65339                     -25.73397                     109.56029
                       4.92011                     -28.63460                     111.70558
                       5.22261                     -31.53822                     113.84204
                       5.56513                     -34.44421                     115.96922
                       5.95049                     -37.35174                     118.08695
                       6.37908                     -40.25992                     120.19548
                       6.84766                     -43.16798                     122.29571
                       7.34796                     -46.07544                     124.38951
                       7.86509                     -48.98243                     126.47993
        </DataArray>
      </Points>
      <PointData>
        <DataArray type="Float32" Name="Force" NumberOfComponents="3" format="ascii">
                     183.22375                      52.55296                      58.45910
                     590.72359                     160.58487                     174.60927
                    1898.29100                    -465.61997                    -734.03201
                    3140.47292                    -784.80528                   -1249.24355
                    1889.76572                    -412.97627                    -684.42620
                    4044.23226                    -759.01032                   -1328.65255
                    4849.74154                    -757.25082                   -1440.15514
                    5338.65996                    -675.00753                   -1442.43737
                    5734.18953                    -587.59761                   -1450.73225
                    7290.89378                    -582.61706                   -1748.28617
                    8440.19724                    -502.08984                   -1959.60181
                    9813.92969                    -431.12069                   -2285.36858
                    5703.13341                    -182.78644                   -1331.90339
                   11525.86381                    -226.26507                   -2691.19321
                   11325.64798                     -66.42409                   -2638.96032
                   16421.83261                     128.82429                   -3755.39657
                    6940.50657                     147.20942                   -1498.12486
        </DataArray>
        <DataArray type="Float32" Name="Moment" NumberOfComponents="3" format="ascii">
                     -17.01022                      10.01923                      21.17686
                     159.97240                     154.54948                     300.69691
                    1035.31394                     904.16816                    1717.53283
                    1100.58930                    1177.44702                    2217.28605
                      63.08957                      22.10531                     223.58937
                    -831.15895                   -1154.54744                   -1583.92073
                    -582.66781                    -320.54954                   -1444.78614
                    -232.02076                    1091.06704                    -987.48938
                     -58.38529                    1638.63950                    -546.05978
                      88.35313                    2147.22668                      27.07553
                     539.96029                    3331.50335                    1718.94857
                    1216.51802                    4512.26435                    4483.28435
                    -122.28120                      -6.06896                    -480.24511
                   -1634.29700                   -4320.50247                   -6446.06053
                   -1474.69421                   -4168.99242                   -6044.46532
                    -344.16228                    -294.56153                   -1002.15562
                     -86.17137                     367.89484                      85.00097
        </DataArray>
      </PointData>
    </Piece>
  </PolyData>
</VTKFile>
