<?xml version="1.0"?>
<VTKFile type="PolyData" version="0.1" byte_order="LittleEndian">
  <PolyData>
    <Piece NumberOfPoints="     17" NumberOfVerts="  0" NumberOfLines="      0"
           NumberOfStrips="  0" NumberOfPolys="      0">
      <Points>
        <DataArray type="Float32" NumberOfComponents="3" format="ascii">
                       3.24995                      -1.17985                      93.20676
                       3.50617                      -2.46150                      96.58005
                       3.76863                      -3.74513                      99.95210
                       4.03980                      -5.03142                     103.32245
                       4.32178                      -6.32075                     106.69075
                       4.61669                      -7.61329                     110.05671
                       4.92683                      -8.90916                     113.42002
                       5.25479                     -10.20844                     116.78032
                       5.60343                     -11.51112                     120.13721
                       5.97575                     -12.81708                     123.49028
                       6.37465                     -14.12606                     126.83910
                       6.80246                     -15.43768                     130.18332
                       7.26048                     -16.75141                     133.52271
                       7.74828                     -18.06670                     136.85726
                       8.26299                     -19.38298                     140.18740
                       8.79832                     -20.69977                     143.51410
                       9.34364                     -22.01672                     146.83912
        </DataArray>
      </Points>
      <PointData>
        <DataArray type="Float32" Name="Force" NumberOfComponents="3" format="ascii">
                     171.17131                      76.12212                      15.98037
                     560.63346                     238.39654                      46.92324
                    1972.89820                    -686.50646                    -419.08833
                    3268.48451                   -1172.62496                    -716.67857
                    1948.88181                    -616.45627                    -401.71292
                    4092.85327                   -1113.67432                    -789.73983
                    4713.48482                   -1065.90907                    -851.17584
                    4853.48230                    -881.45305                    -824.18328
                    4805.46824                    -693.40126                    -781.39252
                    5537.32481                    -594.33219                    -865.56905
                    5580.06480                    -400.25454                    -846.04880
                    5605.61066                    -238.80878                    -841.48695
                    2805.94642                     -59.22891                    -418.04176
                    4665.37488                      12.47838                    -685.71503
                    3318.82601                     111.80308                    -473.22585
                    4185.91126                     241.68237                    -586.25338
                    3256.14497                     119.55913                    -487.00274
        </DataArray>
        <DataArray type="Float32" Name="Moment" NumberOfComponents="3" format="ascii">
                     -18.10674                      17.60569                      12.54120
                     146.48378                     307.68230                     178.31006
                     970.89366                    1753.50950                    1042.11889
                    1039.09643                    2214.51261                    1426.20899
                      66.37660                     100.92942                     280.13565
                    -744.29803                   -1972.04534                    -560.82831
                    -546.72605                   -1172.06468                    -946.74015
                    -327.50846                     215.11183                   -1470.54618
                    -247.91941                     855.35955                   -1627.55043
                    -253.45607                    1392.49602                   -1839.27423
                    -165.33339                    2612.98727                   -1712.32469
                     -15.95635                    3742.73978                    -761.59948
                    -175.52172                      86.23066                   -1082.90836
                    -546.88358                   -2645.57975                   -3366.76996
                    -431.42122                   -1776.49026                   -3085.85901
                    -391.62717                    1905.03085                   -2338.20148
                     -76.94417                    1272.34052                    -355.82947
        </DataArray>
      </PointData>
    </Piece>
  </PolyData>
</VTKFile>
