<?xml version="1.0"?>
<VTKFile type="PolyData" version="0.1" byte_order="LittleEndian">
  <PolyData>
    <Piece NumberOfPoints="     19" NumberOfVerts="  0" NumberOfLines="     18"
           NumberOfStrips="  0" NumberOfPolys="      0">
      <Points>
        <DataArray type="Float32" NumberOfComponents="3" format="ascii">
                       3.27289                       2.68534                      92.03660
                       3.38155                       5.65966                      94.09304
                       3.49749                       8.63536                      96.14709
                       3.62345                      11.61267                      98.19822
                       3.76165                      14.59174                     100.24599
                       3.91433                      17.57265                     102.29004
                       4.08425                      20.55533                     104.33014
                       4.27481                      23.53959                     106.36610
                       4.49008                      26.52515                     108.39768
                       4.73458                      29.51169                     110.42447
                       5.01288                      32.49887                     112.44594
                       5.32901                      35.48633                     114.46143
                       5.68574                      38.47367                     116.47029
                       6.08353                      41.46056                     118.47214
                       6.51947                      44.44674                     120.46712
                       6.98590                      47.43221                     122.45633
                       7.46891                      50.41729                     124.44223
                       7.71239                      51.90978                     125.43478
                       3.21999                       1.19847                      91.00787
        </DataArray>
      </Points>
      <PointData>
        <DataArray type="Float32" Name="TranslationalVelocity" NumberOfComponents="3" format="ascii">
                       0.14913                      -1.77257                       2.51720
                       0.49819                      -3.67124                       5.24490
                       0.84706                      -5.56169                       7.96389
                       1.19528                      -7.44203                      10.67190
                       1.54216                      -9.31112                      13.36762
                       1.88723                     -11.16845                      16.05045
                       2.23073                     -13.01413                      18.72026
                       2.57383                     -14.84872                      21.37723
                       2.91861                     -16.67305                      24.02167
                       3.26796                     -18.48802                      26.65392
                       3.62542                     -20.29456                      29.27424
                       3.99473                     -22.09354                      31.88277
                       4.37947                     -23.88582                      34.47964
                       4.78235                     -25.67231                      37.06509
                       5.20460                     -27.45412                      39.63989
                       5.64506                     -29.23254                      42.20580
                       6.09929                     -31.00929                      44.76615
                       6.32906                     -31.89750                      46.04547
                      -0.02542                      -0.82147                       1.15152
        </DataArray>
        <DataArray type="Float32" Name="RotationalVelocity" NumberOfComponents="3" format="ascii">
                       0.91847                      -0.00086                      -0.11799
                       0.91563                      -0.00083                      -0.11789
                       0.91177                      -0.00081                      -0.11772
                       0.90726                      -0.00089                      -0.11738
                       0.90242                      -0.00108                      -0.11686
                       0.89747                      -0.00130                      -0.11629
                       0.89260                      -0.00141                      -0.11589
                       0.88791                      -0.00126                      -0.11587
                       0.88347                      -0.00071                      -0.11644
                       0.87930                       0.00035                      -0.11776
                       0.87540                       0.00201                      -0.11996
                       0.87177                       0.00426                      -0.12303
                       0.86843                       0.00704                      -0.12688
                       0.86545                       0.01016                      -0.13124
                       0.86296                       0.01332                      -0.13567
                       0.86117                       0.01605                      -0.13952
                       0.86041                       0.01775                      -0.14193
                       0.86034                       0.01825                      -0.14266
                       0.91958                      -0.00087                      -0.11803
        </DataArray>
        <DataArray type="Float32" Name="TranslationalAcceleration" NumberOfComponents="3" format="ascii">
                      -1.63651                      -1.89255                      -1.92852
                      -1.96791                      -4.27522                      -3.89514
                      -2.31376                      -6.69980                      -5.76141
                      -2.67863                      -9.17612                      -7.50262
                      -3.06392                     -11.70989                      -9.10389
                      -3.46064                     -14.30443                     -10.55763
                      -3.84621                     -16.96162                     -11.86218
                      -4.18222                     -19.68261                     -13.02089
                      -4.41411                     -22.46835                     -14.04176
                      -4.47378                     -25.31988                     -14.93758
                      -4.28486                     -28.23854                     -15.72605
                      -3.77045                     -31.22598                     -16.42974
                      -2.86332                     -34.28392                     -17.07496
                      -1.51870                     -37.41305                     -17.68943
                       0.27069                     -40.61042                     -18.29891
                       2.45705                     -43.86545                     -18.92250
                       4.91736                     -47.15587                     -19.56669
                       6.19524                     -48.80632                     -19.89377
                      -1.47396                      -0.71014                      -0.92393
        </DataArray>
        <DataArray type="Float32" Name="RotationalAcceleration" NumberOfComponents="3" format="ascii">
                      -0.08924                      -0.02835                       0.01350
                      -0.06473                      -0.03117                       0.01633
                      -0.03142                      -0.03485                       0.01996
                       0.00729                      -0.03958                       0.02485
                       0.04908                      -0.04399                       0.02911
                       0.09226                      -0.04604                       0.02989
                       0.13545                      -0.04336                       0.02385
                       0.17756                      -0.03327                       0.00714
                       0.21752                      -0.01327                      -0.02377
                       0.25429                       0.01849                      -0.07150
                       0.28679                       0.06282                      -0.13718
                       0.31407                       0.11917                      -0.21995
                       0.33550                       0.18510                      -0.31628
                       0.35082                       0.25602                      -0.41948
                       0.36003                       0.32471                      -0.51917
                       0.36356                       0.38095                      -0.60060
                       0.36266                       0.41112                      -0.64413
                       0.36133                       0.41776                      -0.65365
                      -0.09879                      -0.02702                       0.01206
        </DataArray>
        <DataArray type="Float32" Name="OrientationX" NumberOfComponents="3" format="ascii">
                       0.99143                      -0.09631                       0.08821
                       0.99139                      -0.09753                       0.08737
                       0.99132                      -0.09944                       0.08605
                       0.99282                      -0.09441                       0.07347
                       0.99574                      -0.07996                       0.04598
                       0.99687                      -0.07353                       0.02901
                       0.99764                      -0.06770                       0.01135
                       0.99804                      -0.06217                      -0.00778
                       0.99796                      -0.05752                      -0.02780
                       0.99737                      -0.05440                      -0.04789
                       0.99627                      -0.05248                      -0.06843
                       0.99470                      -0.05194                      -0.08872
                       0.99286                      -0.05369                      -0.10651
                       0.99084                      -0.05612                      -0.12283
                       0.98872                      -0.05740                      -0.13836
                       0.98674                      -0.05636                      -0.15220
                       0.98567                      -0.05368                      -0.15995
                       0.98546                      -0.05198                      -0.16175
                       0.99145                      -0.09590                       0.08849
        </DataArray>
        <DataArray type="Float32" Name="OrientationY" NumberOfComponents="3" format="ascii">
                       0.12728                       0.56128                      -0.81778
                       0.12726                       0.56058                      -0.81827
                       0.12722                       0.55962                      -0.81892
                       0.11397                       0.55980                      -0.82075
                       0.08310                       0.56131                      -0.82343
                       0.06542                       0.56144                      -0.82493
                       0.04750                       0.56148                      -0.82612
                       0.02853                       0.56153                      -0.82696
                       0.00931                       0.56156                      -0.82738
                      -0.00909                       0.56154                      -0.82740
                      -0.02722                       0.56154                      -0.82700
                      -0.04437                       0.56156                      -0.82625
                      -0.05818                       0.56152                      -0.82542
                      -0.07040                       0.56153                      -0.82445
                      -0.08259                       0.56172                      -0.82319
                      -0.09463                       0.56208                      -0.82165
                      -0.10252                       0.56241                      -0.82048
                      -0.10493                       0.56255                      -0.82008
                       0.12729                       0.56155                      -0.81759
        </DataArray>
        <DataArray type="Float32" Name="OrientationZ" NumberOfComponents="3" format="ascii">
                       0.02925                       0.82200                       0.56873
                       0.03082                       0.82234                       0.56816
                       0.03327                       0.82276                       0.56741
                       0.03636                       0.82323                       0.56654
                       0.04003                       0.82374                       0.56556
                       0.04437                       0.82425                       0.56449
                       0.04956                       0.82471                       0.56337
                       0.05578                       0.82512                       0.56220
                       0.06320                       0.82543                       0.56095
                       0.07190                       0.82566                       0.55957
                       0.08183                       0.82578                       0.55802
                       0.09273                       0.82580                       0.55628
                       0.10412                       0.82572                       0.55438
                       0.11524                       0.82555                       0.55244
                       0.12497                       0.82533                       0.55064
                       0.13186                       0.82516                       0.54929
                       0.13400                       0.82511                       0.54885
                       0.13361                       0.82513                       0.54891
                       0.02872                       0.82186                       0.56896
        </DataArray>
      </PointData>
      <Lines>
        <DataArray type="Int32" Name="connectivity" format="ascii">
      0      1
      1      2
      2      3
      3      4
      4      5
      5      6
      6      7
      7      8
      8      9
      9     10
     10     11
     11     12
     12     13
     13     14
     14     15
     15     16
     16     17
     18      0
        </DataArray>
        <DataArray type="Int32" Name="offsets" format="ascii">
      2
      4
      6
      8
     10
     12
     14
     16
     18
     20
     22
     24
     26
     28
     30
     32
     34
     36
        </DataArray>
      </Lines>
    </Piece>
  </PolyData>
</VTKFile>
