<?xml version="1.0"?>
<VTKFile type="PolyData" version="0.1" byte_order="LittleEndian">
  <PolyData>
    <Piece NumberOfPoints="     19" NumberOfVerts="  0" NumberOfLines="     18"
           NumberOfStrips="  0" NumberOfPolys="      0">
      <Points>
        <DataArray type="Float32" NumberOfComponents="3" format="ascii">
                       2.43077                      -3.09283                      88.92523
                       2.12301                      -6.44710                      87.60558
                       1.82301                      -9.80034                      86.28153
                       1.53390                     -13.15222                      84.95162
                       1.25839                     -16.50254                      83.61492
                       0.99943                     -19.85119                      82.27077
                       0.76052                     -23.19807                      80.91853
                       0.54592                     -26.54304                      79.55755
                       0.36061                     -29.88593                      78.18721
                       0.21011                     -33.22652                      76.80705
                       0.09999                     -36.56451                      75.41685
                       0.03515                     -39.89953                      74.01675
                       0.01893                     -43.23121                      72.60730
                       0.05191                     -46.55925                      71.18949
                       0.13054                     -49.88363                      69.76481
                       0.24549                     -53.20493                      68.33525
                       0.37982                     -56.52451                      66.90327
                       0.44917                     -58.18410                      66.18702
                       2.58616                      -1.41548                      89.58418
        </DataArray>
      </Points>
      <PointData>
        <DataArray type="Float32" Name="TranslationalVelocity" NumberOfComponents="3" format="ascii">
                      -0.79067                       1.10564                      -2.88530
                      -1.13929                       2.36216                      -5.99781
                      -1.48933                       3.62117                      -9.10702
                      -1.84145                       4.88346                     -12.21194
                      -2.19628                       6.14946                     -15.31193
                      -2.55454                       7.41937                     -18.40663
                      -2.91702                       8.69334                     -21.49576
                      -3.28460                       9.97143                     -24.57908
                      -3.65823                      11.25359                     -27.65639
                      -4.03892                      12.53953                     -30.72748
                      -4.42762                      13.82871                     -33.79218
                      -4.82510                      15.12030                     -36.85037
                      -5.23178                      16.41325                     -39.90201
                      -5.64753                      17.70648                     -42.94728
                      -6.07143                      18.99906                     -45.98673
                      -6.50152                      20.29055                     -49.02161
                      -6.93448                      21.58126                     -52.05407
                      -7.15116                      22.22653                     -53.57003
                      -0.61662                       0.47787                      -1.32837
        </DataArray>
        <DataArray type="Float32" Name="RotationalVelocity" NumberOfComponents="3" format="ascii">
                       0.92700                      -0.01306                      -0.10889
                       0.92646                      -0.01289                      -0.10919
                       0.92570                      -0.01263                      -0.10967
                       0.92479                      -0.01229                      -0.11032
                       0.92379                      -0.01188                      -0.11114
                       0.92274                      -0.01138                      -0.11216
                       0.92166                      -0.01079                      -0.11340
                       0.92056                      -0.01011                      -0.11488
                       0.91947                      -0.00933                      -0.11662
                       0.91840                      -0.00844                      -0.11862
                       0.91737                      -0.00747                      -0.12085
                       0.91640                      -0.00643                      -0.12326
                       0.91552                      -0.00538                      -0.12572
                       0.91476                      -0.00439                      -0.12807
                       0.91417                      -0.00356                      -0.13006
                       0.91380                      -0.00301                      -0.13137
                       0.91370                      -0.00291                      -0.13160
                       0.91373                      -0.00299                      -0.13138
                       0.92720                      -0.01311                      -0.10880
        </DataArray>
        <DataArray type="Float32" Name="TranslationalAcceleration" NumberOfComponents="3" format="ascii">
                       1.17266                       2.66102                       0.97194
                       1.35533                       5.62890                       2.01523
                       1.52127                       8.59374                       3.05989
                       1.66366                      11.55440                       4.10721
                       1.77686                      14.51015                       5.15803
                       1.85964                      17.46070                       6.21169
                       1.91739                      20.40604                       7.26589
                       1.96339                      23.34643                       8.31669
                       2.01897                      26.28259                       9.35875
                       2.11266                      29.21588                      10.38598
                       2.27817                      32.14853                      11.39242
                       2.55126                      35.08384                      12.37317
                       2.96544                      38.02615                      13.32517
                       3.54648                      40.98027                      14.24772
                       4.30577                      43.95024                      15.14292
                       5.23252                      46.93717                      16.01586
                       6.28474                      49.93687                      16.87446
                       6.83472                      51.43898                      17.30133
                       1.07794                       1.17647                       0.45051
        </DataArray>
        <DataArray type="Float32" Name="RotationalAcceleration" NumberOfComponents="3" format="ascii">
                       0.03583                       0.01202                       0.00831
                       0.03606                       0.01337                       0.00480
                       0.03621                       0.01539                      -0.00038
                       0.03607                       0.01815                      -0.00739
                       0.03591                       0.02134                      -0.01546
                       0.03615                       0.02432                      -0.02312
                       0.03720                       0.02630                      -0.02843
                       0.03949                       0.02643                      -0.02928
                       0.04329                       0.02387                      -0.02366
                       0.04870                       0.01797                      -0.00992
                       0.05558                       0.00836                       0.01293
                       0.06359                      -0.00494                       0.04492
                       0.07224                      -0.02141                       0.08482
                       0.08091                      -0.03990                       0.12988
                       0.08878                      -0.05853                       0.17550
                       0.09486                      -0.07460                       0.21500
                       0.09816                      -0.08443                       0.23927
                       0.09899                      -0.08727                       0.24629
                       0.03576                       0.01146                       0.00973
        </DataArray>
        <DataArray type="Float32" Name="OrientationX" NumberOfComponents="3" format="ascii">
                       0.93910                       0.04675                      -0.34044
                       0.93926                       0.04851                      -0.33975
                       0.93951                       0.05128                      -0.33866
                       0.94416                       0.04983                      -0.32570
                       0.95397                       0.04246                      -0.29688
                       0.95934                       0.04084                      -0.27927
                       0.96451                       0.04009                      -0.26097
                       0.96965                       0.04010                      -0.24118
                       0.97450                       0.04133                      -0.22053
                       0.97881                       0.04426                      -0.19995
                       0.98265                       0.04860                      -0.17898
                       0.98589                       0.05433                      -0.15836
                       0.98815                       0.06180                      -0.14051
                       0.98982                       0.06949                      -0.12420
                       0.99122                       0.07555                      -0.10850
                       0.99246                       0.07840                      -0.09424
                       0.99327                       0.07749                      -0.08603
                       0.99356                       0.07600                      -0.08401
                       0.93905                       0.04616                      -0.34068
        </DataArray>
        <DataArray type="Float32" Name="OrientationY" NumberOfComponents="3" format="ascii">
                       0.33273                      -0.37136                       0.86683
                       0.33270                      -0.37171                       0.86669
                       0.33265                      -0.37218                       0.86650
                       0.32007                      -0.37341                       0.87070
                       0.29061                      -0.37543                       0.88012
                       0.27365                      -0.37677                       0.88496
                       0.25640                      -0.37809                       0.88956
                       0.23807                      -0.37942                       0.89407
                       0.21943                      -0.38075                       0.89827
                       0.20151                      -0.38204                       0.90191
                       0.18382                      -0.38335                       0.90513
                       0.16702                      -0.38465                       0.90783
                       0.15349                      -0.38582                       0.90972
                       0.14149                      -0.38693                       0.91119
                       0.12946                      -0.38807                       0.91249
                       0.11750                      -0.38917                       0.91364
                       0.10961                      -0.38986                       0.91433
                       0.10716                      -0.39004                       0.91454
                       0.33274                      -0.37122                       0.86688
        </DataArray>
        <DataArray type="Float32" Name="OrientationZ" NumberOfComponents="3" format="ascii">
                      -0.08590                      -0.92731                      -0.36429
                      -0.08424                      -0.92708                      -0.36527
                      -0.08161                      -0.92674                      -0.36673
                      -0.07823                      -0.92633                      -0.36850
                      -0.07409                      -0.92588                      -0.37048
                      -0.06908                      -0.92541                      -0.37262
                      -0.06301                      -0.92490                      -0.37495
                      -0.05566                      -0.92435                      -0.37745
                      -0.04684                      -0.92375                      -0.38011
                      -0.03647                      -0.92309                      -0.38286
                      -0.02462                      -0.92233                      -0.38563
                      -0.01160                      -0.92146                      -0.38829
                       0.00201                      -0.92050                      -0.39073
                       0.01526                      -0.91949                      -0.39283
                       0.02684                      -0.91853                      -0.39444
                       0.03495                      -0.91782                      -0.39544
                       0.03731                      -0.91761                      -0.39573
                       0.03674                      -0.91766                      -0.39568
                      -0.08645                      -0.92740                      -0.36395
        </DataArray>
      </PointData>
      <Lines>
        <DataArray type="Int32" Name="connectivity" format="ascii">
      0      1
      1      2
      2      3
      3      4
      4      5
      5      6
      6      7
      7      8
      8      9
      9     10
     10     11
     11     12
     12     13
     13     14
     14     15
     15     16
     16     17
     18      0
        </DataArray>
        <DataArray type="Int32" Name="offsets" format="ascii">
      2
      4
      6
      8
     10
     12
     14
     16
     18
     20
     22
     24
     26
     28
     30
     32
     34
     36
        </DataArray>
      </Lines>
    </Piece>
  </PolyData>
</VTKFile>
