<?xml version="1.0"?>
<VTKFile type="PolyData" version="0.1" byte_order="LittleEndian">
  <PolyData>
    <Piece NumberOfPoints="     19" NumberOfVerts="  0" NumberOfLines="     18"
           NumberOfStrips="  0" NumberOfPolys="      0">
      <Points>
        <DataArray type="Float32" NumberOfComponents="3" format="ascii">
                       2.45466                       1.72394                      87.37512
                       1.93069                       3.63113                      84.34602
                       1.41473                       5.53651                      81.31441
                       0.90976                       7.43981                      78.27965
                       0.41819                       9.34083                      75.24126
                      -0.05751                      11.23948                      72.19888
                      -0.51432                      13.13589                      69.15220
                      -0.94850                      15.03034                      66.10101
                      -1.35553                      16.92312                      63.04506
                      -1.73037                      18.81447                      59.98412
                      -2.06789                      20.70444                      56.91799
                      -2.36348                      22.59287                      53.84661
                      -2.61395                      24.47944                      50.77008
                      -2.81862                      26.36381                      47.68879
                      -2.98058                      28.24576                      44.60344
                      -3.10828                      30.12544                      41.51504
                      -3.21724                      32.00370                      38.42502
                      -3.26947                      32.94264                      36.87981
                       2.71821                       0.76994                      88.88915
        </DataArray>
      </Points>
      <PointData>
        <DataArray type="Float32" Name="TranslationalVelocity" NumberOfComponents="3" format="ascii">
                      -0.40335                       2.64906                       1.57224
                      -0.14512                       5.49964                       3.32236
                       0.11251                       8.34056                       5.06405
                       0.36893                      11.16924                       6.79543
                       0.62326                      13.98410                       8.51546
                       0.87484                      16.78442                      10.22371
                       1.12372                      19.57009                      11.92035
                       1.37088                      22.34142                      13.60587
                       1.61823                      25.09904                      15.28094
                       1.86849                      27.84370                      16.94622
                       2.12505                      30.57615                      18.60230
                       2.39160                      33.29707                      20.24964
                       2.67173                      36.00709                      21.88870
                       2.96834                      38.70685                      23.52008
                       3.28296                      41.39738                      25.14470
                       3.61494                      44.08052                      26.76394
                       3.96056                      46.75936                      28.37998
                       4.13608                      48.09819                      29.18753
                      -0.53256                       1.22174                       0.69537
        </DataArray>
        <DataArray type="Float32" Name="RotationalVelocity" NumberOfComponents="3" format="ascii">
                       0.92312                      -0.01433                      -0.11270
                       0.92010                      -0.01451                      -0.11228
                       0.91599                      -0.01469                      -0.11168
                       0.91117                      -0.01473                      -0.11086
                       0.90599                      -0.01458                      -0.10986
                       0.90070                      -0.01435                      -0.10879
                       0.89550                      -0.01422                      -0.10780
                       0.89051                      -0.01440                      -0.10704
                       0.88582                      -0.01511                      -0.10667
                       0.88146                      -0.01652                      -0.10679
                       0.87744                      -0.01875                      -0.10750
                       0.87376                      -0.02183                      -0.10879
                       0.87044                      -0.02567                      -0.11064
                       0.86754                      -0.03004                      -0.11289
                       0.86517                      -0.03452                      -0.11530
                       0.86351                      -0.03848                      -0.11750
                       0.86284                      -0.04106                      -0.11901
                       0.86279                      -0.04189                      -0.11953
                       0.92430                      -0.01426                      -0.11286
        </DataArray>
        <DataArray type="Float32" Name="TranslationalAcceleration" NumberOfComponents="3" format="ascii">
                       0.13770                      -1.80545                       2.36297
                       0.36095                      -3.50487                       4.97009
                       0.54569                      -5.07927                       7.63380
                       0.68010                      -6.49816                      10.36752
                       0.75794                      -7.74283                      13.17884
                       0.78356                      -8.80267                      16.07081
                       0.77313                      -9.67309                      19.04268
                       0.75595                     -10.35391                      22.09068
                       0.77489                     -10.84828                      25.20868
                       0.88435                     -11.16254                      28.38893
                       1.14628                     -11.30666                      31.62289
                       1.62438                     -11.29491                      34.90211
                       2.37633                     -11.14619                      38.21899
                       3.44392                     -10.88387                      41.56717
                       4.84123                     -10.53523                      44.94067
                       6.54071                     -10.13015                      48.33218
                       8.45707                      -9.69939                      51.73128
                       9.45465                      -9.48144                      53.43119
                       0.01803                      -0.92920                       1.07146
        </DataArray>
        <DataArray type="Float32" Name="RotationalAcceleration" NumberOfComponents="3" format="ascii">
                      -0.03128                       0.00733                       0.01848
                      -0.00017                       0.01697                       0.01912
                       0.04202                       0.03029                       0.02014
                       0.09104                       0.04664                       0.02188
                       0.14405                       0.06355                       0.02328
                       0.19888                       0.07818                       0.02291
                       0.25388                       0.08755                       0.01921
                       0.30784                       0.08829                       0.01024
                       0.35976                       0.07728                      -0.00578
                       0.40871                       0.05218                      -0.03016
                       0.45374                       0.01177                      -0.06351
                       0.49389                      -0.04355                      -0.10541
                       0.52832                      -0.11130                      -0.15415
                       0.55623                      -0.18652                      -0.20646
                       0.57672                      -0.26134                      -0.25722
                       0.58885                      -0.32451                      -0.29916
                       0.59185                      -0.36086                      -0.32261
                       0.59098                      -0.37018                      -0.32833
                      -0.04344                       0.00338                       0.01811
        </DataArray>
        <DataArray type="Float32" Name="OrientationX" NumberOfComponents="3" format="ascii">
                       0.97548                       0.21763                      -0.03268
                       0.97572                       0.21678                      -0.03133
                       0.97608                       0.21544                      -0.02921
                       0.97864                       0.20278                      -0.03375
                       0.98343                       0.17504                      -0.04727
                       0.98604                       0.15785                      -0.05290
                       0.98848                       0.13991                      -0.05780
                       0.99077                       0.12043                      -0.06220
                       0.99283                       0.09997                      -0.06552
                       0.99458                       0.07938                      -0.06712
                       0.99603                       0.05826                      -0.06734
                       0.99712                       0.03734                      -0.06604
                       0.99787                       0.01893                      -0.06244
                       0.99830                       0.00201                      -0.05822
                       0.99837                      -0.01414                      -0.05526
                       0.99808                      -0.02855                      -0.05492
                       0.99770                      -0.03663                      -0.05695
                       0.99754                      -0.03852                      -0.05857
                       0.97541                       0.21791                      -0.03312
        </DataArray>
        <DataArray type="Float32" Name="OrientationY" NumberOfComponents="3" format="ascii">
                       0.16492                      -0.82126                      -0.54619
                       0.16506                      -0.82178                      -0.54538
                       0.16525                      -0.82248                      -0.54426
                       0.15246                      -0.82608                      -0.54254
                       0.12228                      -0.83281                      -0.53989
                       0.10510                      -0.83665                      -0.53757
                       0.08763                      -0.84020                      -0.53515
                       0.06910                      -0.84352                      -0.53263
                       0.05024                      -0.84645                      -0.53010
                       0.03214                      -0.84886                      -0.52765
                       0.01425                      -0.85080                      -0.52529
                      -0.00273                      -0.85226                      -0.52312
                      -0.01643                      -0.85320                      -0.52132
                      -0.02860                      -0.85380                      -0.51981
                      -0.04080                      -0.85409                      -0.51852
                      -0.05290                      -0.85407                      -0.51746
                      -0.06086                      -0.85389                      -0.51688
                      -0.06331                      -0.85380                      -0.51674
                       0.16487                      -0.82106                      -0.54652
        </DataArray>
        <DataArray type="Float32" Name="OrientationZ" NumberOfComponents="3" format="ascii">
                      -0.14570                       0.52742                      -0.83702
                      -0.14397                       0.52696                      -0.83761
                      -0.14128                       0.52642                      -0.83841
                      -0.13789                       0.52581                      -0.83935
                      -0.13387                       0.52516                      -0.84041
                      -0.12912                       0.52450                      -0.84156
                      -0.12344                       0.52392                      -0.84278
                      -0.11661                       0.52342                      -0.84406
                      -0.10845                       0.52300                      -0.84540
                      -0.09886                       0.52263                      -0.84681
                      -0.08789                       0.52225                      -0.84825
                      -0.07581                       0.52179                      -0.84970
                      -0.06315                       0.52124                      -0.85107
                      -0.05075                       0.52059                      -0.85229
                      -0.03987                       0.51993                      -0.85328
                      -0.03213                       0.51937                      -0.85395
                      -0.02970                       0.51916                      -0.85416
                      -0.03010                       0.51918                      -0.85413
                      -0.14629                       0.52761                      -0.83679
        </DataArray>
      </PointData>
      <Lines>
        <DataArray type="Int32" Name="connectivity" format="ascii">
      0      1
      1      2
      2      3
      3      4
      4      5
      5      6
      6      7
      7      8
      8      9
      9     10
     10     11
     11     12
     12     13
     13     14
     14     15
     15     16
     16     17
     18      0
        </DataArray>
        <DataArray type="Int32" Name="offsets" format="ascii">
      2
      4
      6
      8
     10
     12
     14
     16
     18
     20
     22
     24
     26
     28
     30
     32
     34
     36
        </DataArray>
      </Lines>
    </Piece>
  </PolyData>
</VTKFile>
