<?xml version="1.0"?>
<VTKFile type="PolyData" version="0.1" byte_order="LittleEndian">
  <PolyData>
    <Piece NumberOfPoints="     19" NumberOfVerts="  0" NumberOfLines="     18"
           NumberOfStrips="  0" NumberOfPolys="      0">
      <Points>
        <DataArray type="Float32" NumberOfComponents="3" format="ascii">
                       2.88238                       0.30719                      88.71539
                       2.65572                       0.62348                      87.40525
                       2.18407                       1.34843                      84.81031
                       1.70679                       2.11854                      82.22722
                       1.11205                       3.11032                      79.00514
                       0.45935                       4.16696                      75.09662
                      -0.15542                       5.10380                      71.15304
                      -0.75019                       6.04498                      67.20739
                      -1.31711                       6.98905                      63.25828
                      -1.85021                       7.93800                      59.30559
                      -2.34789                       8.89453                      55.35007
                      -2.79806                       9.85745                      51.39038
                      -3.19475                      10.82589                      47.42627
                      -3.53495                      11.79866                      43.45793
                      -3.81840                      12.77452                      39.48582
                      -4.01831                      13.58908                      36.17356
                      -4.16059                      14.23347                      33.52093
                      -4.30089                      14.82467                      30.85467
                      -4.37030                      15.16068                      29.53181
        </DataArray>
      </Points>
      <PointData>
        <DataArray type="Float32" Name="Force" NumberOfComponents="3" format="ascii">
                      -0.03704                      -1.25150                      -0.29207
                      57.56676                     -16.77829                     -13.92241
                      73.34341                     -44.47813                     -23.15910
                      66.98938                     -61.80990                     -26.09274
                     600.63977                     240.13373                     -42.98339
                     793.34034                     267.91599                     -65.28178
                     963.24194                     272.98384                     -86.85842
                    1288.09708                     313.76672                    -120.33001
                    1450.61371                     296.72324                    -137.81511
                    1726.31462                     306.15327                    -158.90539
                    2184.09348                     331.07911                    -189.36179
                    2558.59639                     336.92720                    -200.26730
                    3024.17441                     364.50622                    -201.42977
                    3325.73562                     354.82281                    -184.13661
                    3557.84761                     331.40781                    -161.26195
                    3658.79289                     293.94923                    -146.09942
                    3546.67036                     241.39506                    -138.15903
                    2562.43854                     140.54512                    -104.33143
                    1212.65891                     -33.83563                     -73.41517
        </DataArray>
        <DataArray type="Float32" Name="Moment" NumberOfComponents="3" format="ascii">
                       0.00000                       0.00000                       0.00000
                       0.00000                       0.00000                       0.00000
                       0.00000                       0.00000                       0.00000
                       0.00000                       0.00000                       0.00000
                      37.15283                     -53.06917                     222.68539
                      66.47545                     -97.30425                     408.51049
                      83.63477                    -126.29601                     530.56174
                     112.26107                    -176.41833                     741.70155
                     145.24605                    -240.33188                    1011.38300
                     152.32574                    -269.52210                    1135.56306
                     147.70093                    -285.46649                    1204.47026
                     138.90273                    -300.34033                    1269.31951
                     108.29412                    -269.03064                    1139.04190
                      91.27931                    -267.26113                    1133.61774
                      73.50333                    -257.25359                    1092.99074
                      60.79830                    -243.02292                    1033.62479
                      50.42414                    -215.64929                     917.64648
                      24.75975                    -108.53166                     461.91012
                      21.51080                     -93.62849                     398.46316
        </DataArray>
        <DataArray type="Float32" Name="TranslationalVelocity" NumberOfComponents="3" format="ascii">
                      -0.33856                       1.36079                       0.29625
                      -0.28967                       2.58794                       0.58404
                      -0.18183                       5.02075                       1.24408
                      -0.07025                       7.44213                       1.94528
                       0.06980                      10.46019                       2.84820
                       0.21729                      14.10943                       3.80968
                       0.34396                      17.78166                       4.66185
                       0.46483                      21.44904                       5.51797
                       0.58392                      25.11279                       6.37631
                       0.70906                      28.77355                       7.23793
                       0.84878                      32.43170                       8.10468
                       1.01627                      36.08787                       8.97451
                       1.22473                      39.74201                       9.84615
                       1.48571                      43.39348                      10.71869
                       1.80622                      47.04131                      11.59183
                       2.11713                      50.07814                      12.31970
                       2.39101                      52.50744                      12.89500
                       2.67355                      54.94859                      13.42126
                       2.82124                      56.15971                      13.72107
        </DataArray>
        <DataArray type="Float32" Name="RotationalVelocity" NumberOfComponents="3" format="ascii">
                       0.91671                      -0.00946                      -0.11626
                       0.91655                      -0.00927                      -0.11619
                       0.91616                      -0.00884                      -0.11601
                       0.91567                      -0.00828                      -0.11580
                       0.91491                      -0.00732                      -0.11544
                       0.91385                      -0.00577                      -0.11488
                       0.91278                      -0.00415                      -0.11431
                       0.91182                      -0.00307                      -0.11389
                       0.91106                      -0.00328                      -0.11381
                       0.91053                      -0.00550                      -0.11425
                       0.91023                      -0.01065                      -0.11542
                       0.91003                      -0.01879                      -0.11733
                       0.90986                      -0.02975                      -0.11991
                       0.90963                      -0.04283                      -0.12299
                       0.90932                      -0.05666                      -0.12624
                       0.90902                      -0.06711                      -0.12868
                       0.90882                      -0.07346                      -0.13016
                       0.90868                      -0.07784                      -0.13118
                       0.90865                      -0.07916                      -0.13149
        </DataArray>
        <DataArray type="Float32" Name="TranslationalAcceleration" NumberOfComponents="3" format="ascii">
                      -1.04588                       0.13405                       1.26679
                      -0.88992                      -0.04062                       2.41209
                      -0.57353                      -0.49509                       4.67861
                      -0.23357                      -1.06865                       6.90228
                       0.23659                      -1.95169                       9.60845
                       0.88905                      -3.12940                      12.78948
                       1.64794                      -4.49725                      15.90804
                       2.49571                      -6.17200                      18.93479
                       3.40532                      -8.15331                      21.87899
                       4.33072                     -10.43602                      24.75195
                       5.21947                     -12.98221                      27.57120
                       6.00189                     -15.80462                      30.34347
                       6.60480                     -18.88104                      33.08080
                       6.96395                     -22.18306                      35.79238
                       7.03882                     -25.67431                      38.48473
                       6.88874                     -28.69293                      40.71845
                       6.64261                     -31.15323                      42.50912
                       6.33594                     -33.59533                      44.35122
                       6.16376                     -34.84457                      45.23647
        </DataArray>
        <DataArray type="Float32" Name="OrientationX" NumberOfComponents="3" format="ascii">
                       0.96591                       0.23381                      -0.11110
                       0.96598                       0.23371                      -0.11070
                       0.96618                       0.23343                      -0.10954
                       0.96645                       0.23305                      -0.10796
                       0.96689                       0.23242                      -0.10533
                       0.97339                       0.20121                      -0.10964
                       0.97777                       0.17810                      -0.11070
                       0.98140                       0.15742                      -0.10990
                       0.98490                       0.13525                      -0.10802
                       0.98817                       0.11205                      -0.10468
                       0.99105                       0.08946                      -0.09911
                       0.99354                       0.06662                      -0.09189
                       0.99551                       0.04533                      -0.08307
                       0.99694                       0.02832                      -0.07291
                       0.99789                       0.01182                      -0.06385
                       0.99827                      -0.00136                      -0.05876
                       0.99830                      -0.01060                      -0.05723
                       0.99825                      -0.01538                      -0.05709
                       0.99823                      -0.01529                      -0.05745
        </DataArray>
        <DataArray type="Float32" Name="OrientationY" NumberOfComponents="3" format="ascii">
                       0.19887                      -0.94498                      -0.25972
                       0.19885                      -0.94496                      -0.25982
                       0.19881                      -0.94490                      -0.26007
                       0.19876                      -0.94483                      -0.26037
                       0.19868                      -0.94472                      -0.26082
                       0.16762                      -0.95149                      -0.25801
                       0.14508                      -0.95569                      -0.25613
                       0.12530                      -0.95890                      -0.25457
                       0.10435                      -0.96185                      -0.25289
                       0.08274                      -0.96440                      -0.25117
                       0.06227                      -0.96634                      -0.24962
                       0.04194                      -0.96781                      -0.24817
                       0.02350                      -0.96873                      -0.24700
                       0.00952                      -0.96915                      -0.24630
                      -0.00424                      -0.96934                      -0.24567
                      -0.01575                      -0.96936                      -0.24516
                      -0.02432                      -0.96928                      -0.24476
                      -0.02891                      -0.96921                      -0.24454
                      -0.02892                      -0.96921                      -0.24454
        </DataArray>
        <DataArray type="Float32" Name="OrientationZ" NumberOfComponents="3" format="ascii">
                      -0.16572                       0.22878                      -0.95927
                      -0.16533                       0.22897                      -0.95929
                      -0.16421                       0.22950                      -0.95936
                      -0.16268                       0.23018                      -0.95945
                      -0.16013                       0.23126                      -0.95962
                      -0.15623                       0.23276                      -0.95990
                      -0.15141                       0.23437                      -0.96028
                      -0.14546                       0.23606                      -0.96079
                      -0.13811                       0.23780                      -0.96145
                      -0.12910                       0.23954                      -0.96226
                      -0.11811                       0.24121                      -0.96326
                      -0.10547                       0.24271                      -0.96435
                      -0.09167                       0.24394                      -0.96545
                      -0.07763                       0.24485                      -0.96645
                      -0.06480                       0.24542                      -0.96725
                      -0.05663                       0.24566                      -0.96770
                      -0.05288                       0.24573                      -0.96789
                      -0.05157                       0.24576                      -0.96796
                      -0.05194                       0.24577                      -0.96794
        </DataArray>
      </PointData>
      <Lines>
        <DataArray type="Int32" Name="connectivity" format="ascii">
      0      1
      1      2
      2      3
      3      4
      4      5
      5      6
      6      7
      7      8
      8      9
      9     10
     10     11
     11     12
     12     13
     13     14
     14     15
     15     16
     16     17
     17     18
        </DataArray>
        <DataArray type="Int32" Name="offsets" format="ascii">
      2
      4
      6
      8
     10
     12
     14
     16
     18
     20
     22
     24
     26
     28
     30
     32
     34
     36
        </DataArray>
      </Lines>
    </Piece>
  </PolyData>
</VTKFile>
