<?xml version="1.0"?>
<VTKFile type="PolyData" version="0.1" byte_order="LittleEndian">
  <PolyData>
    <Piece NumberOfPoints="     17" NumberOfVerts="  0" NumberOfLines="      0"
           NumberOfStrips="  0" NumberOfPolys="      0">
      <Points>
        <DataArray type="Float32" NumberOfComponents="3" format="ascii">
                       2.43966                       1.82198                      87.43568
                       1.92556                       3.83483                      84.47401
                       1.41940                       5.84561                      81.50957
                       0.92415                       7.85396                      78.54164
                       0.44219                       9.85964                      75.56973
                      -0.02405                      11.86255                      72.59345
                      -0.47154                      13.86281                      69.61251
                      -0.89645                      15.86071                      66.62670
                      -1.29419                      17.85656                      63.63579
                      -1.65958                      19.85063                      60.63959
                      -1.98729                      21.84299                      57.63790
                      -2.27256                      23.83349                      54.63067
                      -2.51201                      25.82183                      51.61801
                      -2.70482                      27.80766                      48.60033
                      -2.85402                      29.79079                      45.57837
                      -2.96810                      31.77141                      42.55317
                      -3.06276                      33.75048                      39.52623
        </DataArray>
      </Points>
      <PointData>
        <DataArray type="Float32" Name="Force" NumberOfComponents="3" format="ascii">
                     153.67148                     -36.23089                     -51.46519
                     549.28815                    -126.24987                    -179.76651
                    2205.35995                     716.55565                     118.49949
                    3585.41620                    1148.68099                     195.07273
                    2174.59518                     621.72647                      76.44108
                    4753.90586                    1207.64094                      87.88670
                    5792.62604                    1275.84029                      15.92505
                    6485.86741                    1220.84008                     -64.93246
                    6980.99412                    1128.84182                    -122.12823
                    8814.45578                    1210.03428                    -192.22005
                   10154.80425                    1167.91957                    -228.44321
                   11587.38297                    1125.21090                    -217.40577
                    6649.98213                     557.51807                    -102.18774
                   13270.63944                     932.05321                    -161.76706
                   12782.86457                     696.70312                    -118.22271
                   18022.99152                     667.20289                    -183.72636
                    7300.78100                     113.05942                    -148.77003
        </DataArray>
        <DataArray type="Float32" Name="Moment" NumberOfComponents="3" format="ascii">
                     -18.44799                     -15.81253                     -12.72129
                     102.86346                    -310.03596                    -278.92589
                     758.94456                   -1756.91262                   -1458.82351
                     691.18423                   -2058.69609                   -1999.80076
                      13.62837                     -78.26408                    -323.32302
                    -614.15050                    1983.58150                    1093.60883
                    -369.73010                    1194.59581                     951.34575
                     -40.98033                    -344.52795                     641.25983
                      77.32746                   -1064.91918                     307.43075
                     131.47478                   -1766.77275                    -299.34521
                     311.07357                   -3748.81505                   -1764.62093
                     476.32391                   -6239.11804                   -3976.44081
                     -41.10359                     353.59407                     206.45375
                    -531.29148                    7445.76586                    4832.62160
                    -398.18031                    6926.29312                    4432.31143
                    -202.95179                    1129.85701                     637.03544
                    -114.17069                    -247.04286                      19.51999
        </DataArray>
      </PointData>
    </Piece>
  </PolyData>
</VTKFile>
