<?xml version="1.0"?>
<VTKFile type="PolyData" version="0.1" byte_order="LittleEndian">
  <PolyData>
    <Piece NumberOfPoints="     19" NumberOfVerts="  0" NumberOfLines="     18"
           NumberOfStrips="  0" NumberOfPolys="      0">
      <Points>
        <DataArray type="Float32" NumberOfComponents="3" format="ascii">
                       3.03051                       1.47947                      90.22800
                       2.98159                       2.84224                      90.31943
                       2.87430                       5.56124                      90.59808
                       2.76601                       8.27771                      90.92026
                       2.63588                      11.67266                      91.34655
                       2.52895                      15.75825                      91.70388
                       2.44936                      19.85306                      91.92178
                       2.39117                      23.94873                      92.12918
                       2.36287                      28.04527                      92.32384
                       2.37203                      32.14227                      92.50758
                       2.42181                      36.23911                      92.68477
                       2.52683                      40.33519                      92.85230
                       2.69531                      44.42943                      93.00936
                       2.93208                      48.52060                      93.15536
                       3.23821                      52.60746                      93.29019
                       3.53849                      56.00973                      93.39507
                       3.80062                      58.72983                      93.46723
                       4.06226                      61.45196                      93.48367
                       4.19799                      62.81096                      93.53321
        </DataArray>
      </Points>
      <PointData>
        <DataArray type="Float32" Name="Force" NumberOfComponents="3" format="ascii">
                      -0.03268                       0.01590                      -0.26358
                      62.34180                       3.68384                     -22.64011
                      72.72216                       5.95240                     -53.62848
                      61.62221                       6.54705                     -70.70591
                     691.42515                       8.95636                     178.06276
                     974.24387                       8.71732                     246.68443
                    1097.72330                       9.19382                     197.26977
                    1369.69424                       7.13859                     173.86227
                    1438.29040                       0.15309                     112.36962
                    1606.44642                     -12.60697                      67.08701
                    1919.44791                     -35.39496                      11.99139
                    2108.45857                     -66.70861                     -49.81210
                    2411.22565                    -113.86402                    -100.99841
                    2525.77216                    -159.78532                    -160.81774
                    2640.70778                    -206.64971                    -223.13769
                    2734.97947                    -240.96519                    -267.66928
                    2805.81187                    -260.95517                    -286.06443
                    2283.64372                    -218.42543                    -209.00308
                    1338.01981                    -124.32902                    -193.73547
        </DataArray>
        <DataArray type="Float32" Name="Moment" NumberOfComponents="3" format="ascii">
                       0.00000                       0.00000                       0.00000
                       0.00000                       0.00000                       0.00000
                       0.00000                       0.00000                       0.00000
                       0.00000                       0.00000                       0.00000
                       5.42095                    -184.20154                     -11.78466
                       8.35633                    -334.14145                     -21.19421
                       9.77943                    -497.56026                     -31.22944
                       9.44326                    -722.21712                     -44.74093
                       4.91804                   -1010.51515                     -61.57244
                      -6.21163                   -1159.73284                     -69.19464
                     -22.99727                   -1272.16367                     -73.89632
                     -45.53595                   -1381.24767                     -77.68284
                     -59.97668                   -1211.83611                     -65.67216
                     -81.92823                   -1230.56826                     -64.08069
                     -99.93648                   -1211.51355                     -60.69849
                    -108.10615                   -1163.90611                     -56.81354
                    -101.83871                   -1040.03816                     -50.11783
                     -51.78734                    -517.69713                     -24.81122
                     -44.37193                    -444.32983                     -21.30445
        </DataArray>
        <DataArray type="Float32" Name="TranslationalVelocity" NumberOfComponents="3" format="ascii">
                       0.49021                      -0.10133                       1.42490
                       0.64681                      -0.18015                       2.68355
                       0.96057                      -0.42553                       5.19709
                       1.27587                      -0.71218                       7.71540
                       1.67316                      -1.09530                      10.87535
                       2.15575                      -1.42007                      14.69839
                       2.64679                      -1.61919                      18.55511
                       3.14774                      -1.81201                      22.43823
                       3.65780                      -1.99726                      26.34705
                       4.17422                      -2.17751                      30.27977
                       4.69262                      -2.35706                      34.23199
                       5.20771                      -2.53468                      38.20374
                       5.71275                      -2.71011                      42.19235
                       6.20116                      -2.88252                      46.19494
                       6.66775                      -3.05086                      50.20831
                       7.03882                      -3.18749                      53.55871
                       7.32403                      -3.28646                      56.24214
                       7.60085                      -3.32952                      58.92979
                       7.73828                      -3.39221                      60.27177
        </DataArray>
        <DataArray type="Float32" Name="RotationalVelocity" NumberOfComponents="3" format="ascii">
                       0.92233                       0.00926                      -0.11412
                       0.92326                       0.00930                      -0.11429
                       0.92557                       0.00941                      -0.11473
                       0.92841                       0.00956                      -0.11534
                       0.93273                       0.00978                      -0.11643
                       0.93861                       0.01011                      -0.11826
                       0.94479                       0.01048                      -0.12052
                       0.95094                       0.01085                      -0.12284
                       0.95686                       0.01119                      -0.12480
                       0.96244                       0.01147                      -0.12596
                       0.96759                       0.01165                      -0.12579
                       0.97235                       0.01171                      -0.12414
                       0.97672                       0.01166                      -0.12096
                       0.98066                       0.01151                      -0.11643
                       0.98402                       0.01128                      -0.11104
                       0.98617                       0.01107                      -0.10652
                       0.98730                       0.01091                      -0.10340
                       0.98792                       0.01076                      -0.10086
                       0.98803                       0.01070                      -0.09987
        </DataArray>
        <DataArray type="Float32" Name="TranslationalAcceleration" NumberOfComponents="3" format="ascii">
                       0.26190                      -1.12630                       0.07977
                       0.26629                      -2.29951                      -0.09401
                       0.26319                      -4.64113                      -0.50315
                       0.23256                      -7.00283                      -0.89087
                       0.14181                     -10.00091                      -1.29402
                      -0.04602                     -13.67699                      -1.48367
                      -0.33834                     -17.42235                      -1.34351
                      -0.76460                     -21.22893                      -0.97665
                      -1.36390                     -25.09035                      -0.38425
                      -2.19192                     -28.99709                       0.42426
                      -3.28255                     -32.93358                       1.41650
                      -4.73497                     -36.88650                       2.60739
                      -6.61941                     -40.83262                       3.99073
                      -8.98529                     -44.74588                       5.55911
                     -11.84020                     -48.60147                       7.29808
                     -14.54616                     -51.76357                       8.85591
                     -16.88367                     -54.25894                      10.16605
                     -19.28533                     -56.72339                      11.55249
                     -20.49345                     -57.97016                      12.20564
        </DataArray>
        <DataArray type="Float32" Name="OrientationX" NumberOfComponents="3" format="ascii">
                       0.99342                       0.02863                       0.11093
                       0.99343                       0.02822                       0.11090
                       0.99347                       0.02704                       0.11082
                       0.99353                       0.02541                       0.11072
                       0.99361                       0.02271                       0.11055
                       0.99669                       0.02065                       0.07860
                       0.99832                       0.01700                       0.05539
                       0.99932                       0.01185                       0.03499
                       0.99990                       0.00501                       0.01335
                       0.99995                      -0.00392                      -0.00900
                       0.99942                      -0.01551                      -0.03030
                       0.99824                      -0.02935                      -0.05150
                       0.99648                      -0.04496                      -0.07081
                       0.99444                      -0.06134                      -0.08562
                       0.99203                      -0.07653                      -0.10009
                       0.98995                      -0.08632                      -0.11202
                       0.98851                      -0.09090                      -0.12076
                       0.98776                      -0.09278                      -0.12542
                       0.98777                      -0.09261                      -0.12541
        </DataArray>
        <DataArray type="Float32" Name="OrientationY" NumberOfComponents="3" format="ascii">
                       0.10877                       0.06818                      -0.99173
                       0.10879                       0.06784                      -0.99175
                       0.10881                       0.06700                      -0.99180
                       0.10885                       0.06596                      -0.99187
                       0.10890                       0.06438                      -0.99197
                       0.07720                       0.06155                      -0.99511
                       0.05431                       0.05885                      -0.99679
                       0.03427                       0.05628                      -0.99783
                       0.01307                       0.05389                      -0.99846
                      -0.00879                       0.05178                      -0.99862
                      -0.02949                       0.05003                      -0.99831
                      -0.05003                       0.04872                      -0.99756
                      -0.06866                       0.04786                      -0.99649
                      -0.08279                       0.04729                      -0.99544
                      -0.09667                       0.04720                      -0.99420
                      -0.10822                       0.04755                      -0.99299
                      -0.11677                       0.04805                      -0.99200
                      -0.12134                       0.04837                      -0.99143
                      -0.12134                       0.04837                      -0.99143
        </DataArray>
        <DataArray type="Float32" Name="OrientationZ" NumberOfComponents="3" format="ascii">
                      -0.03596                       0.99726                       0.06462
                      -0.03551                       0.99730                       0.06433
                      -0.03424                       0.99739                       0.06362
                      -0.03250                       0.99750                       0.06277
                      -0.02964                       0.99767                       0.06150
                      -0.02539                       0.99789                       0.05975
                      -0.02021                       0.99812                       0.05783
                      -0.01379                       0.99834                       0.05584
                      -0.00572                       0.99853                       0.05382
                       0.00438                       0.99865                       0.05174
                       0.01700                       0.99863                       0.04955
                       0.03179                       0.99838                       0.04717
                       0.04819                       0.99784                       0.04460
                       0.06511                       0.99700                       0.04194
                       0.08081                       0.99595                       0.03942
                       0.09104                       0.99513                       0.03773
                       0.09598                       0.99470                       0.03688
                       0.09805                       0.99451                       0.03652
                       0.09788                       0.99453                       0.03655
        </DataArray>
      </PointData>
      <Lines>
        <DataArray type="Int32" Name="connectivity" format="ascii">
      0      1
      1      2
      2      3
      3      4
      4      5
      5      6
      6      7
      7      8
      8      9
      9     10
     10     11
     11     12
     12     13
     13     14
     14     15
     15     16
     16     17
     17     18
        </DataArray>
        <DataArray type="Int32" Name="offsets" format="ascii">
      2
      4
      6
      8
     10
     12
     14
     16
     18
     20
     22
     24
     26
     28
     30
     32
     34
     36
        </DataArray>
      </Lines>
    </Piece>
  </PolyData>
</VTKFile>
