<?xml version="1.0"?>
<VTKFile type="PolyData" version="0.1" byte_order="LittleEndian">
  <PolyData>
    <Piece NumberOfPoints="     17" NumberOfVerts="  0" NumberOfLines="      0"
           NumberOfStrips="  0" NumberOfPolys="      0">
      <Points>
        <DataArray type="Float32" NumberOfComponents="3" format="ascii">
                       2.33882                       2.55105                      88.08815
                       1.92416                       5.36640                      85.85449
                       1.51756                       8.18211                      83.61981
                       1.12208                      10.99842                      81.38389
                       0.74028                      13.81544                      79.14649
                       0.37484                      16.63323                      76.90735
                       0.02905                      19.45193                      74.66622
                      -0.29300                      22.27169                      72.42291
                      -0.58641                      25.09261                      70.17715
                      -0.84574                      27.91465                      67.92862
                      -1.06540                      30.73754                      65.67696
                      -1.24045                      33.56076                      63.42182
                      -1.36743                      36.38360                      61.16297
                      -1.44557                      39.20528                      58.90044
                      -1.47816                      42.02520                      56.63453
                      -1.47421                      44.84320                      54.36591
                      -1.45022                      47.65994                      52.09578
        </DataArray>
      </Points>
      <PointData>
        <DataArray type="Float32" Name="Force" NumberOfComponents="3" format="ascii">
                     160.71000                     -23.99230                     -60.25396
                     564.71509                     -82.51251                    -206.78091
                    2344.47666                     629.50894                     377.25444
                    3900.69298                    1033.09154                     629.07204
                    2364.25206                     560.48978                     311.60938
                    5104.66154                    1066.69765                     526.60316
                    6132.33916                    1095.56266                     458.86598
                    6769.45403                    1014.82256                     345.14807
                    7199.21116                     897.03862                     242.34259
                    9001.47982                     903.97512                     181.93465
                   10284.74160                     793.62361                     112.68514
                   11747.02724                     669.19903                      89.36255
                    6755.99494                     283.07899                      39.38555
                   13538.84233                     361.49465                      53.43495
                   13182.18152                     129.64870                      21.08686
                   18991.61121                    -121.21280                     -70.65853
                    7924.64972                    -172.06093                    -134.47734
        </DataArray>
        <DataArray type="Float32" Name="Moment" NumberOfComponents="3" format="ascii">
                     -19.25691                     -10.57692                     -16.93781
                     108.91521                    -217.81277                    -379.04148
                     785.44073                   -1244.50751                   -2107.11210
                     734.33210                   -1289.63433                   -2922.34547
                      -1.92403                     155.41612                    -448.63122
                    -677.27533                    1920.88451                    1620.06383
                    -415.18232                    1144.50262                    1224.57986
                    -106.06545                    -304.94559                     441.44352
                       7.46267                    -981.35601                     -54.65913
                      48.00566                   -1529.30669                    -795.12736
                     171.69256                   -3074.70011                   -2751.20870
                     252.69076                   -4849.19936                   -5665.40787
                     -29.70406                     237.63261                     375.22802
                    -253.84463                    5580.57934                    7128.27144
                    -127.01427                    5225.37937                    6641.40177
                    -145.00942                     607.16939                     969.73744
                    -124.67851                    -324.37676                     -74.17332
        </DataArray>
      </PointData>
    </Piece>
  </PolyData>
</VTKFile>
