<?xml version="1.0"?>
<VTKFile type="PolyData" version="0.1" byte_order="LittleEndian">
  <PolyData>
    <Piece NumberOfPoints="     17" NumberOfVerts="  0" NumberOfLines="      0"
           NumberOfStrips="  0" NumberOfPolys="      0">
      <Points>
        <DataArray type="Float32" NumberOfComponents="3" format="ascii">
                       3.30373                      -2.39751                      92.44005
                       3.46723                      -4.99861                      94.94901
                       3.63788                      -7.60258                      97.45452
                       3.81855                     -10.21029                      99.95543
                       4.01177                     -12.82225                     102.45095
                       4.22027                     -15.43871                     104.94052
                       4.44724                     -18.05982                     107.42357
                       4.69651                     -20.68566                     109.89946
                       4.97255                     -23.31616                     112.36754
                       5.28024                     -25.95109                     114.82711
                       5.62445                     -28.58999                     117.27757
                       6.00944                     -31.23214                     119.71843
                       6.43798                     -33.87663                     122.14948
                       6.91041                     -36.52248                     124.57092
                       7.42336                     -39.16879                     126.98366
                       7.96835                     -41.81494                     129.38960
                       8.53023                     -44.46084                     131.79199
        </DataArray>
      </Points>
      <PointData>
        <DataArray type="Float32" Name="Force" NumberOfComponents="3" format="ascii">
                     176.20327                      58.89609                      49.62612
                     572.26891                     181.68177                     149.24748
                    1880.32241                    -514.01904                    -668.18003
                    3116.75674                    -870.41039                   -1140.64559
                    1872.59224                    -456.85114                    -626.01470
                    3993.94638                    -833.58489                   -1213.56720
                    4765.60230                    -823.04181                   -1311.83253
                    5217.90202                    -725.07543                   -1310.63447
                    5580.61503                    -625.35128                   -1317.08385
                    7081.42086                    -616.66191                   -1591.36779
                    8182.19121                    -531.45479                   -1790.65074
                    9526.35529                    -465.19786                   -2104.32700
                    5537.68761                    -203.53652                   -1233.69725
                   11196.90213                    -273.07400                   -2512.36657
                   11036.63298                    -124.03015                   -2497.91711
                   16172.62065                      17.74465                   -3649.30872
                    6981.73525                      89.86155                   -1519.19447
        </DataArray>
        <DataArray type="Float32" Name="Moment" NumberOfComponents="3" format="ascii">
                     -17.00637                      11.76763                      19.28124
                     154.42354                     188.71458                     278.78607
                    1008.03590                    1084.96651                    1593.98377
                    1073.17695                    1404.25987                    2061.45425
                      61.02532                      39.60648                     222.17090
                    -805.92311                   -1325.37305                   -1427.71295
                    -573.65925                    -461.60417                   -1411.85637
                    -258.54620                    1005.29461                   -1165.42821
                    -103.93056                    1621.16813                    -826.69259
                      17.25133                    2221.49356                    -373.92017
                     413.01716                    3583.15478                    1097.11059
                    1027.07362                    5024.42301                    3662.10001
                    -131.63449                      22.71364                    -550.07046
                   -1479.61476                   -4733.16413                   -5903.93117
                   -1333.04616                   -4578.37920                   -5510.98562
                    -292.60420                    -184.70574                    -953.36301
                     -82.70080                     407.81989                      57.12491
        </DataArray>
      </PointData>
    </Piece>
  </PolyData>
</VTKFile>
