<?xml version="1.0"?>
<VTKFile type="PolyData" version="0.1" byte_order="LittleEndian">
  <PolyData>
    <Piece NumberOfPoints="     19" NumberOfVerts="  0" NumberOfLines="     18"
           NumberOfStrips="  0" NumberOfPolys="      0">
      <Points>
        <DataArray type="Float32" NumberOfComponents="3" format="ascii">
                       3.30278                      -2.47722                      92.35805
                       3.45546                      -5.16422                      94.77550
                       3.61522                      -7.85390                      97.18951
                       3.78491                     -10.54708                      99.59893
                       3.96702                     -13.24424                     102.00299
                       4.16424                     -15.94560                     104.40112
                       4.37975                     -18.65132                     106.79275
                       4.61735                     -21.36148                     109.17724
                       4.88149                     -24.07602                     111.55393
                       5.17704                     -26.79471                     113.92215
                       5.50887                     -29.51710                     116.28128
                       5.88122                     -32.24250                     118.63085
                       6.29692                     -34.97002                     120.97068
                       6.75630                     -37.69872                     123.30097
                       7.25605                     -40.42772                     125.62265
                       7.78778                     -43.15643                     127.93762
                       8.33639                     -45.88483                     130.24907
                       8.61257                     -47.24899                     131.40439
                       3.22780                      -1.13427                      91.14863
        </DataArray>
      </Points>
      <PointData>
        <DataArray type="Float32" Name="TranslationalVelocity" NumberOfComponents="3" format="ascii">
                      -0.04557                      -2.09253                      -2.22248
                      -0.33896                      -4.34207                      -4.70430
                      -0.63403                      -6.58592                      -7.18486
                      -0.93167                      -8.82249                      -9.66387
                      -1.23274                     -11.05085                     -12.14109
                      -1.53811                     -13.27058                     -14.61637
                      -1.84849                     -15.48154                     -17.08970
                      -2.16442                     -17.68377                     -19.56120
                      -2.48624                     -19.87749                     -22.03097
                      -2.81406                     -22.06308                     -24.49907
                      -3.14773                     -24.24102                     -26.96542
                      -3.48679                     -26.41190                     -29.42981
                      -3.83049                     -28.57640                     -31.89189
                      -4.17776                     -30.73526                     -34.35141
                      -4.52722                     -32.88939                     -36.80829
                      -4.87720                     -35.04001                     -39.26297
                      -5.22573                     -37.18870                     -41.71663
                      -5.39938                     -38.26280                     -42.94341
                       0.10081                      -0.96659                      -0.98129
        </DataArray>
        <DataArray type="Float32" Name="RotationalVelocity" NumberOfComponents="3" format="ascii">
                       0.92374                       0.00871                      -0.11684
                       0.92257                       0.00849                      -0.11701
                       0.92095                       0.00812                      -0.11732
                       0.91902                       0.00760                      -0.11778
                       0.91692                       0.00691                      -0.11841
                       0.91475                       0.00608                      -0.11921
                       0.91259                       0.00513                      -0.12012
                       0.91049                       0.00410                      -0.12114
                       0.90850                       0.00303                      -0.12221
                       0.90665                       0.00196                      -0.12328
                       0.90496                       0.00093                      -0.12431
                       0.90346                       0.00001                      -0.12525
                       0.90216                      -0.00076                      -0.12603
                       0.90109                      -0.00132                      -0.12658
                       0.90028                      -0.00161                      -0.12685
                       0.89978                      -0.00155                      -0.12676
                       0.89968                      -0.00109                      -0.12624
                       0.89973                      -0.00075                      -0.12587
                       0.92419                       0.00877                      -0.11679
        </DataArray>
        <DataArray type="Float32" Name="TranslationalAcceleration" NumberOfComponents="3" format="ascii">
                      -1.10487                       1.84968                      -1.83950
                      -1.36177                       4.11298                      -3.98440
                      -1.61099                       6.39934                      -6.09113
                      -1.85190                       8.71461                      -8.14969
                      -2.08557                      11.06229                     -10.15388
                      -2.31323                      13.44391                     -12.10076
                      -2.53458                      15.85942                     -13.99010
                      -2.74699                      18.30762                     -15.82377
                      -2.94546                      20.78651                     -17.60537
                      -3.12268                      23.29367                     -19.33973
                      -3.26960                      25.82653                     -21.03261
                      -3.37631                      28.38264                     -22.69041
                      -3.43342                      30.95975                     -24.31988
                      -3.43375                      33.55567                     -25.92795
                      -3.37446                      36.16793                     -27.52149
                      -3.25954                      38.79320                     -29.10697
                      -3.10265                      41.42641                     -30.69029
                      -3.01611                      42.74422                     -31.48210
                      -0.97471                       0.72291                      -0.75901
        </DataArray>
        <DataArray type="Float32" Name="RotationalAcceleration" NumberOfComponents="3" format="ascii">
                       0.02988                       0.02088                      -0.00975
                       0.02039                       0.02170                      -0.00825
                       0.00743                       0.02267                      -0.00639
                      -0.00781                       0.02345                      -0.00459
                      -0.02432                       0.02386                      -0.00312
                      -0.04123                       0.02410                      -0.00182
                      -0.05781                       0.02462                      -0.00023
                      -0.07353                       0.02588                       0.00213
                      -0.08804                       0.02834                       0.00575
                      -0.10112                       0.03243                       0.01109
                      -0.11268                       0.03841                       0.01843
                      -0.12268                       0.04632                       0.02783
                      -0.13111                       0.05595                       0.03902
                      -0.13791                       0.06671                       0.05137
                      -0.14297                       0.07756                       0.06373
                      -0.14607                       0.08701                       0.07440
                      -0.14677                       0.09299                       0.08108
                      -0.14645                       0.09482                       0.08309
                       0.03360                       0.02056                      -0.01033
        </DataArray>
        <DataArray type="Float32" Name="OrientationX" NumberOfComponents="3" format="ascii">
                       0.94655                      -0.18507                      -0.26419
                       0.94647                      -0.18378                      -0.26535
                       0.94635                      -0.18175                      -0.26718
                       0.95036                      -0.17058                      -0.26021
                       0.95922                      -0.14741                      -0.24118
                       0.96371                      -0.13220                      -0.23192
                       0.96787                      -0.11611                      -0.22304
                       0.97184                      -0.09846                      -0.21408
                       0.97537                      -0.07966                      -0.20570
                       0.97820                      -0.06036                      -0.19870
                       0.98044                      -0.04026                      -0.19264
                       0.98199                      -0.02004                      -0.18785
                       0.98260                      -0.00167                      -0.18575
                       0.98271                       0.01538                      -0.18449
                       0.98277                       0.03125                      -0.18216
                       0.98305                       0.04467                      -0.17781
                       0.98355                       0.05144                      -0.17317
                       0.98387                       0.05263                      -0.17097
                       0.94657                      -0.18551                      -0.26380
        </DataArray>
        <DataArray type="Float32" Name="OrientationY" NumberOfComponents="3" format="ascii">
                       0.31989                       0.64383                       0.69509
                       0.31991                       0.64351                       0.69538
                       0.31993                       0.64307                       0.69578
                       0.30734                       0.64490                       0.69974
                       0.27779                       0.64928                       0.70800
                       0.26084                       0.65119                       0.71268
                       0.24360                       0.65285                       0.71724
                       0.22531                       0.65434                       0.72185
                       0.20671                       0.65554                       0.72632
                       0.18887                       0.65634                       0.73044
                       0.17126                       0.65680                       0.73435
                       0.15458                       0.65692                       0.73795
                       0.14116                       0.65671                       0.74081
                       0.12928                       0.65632                       0.74332
                       0.11737                       0.65580                       0.74575
                       0.10554                       0.65518                       0.74807
                       0.09772                       0.65473                       0.74952
                       0.09530                       0.65461                       0.74994
                       0.31988                       0.64396                       0.69498
        </DataArray>
        <DataArray type="Float32" Name="OrientationZ" NumberOfComponents="3" format="ascii">
                       0.04145                      -0.74245                       0.66862
                       0.04296                      -0.74305                       0.66786
                       0.04536                      -0.74393                       0.66672
                       0.04845                      -0.74498                       0.66532
                       0.05223                      -0.74613                       0.66375
                       0.05680                      -0.74731                       0.66204
                       0.06233                      -0.74853                       0.66016
                       0.06901                      -0.74976                       0.65810
                       0.07698                      -0.75095                       0.65586
                       0.08633                      -0.75205                       0.65343
                       0.09697                      -0.75299                       0.65085
                       0.10861                      -0.75370                       0.64819
                       0.12074                      -0.75414                       0.64552
                       0.13252                      -0.75432                       0.64299
                       0.14277                      -0.75429                       0.64084
                       0.14991                      -0.75415                       0.63936
                       0.15194                      -0.75411                       0.63893
                       0.15138                      -0.75413                       0.63903
                       0.04095                      -0.74223                       0.66889
        </DataArray>
      </PointData>
      <Lines>
        <DataArray type="Int32" Name="connectivity" format="ascii">
      0      1
      1      2
      2      3
      3      4
      4      5
      5      6
      6      7
      7      8
      8      9
      9     10
     10     11
     11     12
     12     13
     13     14
     14     15
     15     16
     16     17
     18      0
        </DataArray>
        <DataArray type="Int32" Name="offsets" format="ascii">
      2
      4
      6
      8
     10
     12
     14
     16
     18
     20
     22
     24
     26
     28
     30
     32
     34
     36
        </DataArray>
      </Lines>
    </Piece>
  </PolyData>
</VTKFile>
