<?xml version="1.0"?>
<VTKFile type="PolyData" version="0.1" byte_order="LittleEndian">
  <PolyData>
    <Piece NumberOfPoints="     17" NumberOfVerts="  0" NumberOfLines="      0"
           NumberOfStrips="  0" NumberOfPolys="      0">
      <Points>
        <DataArray type="Float32" NumberOfComponents="3" format="ascii">
                       2.56668                      -1.85561                      87.41931
                       2.04998                      -3.86873                      84.45827
                       1.54206                      -5.87787                      81.49303
                       1.04648                      -7.88184                      78.52220
                       0.56639                      -9.87992                      75.54488
                       0.10515                     -11.87175                      72.56040
                      -0.33330                     -13.85708                      69.56817
                      -0.74426                     -15.83568                      66.56761
                      -1.12225                     -17.80742                      63.55822
                      -1.46129                     -19.77226                      60.53971
                      -1.75540                     -21.73022                      57.51205
                      -1.99934                     -23.68147                      54.47562
                      -2.18964                     -25.62631                      51.43124
                      -2.32589                     -27.56521                      48.38013
                      -2.41219                     -29.49895                      45.32385
                      -2.45900                     -31.42881                      42.26416
                      -2.48511                     -33.35667                      39.20290
        </DataArray>
      </Points>
      <PointData>
        <DataArray type="Float32" Name="Force" NumberOfComponents="3" format="ascii">
                     148.79558                     -79.19785                      27.86281
                     550.50454                    -253.48767                      78.23178
                    1947.96824                     542.39822                    -695.02816
                    3199.52427                     910.47986                   -1139.97735
                    1918.95229                     476.51306                    -626.50092
                    4082.96339                     879.95232                   -1216.18078
                    4789.52156                     872.09656                   -1274.46600
                    5066.79629                     765.06847                   -1184.59400
                    5142.19573                     655.02392                   -1053.00326
                    6099.17352                     646.31059                   -1070.12120
                    6361.05324                     557.32473                    -928.29260
                    6457.67528                     482.62781                    -765.49631
                    3291.82019                     214.82856                    -322.47850
                    5635.03359                     306.93036                    -431.55676
                    4492.92631                     187.14552                    -233.69519
                    6432.40789                     248.62138                    -239.90485
                    3564.00236                     146.64597                    -124.61710
        </DataArray>
        <DataArray type="Float32" Name="Moment" NumberOfComponents="3" format="ascii">
                     -19.81695                     -19.48232                      12.35430
                     143.09921                    -350.91474                     142.10587
                     935.83828                   -1914.12980                     719.75081
                     937.20120                   -2418.43748                     932.07773
                      35.20153                    -238.99005                      -8.54610
                    -777.78567                    1761.83987                   -1020.54314
                    -452.45610                    1571.04737                    -215.31497
                     -19.26575                    1117.16283                    1136.88791
                     140.02224                     805.12956                    1701.86997
                     219.81936                     565.50454                    2243.99242
                     406.83713                    -431.54215                    3166.68764
                     512.72711                   -1993.46119                    3616.47463
                      -9.01577                     859.66685                     652.32337
                    -372.36344                    4848.93182                    -575.39972
                    -195.62369                    3834.95727                       7.20570
                      36.92817                    1152.39713                    2028.32638
                      49.45486                    -305.24359                     995.74781
        </DataArray>
      </PointData>
    </Piece>
  </PolyData>
</VTKFile>
