<?xml version="1.0"?>
<VTKFile type="PolyData" version="0.1" byte_order="LittleEndian">
  <PolyData>
    <Piece NumberOfPoints="     19" NumberOfVerts="  0" NumberOfLines="     18"
           NumberOfStrips="  0" NumberOfPolys="      0">
      <Points>
        <DataArray type="Float32" NumberOfComponents="3" format="ascii">
                       2.72328                      -0.32940                      91.59240
                       2.81561                      -0.59982                      92.92890
                       2.97683                      -1.23343                      95.58491
                       3.13005                      -1.91140                      98.23267
                       3.32204                      -2.78621                     101.53703
                       3.62125                      -3.69799                     105.52480
                       3.96509                      -4.48482                     109.53415
                       4.32883                      -5.27172                     113.54174
                       4.72078                      -6.05738                     117.54691
                       5.14754                      -6.84411                     121.54831
                       5.61128                      -7.63532                     125.54466
                       6.12547                      -8.42984                     129.53415
                       6.69739                      -9.22716                     133.51521
                       7.33111                     -10.02646                     137.48649
                       8.02749                     -10.82686                     141.44706
                       8.64844                     -11.49405                     144.74016
                       9.16583                     -12.01989                     147.37227
                       9.68976                     -12.49178                     150.01445
                       9.95043                     -12.76854                     151.32714
        </DataArray>
      </Points>
      <PointData>
        <DataArray type="Float32" Name="Force" NumberOfComponents="3" format="ascii">
                       0.06158                       2.71763                       0.53835
                      74.67411                      25.45597                      -0.12311
                      93.13354                      60.21747                       5.42400
                      83.10111                      78.81066                       9.71865
                     772.37444                    -308.19604                    -119.59791
                    1123.18810                    -455.94112                    -179.98448
                    1295.10787                    -431.70349                    -195.15781
                    1654.34646                    -461.89812                    -241.59053
                    1802.51450                    -426.21476                    -261.79495
                    2083.77965                    -423.73978                    -309.05719
                    2562.35814                    -445.50681                    -395.91099
                    2954.56810                    -445.31738                    -484.70596
                    3440.78341                    -467.96621                    -608.53940
                    3792.39488                    -456.89763                    -720.73555
                    4169.34650                    -439.30491                    -843.00960
                    4393.31201                    -408.39885                    -920.76851
                    4337.98169                    -352.78796                    -919.56793
                    3133.40930                    -220.65874                    -663.33481
                    1394.58200                      40.03953                    -266.90891
        </DataArray>
        <DataArray type="Float32" Name="Moment" NumberOfComponents="3" format="ascii">
                       0.00000                       0.00000                       0.00000
                       0.00000                       0.00000                       0.00000
                       0.00000                       0.00000                       0.00000
                       0.00000                       0.00000                       0.00000
                     -14.50042                      38.56724                    -193.03031
                     -26.38245                      66.66761                    -333.52297
                     -42.76127                     101.78683                    -508.93268
                     -68.00644                     150.97201                    -754.33378
                     -97.62148                     199.79911                    -997.42744
                    -123.24279                     229.82151                   -1146.05112
                    -144.22140                     242.15176                   -1205.89517
                    -172.33116                     259.16521                   -1288.56458
                    -179.28378                     241.69140                   -1199.56090
                    -201.05432                     244.87681                   -1213.15092
                    -215.59306                     240.98862                   -1191.86029
                    -218.99017                     232.36578                   -1147.94332
                    -202.23399                     209.49193                   -1034.39186
                    -105.19136                     107.92888                    -532.79736
                     -90.11145                      92.56037                    -456.94138
        </DataArray>
        <DataArray type="Float32" Name="TranslationalVelocity" NumberOfComponents="3" format="ascii">
                      -0.07858                      -1.39424                      -0.26505
                      -0.10901                      -2.64599                      -0.51623
                      -0.18014                      -5.13391                      -1.10563
                      -0.25760                      -7.62190                      -1.73895
                      -0.36020                     -10.74226                      -2.56118
                      -0.47250                     -14.54038                      -3.42522
                      -0.57513                     -18.39502                      -4.17744
                      -0.68182                     -22.28231                      -4.93541
                      -0.79504                     -26.20162                      -5.69720
                      -0.92001                     -30.15033                      -6.46383
                      -1.06170                     -34.12239                      -7.23686
                      -1.22965                     -38.11776                      -8.01353
                      -1.43251                     -42.13316                      -8.79077
                      -1.67760                     -46.16523                      -9.56496
                      -1.96873                     -50.21038                     -10.33263
                      -2.24426                     -53.58861                     -10.96594
                      -2.48290                     -56.29610                     -11.46040
                      -2.72582                     -59.01616                     -11.89835
                      -2.85307                     -60.36772                     -12.15811
        </DataArray>
        <DataArray type="Float32" Name="RotationalVelocity" NumberOfComponents="3" format="ascii">
                       0.92811                      -0.00121                      -0.10560
                       0.92929                      -0.00138                      -0.10571
                       0.93217                      -0.00183                      -0.10600
                       0.93571                      -0.00238                      -0.10636
                       0.94110                      -0.00315                      -0.10688
                       0.94848                      -0.00397                      -0.10756
                       0.95628                      -0.00474                      -0.10825
                       0.96404                      -0.00584                      -0.10901
                       0.97143                      -0.00777                      -0.10991
                       0.97824                      -0.01105                      -0.11104
                       0.98429                      -0.01632                      -0.11251
                       0.98963                      -0.02361                      -0.11433
                       0.99427                      -0.03280                      -0.11649
                       0.99817                      -0.04336                      -0.11887
                       1.00128                      -0.05421                      -0.12125
                       1.00310                      -0.06222                      -0.12298
                       1.00393                      -0.06696                      -0.12398
                       1.00425                      -0.07009                      -0.12463
                       1.00421                      -0.07096                      -0.12480
        </DataArray>
        <DataArray type="Float32" Name="TranslationalAcceleration" NumberOfComponents="3" format="ascii">
                       1.07487                       0.19502                      -1.07754
                       1.00991                       0.39991                      -2.25187
                       0.88019                       0.88738                      -4.59130
                       0.74889                       1.40108                      -6.94526
                       0.58252                       2.04509                      -9.92369
                       0.37795                       2.65433                     -13.58507
                       0.17217                       3.09575                     -17.33964
                      -0.02568                       3.47994                     -21.17193
                      -0.20441                       3.80494                     -25.08230
                      -0.34909                       4.07376                     -29.06894
                      -0.44871                       4.29691                     -33.12204
                      -0.48120                       4.47043                     -37.24818
                      -0.43001                       4.59734                     -41.44652
                      -0.28376                       4.68122                     -45.71600
                      -0.04052                       4.72688                     -50.05327
                       0.22664                       4.74103                     -53.71176
                       0.47354                       4.73239                     -56.66145
                       0.72854                       4.66173                     -59.61960
                       0.85971                       4.66924                     -61.09892
        </DataArray>
        <DataArray type="Float32" Name="OrientationX" NumberOfComponents="3" format="ascii">
                       0.96555                      -0.23408                      -0.11366
                       0.96552                      -0.23400                      -0.11405
                       0.96545                      -0.23378                      -0.11516
                       0.96534                      -0.23347                      -0.11669
                       0.96515                      -0.23296                      -0.11923
                       0.97238                      -0.20169                      -0.11750
                       0.97680                      -0.17862                      -0.11813
                       0.98007                      -0.15804                      -0.12039
                       0.98293                      -0.13598                      -0.12390
                       0.98519                      -0.11288                      -0.12907
                       0.98649                      -0.09043                      -0.13663
                       0.98696                      -0.06770                      -0.14606
                       0.98647                      -0.04654                      -0.15719
                       0.98508                      -0.02965                      -0.16954
                       0.98344                      -0.01321                      -0.18077
                       0.98226                      -0.00001                      -0.18751
                       0.98172                       0.00931                      -0.19010
                       0.98150                       0.01418                      -0.19092
                       0.98154                       0.01414                      -0.19072
        </DataArray>
        <DataArray type="Float32" Name="OrientationY" NumberOfComponents="3" format="ascii">
                       0.25122                       0.95239                       0.17275
                       0.25122                       0.95240                       0.17270
                       0.25121                       0.95242                       0.17258
                       0.25120                       0.95245                       0.17243
                       0.25118                       0.95250                       0.17220
                       0.22025                       0.95950                       0.17567
                       0.19780                       0.96394                       0.17805
                       0.17812                       0.96738                       0.18012
                       0.15726                       0.97057                       0.18239
                       0.13574                       0.97335                       0.18485
                       0.11536                       0.97551                       0.18730
                       0.09514                       0.97718                       0.18992
                       0.07682                       0.97829                       0.19250
                       0.06296                       0.97886                       0.19461
                       0.04934                       0.97918                       0.19688
                       0.03799                       0.97928                       0.19894
                       0.02955                       0.97924                       0.20054
                       0.02503                       0.97919                       0.20141
                       0.02503                       0.97919                       0.20141
        </DataArray>
        <DataArray type="Float32" Name="OrientationZ" NumberOfComponents="3" format="ascii">
                       0.06781                      -0.19535                       0.97839
                       0.06821                      -0.19540                       0.97835
                       0.06934                      -0.19555                       0.97824
                       0.07089                      -0.19577                       0.97809
                       0.07345                      -0.19615                       0.97782
                       0.07731                      -0.19669                       0.97741
                       0.08207                      -0.19729                       0.97690
                       0.08800                      -0.19797                       0.97625
                       0.09545                      -0.19876                       0.97539
                       0.10476                      -0.19963                       0.97425
                       0.11634                      -0.20053                       0.97276
                       0.12987                      -0.20134                       0.97087
                       0.14482                      -0.20197                       0.96863
                       0.16019                      -0.20238                       0.96612
                       0.17441                      -0.20254                       0.96362
                       0.18362                      -0.20253                       0.96191
                       0.18802                      -0.20249                       0.96106
                       0.18980                      -0.20247                       0.96072
                       0.18959                      -0.20247                       0.96076
        </DataArray>
      </PointData>
      <Lines>
        <DataArray type="Int32" Name="connectivity" format="ascii">
      0      1
      1      2
      2      3
      3      4
      4      5
      5      6
      6      7
      7      8
      8      9
      9     10
     10     11
     11     12
     12     13
     13     14
     14     15
     15     16
     16     17
     17     18
        </DataArray>
        <DataArray type="Int32" Name="offsets" format="ascii">
      2
      4
      6
      8
     10
     12
     14
     16
     18
     20
     22
     24
     26
     28
     30
     32
     34
     36
        </DataArray>
      </Lines>
    </Piece>
  </PolyData>
</VTKFile>
