<?xml version="1.0"?>
<VTKFile type="PolyData" version="0.1" byte_order="LittleEndian">
  <PolyData>
    <Piece NumberOfPoints="     19" NumberOfVerts="  0" NumberOfLines="     18"
           NumberOfStrips="  0" NumberOfPolys="      0">
      <Points>
        <DataArray type="Float32" NumberOfComponents="3" format="ascii">
                       2.40175                       2.06969                      87.61144
                       1.91591                       4.35156                      84.84660
                       1.43769                       6.63156                      82.07888
                       0.96990                       8.90935                      79.30756
                       0.51480                      11.18471                      76.53215
                       0.07482                      13.45756                      73.75224
                      -0.34690                      15.72803                      70.96758
                      -0.74626                      17.99646                      68.17796
                      -1.11820                      20.26317                      65.38317
                      -1.45697                      22.52841                      62.58300
                      -1.75655                      24.79223                      59.77724
                      -2.01143                      27.05444                      56.96578
                      -2.21757                      29.31462                      54.14869
                      -2.37363                      31.57229                      51.32635
                      -2.48241                      33.82712                      48.49948
                      -2.55266                      36.07924                      45.66915
                      -2.60093                      38.32963                      42.83692
                      -2.62220                      39.45458                      41.42056
                       2.64616                       0.92832                      88.99325
        </DataArray>
      </Points>
      <PointData>
        <DataArray type="Float32" Name="TranslationalVelocity" NumberOfComponents="3" format="ascii">
                      -0.35906                       2.37352                       1.86227
                      -0.06322                       4.96940                       3.95272
                       0.22940                       7.57272                       6.04671
                       0.51767                      10.18517                       8.14526
                       0.80088                      12.80782                      10.24894
                       1.07922                      15.44133                      12.35802
                       1.35409                      18.08596                      14.47269
                       1.62825                      20.74169                      16.59299
                       1.90585                      23.40827                      18.71878
                       2.19224                      26.08517                      20.84969
                       2.49355                      28.77156                      22.98509
                       2.81613                      31.46616                      25.12412
                       3.16574                      34.16729                      27.26580
                       3.54664                      36.87292                      29.40916
                       3.96035                      39.58098                      31.55335
                       4.40430                      42.28971                      33.69765
                       4.87026                      44.99818                      35.84160
                       5.10730                      46.35230                      36.91345
                      -0.50765                       1.07717                       0.81778
        </DataArray>
        <DataArray type="Float32" Name="RotationalVelocity" NumberOfComponents="3" format="ascii">
                       0.91868                      -0.01658                      -0.11012
                       0.92045                      -0.01588                      -0.10986
                       0.92285                      -0.01489                      -0.10947
                       0.92563                      -0.01364                      -0.10893
                       0.92865                      -0.01230                      -0.10836
                       0.93178                      -0.01111                      -0.10793
                       0.93495                      -0.01036                      -0.10787
                       0.93808                      -0.01034                      -0.10841
                       0.94111                      -0.01136                      -0.10979
                       0.94396                      -0.01364                      -0.11218
                       0.94656                      -0.01730                      -0.11567
                       0.94882                      -0.02232                      -0.12022
                       0.95069                      -0.02849                      -0.12565
                       0.95212                      -0.03537                      -0.13159
                       0.95307                      -0.04225                      -0.13745
                       0.95354                      -0.04810                      -0.14236
                       0.95355                      -0.05154                      -0.14521
                       0.95345                      -0.05246                      -0.14596
                       0.91798                      -0.01686                      -0.11023
        </DataArray>
        <DataArray type="Float32" Name="TranslationalAcceleration" NumberOfComponents="3" format="ascii">
                       0.47966                      -2.07327                       2.24060
                       0.68789                      -3.95046                       4.70417
                       0.93112                      -5.74588                       7.24700
                       1.22685                      -7.43780                       9.88827
                       1.59268                      -9.01295                      12.63868
                       2.03951                     -10.46623                      15.50265
                       2.56507                     -11.79937                      18.48080
                       3.15102                     -13.01930                      21.57174
                       3.76280                     -14.13639                      24.77303
                       4.35100                     -15.16233                      28.08167
                       4.85465                     -16.10819                      31.49391
                       5.20675                     -16.98288                      35.00446
                       5.34182                     -17.79269                      38.60542
                       5.20551                     -18.54220                      42.28535
                       4.76662                     -19.23622                      46.02929
                       4.03125                     -19.88314                      49.81969
                       3.05884                     -20.49986                      53.63730
                       2.52467                     -20.80351                      55.55042
                       0.38228                      -1.11746                       1.02564
        </DataArray>
        <DataArray type="Float32" Name="RotationalAcceleration" NumberOfComponents="3" format="ascii">
                       0.01692                       0.00927                       0.01331
                       0.04271                       0.00596                       0.00599
                       0.07800                       0.00010                      -0.00512
                       0.11946                      -0.00925                      -0.02021
                       0.16392                      -0.02177                      -0.03846
                       0.20892                      -0.03543                      -0.05774
                       0.25282                      -0.04697                      -0.07508
                       0.29445                      -0.05299                      -0.08745
                       0.33322                      -0.05013                      -0.09198
                       0.36906                      -0.03550                      -0.08625
                       0.40218                      -0.00716                      -0.06871
                       0.43292                       0.03541                      -0.03899
                       0.46136                       0.09087                       0.00180
                       0.48708                       0.15561                       0.05074
                       0.50910                       0.22322                       0.10271
                       0.52555                       0.28415                       0.15015
                       0.53322                       0.32529                       0.18279
                       0.53437                       0.33904                       0.19395
                       0.00683                       0.01050                       0.01611
        </DataArray>
        <DataArray type="Float32" Name="OrientationX" NumberOfComponents="3" format="ascii">
                       0.97876                       0.20496                      -0.00383
                       0.97897                       0.20400                      -0.00266
                       0.97928                       0.20249                      -0.00083
                       0.98165                       0.19058                      -0.00708
                       0.98602                       0.16484                      -0.02415
                       0.98838                       0.14859                      -0.03206
                       0.99054                       0.13146                      -0.03928
                       0.99256                       0.11267                      -0.04610
                       0.99435                       0.09265                      -0.05184
                       0.99584                       0.07215                      -0.05571
                       0.99702                       0.05079                      -0.05807
                       0.99785                       0.02929                      -0.05871
                       0.99835                       0.00988                      -0.05659
                       0.99853                      -0.00823                      -0.05356
                       0.99834                      -0.02540                      -0.05167
                       0.99781                      -0.04041                      -0.05230
                       0.99731                      -0.04858                      -0.05481
                       0.99713                      -0.05037                      -0.05650
                       0.97870                       0.20527                      -0.00421
        </DataArray>
        <DataArray type="Float32" Name="OrientationY" NumberOfComponents="3" format="ascii">
                       0.15416                      -0.74822                      -0.64529
                       0.15430                      -0.74888                      -0.64450
                       0.15449                      -0.74977                      -0.64341
                       0.14165                      -0.75342                      -0.64210
                       0.11138                      -0.76005                      -0.64025
                       0.09414                      -0.76396                      -0.63836
                       0.07664                      -0.76760                      -0.63633
                       0.05806                      -0.77100                      -0.63418
                       0.03917                      -0.77401                      -0.63196
                       0.02103                      -0.77649                      -0.62977
                       0.00311                      -0.77850                      -0.62764
                      -0.01391                      -0.78000                      -0.62563
                      -0.02764                      -0.78098                      -0.62395
                      -0.03983                      -0.78159                      -0.62252
                      -0.05205                      -0.78185                      -0.62129
                      -0.06417                      -0.78175                      -0.62028
                      -0.07213                      -0.78150                      -0.61973
                      -0.07458                      -0.78137                      -0.61959
                       0.15410                      -0.74796                      -0.64560
        </DataArray>
        <DataArray type="Float32" Name="OrientationZ" NumberOfComponents="3" format="ascii">
                      -0.13512                       0.63100                      -0.76393
                      -0.13347                       0.63053                      -0.76460
                      -0.13091                       0.62996                      -0.76552
                      -0.12770                       0.62931                      -0.76659
                      -0.12390                       0.62861                      -0.76779
                      -0.11935                       0.62792                      -0.76907
                      -0.11381                       0.62730                      -0.77041
                      -0.10700                       0.62679                      -0.77181
                      -0.09867                       0.62636                      -0.77326
                      -0.08869                       0.62598                      -0.77478
                      -0.07709                       0.62558                      -0.77634
                      -0.06412                       0.62510                      -0.77791
                      -0.05036                       0.62448                      -0.77942
                      -0.03674                       0.62374                      -0.78077
                      -0.02462                       0.62295                      -0.78188
                      -0.01582                       0.62228                      -0.78264
                      -0.01273                       0.62201                      -0.78290
                      -0.01294                       0.62203                      -0.78289
                      -0.13567                       0.63120                      -0.76366
        </DataArray>
      </PointData>
      <Lines>
        <DataArray type="Int32" Name="connectivity" format="ascii">
      0      1
      1      2
      2      3
      3      4
      4      5
      5      6
      6      7
      7      8
      8      9
      9     10
     10     11
     11     12
     12     13
     13     14
     14     15
     15     16
     16     17
     18      0
        </DataArray>
        <DataArray type="Int32" Name="offsets" format="ascii">
      2
      4
      6
      8
     10
     12
     14
     16
     18
     20
     22
     24
     26
     28
     30
     32
     34
     36
        </DataArray>
      </Lines>
    </Piece>
  </PolyData>
</VTKFile>
