<?xml version="1.0"?>
<VTKFile type="PolyData" version="0.1" byte_order="LittleEndian">
  <PolyData>
    <Piece NumberOfPoints="     17" NumberOfVerts="  0" NumberOfLines="      0"
           NumberOfStrips="  0" NumberOfPolys="      0">
      <Points>
        <DataArray type="Float32" NumberOfComponents="3" format="ascii">
                       2.57191                      -1.66257                      87.30192
                       2.03764                      -3.46211                      84.20943
                       1.51308                      -5.25815                      81.11323
                       1.00211                      -7.04956                      78.01210
                       0.50810                      -8.83569                      74.90518
                       0.03466                     -10.61620                      71.79184
                      -0.41388                     -12.39079                      68.67145
                      -0.83233                     -14.15917                      65.54338
                      -1.21454                     -15.92110                      62.40707
                      -1.55372                     -17.67643                      59.26213
                      -1.84303                     -19.42507                      56.10852
                      -2.07642                     -21.16710                      52.94662
                      -2.24975                     -22.90273                      49.77734
                      -2.36228                     -24.63237                      46.60199
                      -2.41839                     -26.35676                      43.42217
                      -2.42956                     -28.07717                      40.23961
                      -2.41675                     -29.79552                      37.05584
        </DataArray>
      </Points>
      <PointData>
        <DataArray type="Float32" Name="Force" NumberOfComponents="3" format="ascii">
                     144.63056                     -80.28362                      21.68672
                     537.30365                    -259.29764                      59.99214
                    1932.27158                     566.73492                    -649.27916
                    3188.53165                     954.65409                   -1067.29476
                    1918.11328                     501.73041                    -589.57803
                    4092.68414                     930.36260                   -1149.67056
                    4824.23914                     928.86297                   -1212.20557
                    5150.31801                     826.71973                   -1138.08353
                    5293.61106                     723.41991                   -1024.14064
                    6384.87132                     737.84973                   -1057.11936
                    6852.51575                     672.69362                    -940.79605
                    7230.29100                     629.91830                    -802.19474
                    3839.12167                     299.16697                    -346.99569
                    6973.91648                     475.68733                    -484.78067
                    6081.22086                     360.40590                    -288.06018
                    8606.51353                     453.74596                    -260.85720
                    4280.11834                     221.14555                    -107.05091
        </DataArray>
        <DataArray type="Float32" Name="Moment" NumberOfComponents="3" format="ascii">
                     -19.82428                     -19.49497                      10.71180
                     136.97004                    -358.06680                     117.25923
                     909.92444                   -1952.84127                     575.28745
                     913.65826                   -2480.06065                     756.87930
                      33.67987                    -241.16807                     -26.47731
                    -760.42135                    1820.37464                    -901.09397
                    -438.85912                    1563.34062                    -117.52614
                      -9.15783                     985.15110                    1193.48938
                     148.81676                     601.70911                    1728.91068
                     232.68585                     251.21513                    2251.34529
                     439.13599                    -972.52633                    3151.42949
                     586.77719                   -2818.17189                    3644.08991
                     -21.74423                     782.27828                     639.92527
                    -487.43627                    5437.72770                    -772.30497
                    -325.12140                    4525.18210                    -373.05398
                     -58.81723                    1386.81690                    1804.74096
                      28.92008                    -251.83195                     918.00715
        </DataArray>
      </PointData>
    </Piece>
  </PolyData>
</VTKFile>
