<?xml version="1.0"?>
<VTKFile type="PolyData" version="0.1" byte_order="LittleEndian">
  <PolyData>
    <Piece NumberOfPoints="     19" NumberOfVerts="  0" NumberOfLines="     18"
           NumberOfStrips="  0" NumberOfPolys="      0">
      <Points>
        <DataArray type="Float32" NumberOfComponents="3" format="ascii">
                       3.17796                       1.37953                      90.68039
                       3.17959                       2.65593                      91.16894
                       3.17277                       5.17432                      92.23641
                       3.16419                       7.67642                      93.34686
                       3.15754                      10.79427                      94.76094
                       3.19777                      14.58782                      96.31976
                       3.26385                      18.42774                      97.75580
                       3.34898                      22.26798                      99.19001
                       3.46107                      26.10906                     100.62013
                       3.60688                      29.95005                     102.04745
                       3.78900                      33.78943                     103.47482
                       4.02044                      37.62719                     104.89939
                       4.30826                      41.46273                     106.31963
                       4.65641                      45.29541                     107.73407
                       5.06578                      49.12461                     109.14158
                       5.44661                      52.31307                     110.30940
                       5.77034                      54.86520                     111.23349
                       6.09271                      57.43681                     112.10592
                       6.25847                      58.70755                     112.58073
        </DataArray>
      </Points>
      <PointData>
        <DataArray type="Float32" Name="Force" NumberOfComponents="3" format="ascii">
                      -0.03645                       0.10876                      -0.28625
                      64.93854                       8.24077                     -21.97111
                      75.63589                      19.34328                     -51.50266
                      63.96010                      25.28233                     -67.36627
                     687.38689                     -67.38615                     165.20370
                     955.20630                     -94.29279                     221.63154
                    1075.69695                     -83.05149                     174.88256
                    1355.84632                     -87.79880                     154.20591
                    1459.92131                     -81.36771                     101.66539
                    1687.17314                     -90.54096                      65.30759
                    2101.90345                    -115.69629                      21.98840
                    2443.86078                    -149.09990                     -27.33987
                    2905.57351                    -210.25493                     -65.72344
                    3258.21116                    -272.22663                    -117.26084
                    3613.63575                    -340.80780                    -171.79169
                    3859.26127                    -388.17788                    -220.41134
                    3858.87973                    -394.65359                    -252.22584
                    2879.87486                    -295.29478                    -201.25819
                    1186.57987                     -79.58328                    -197.94027
        </DataArray>
        <DataArray type="Float32" Name="Moment" NumberOfComponents="3" format="ascii">
                       0.00000                       0.00000                       0.00000
                       0.00000                       0.00000                       0.00000
                       0.00000                       0.00000                       0.00000
                       0.00000                       0.00000                       0.00000
                      -1.24371                    -179.43046                     -68.01432
                      -3.57412                    -328.48250                    -124.34831
                      -7.54756                    -478.77063                    -180.94272
                     -15.00238                    -686.28526                    -258.83642
                     -27.99315                    -947.69367                    -356.50156
                     -41.96181                   -1071.80860                    -401.87898
                     -58.89884                   -1151.78335                    -430.10783
                     -79.68217                   -1222.72700                    -454.41562
                     -87.36580                   -1082.27446                    -400.07377
                    -105.42857                   -1089.34980                    -400.46191
                    -119.33840                   -1068.40520                    -390.73300
                    -124.06925                   -1021.98892                    -372.49521
                    -114.80453                    -910.74129                    -331.40760
                     -58.66594                    -458.50472                    -166.73365
                     -48.19457                    -377.29827                    -137.21351
        </DataArray>
        <DataArray type="Float32" Name="TranslationalVelocity" NumberOfComponents="3" format="ascii">
                       0.34241                      -0.53186                       1.34742
                       0.49645                      -0.98349                       2.52683
                       0.80080                      -1.96880                       4.85342
                       1.10185                      -2.99272                       7.16321
                       1.47353                      -4.29545                      10.03823
                       1.91784                      -5.73446                      13.53073
                       2.35719                      -7.06071                      17.05931
                       2.78459                      -8.38476                      20.58158
                       3.19653                      -9.70530                      24.09826
                       3.58839                     -11.02406                      27.60910
                       3.95770                     -12.34398                      31.11411
                       4.29691                     -13.66305                      34.61401
                       4.60114                     -14.97991                      38.10991
                       4.86734                     -16.29289                      41.60294
                       5.09580                     -17.60041                      45.09409
                       5.26157                     -18.68552                      48.00264
                       5.38181                     -19.54423                      50.33182
                       5.49982                     -20.35545                      52.67900
                       5.55719                     -20.79644                      53.83895
        </DataArray>
        <DataArray type="Float32" Name="RotationalVelocity" NumberOfComponents="3" format="ascii">
                       0.92428                       0.00896                      -0.11745
                       0.92403                       0.00889                      -0.11728
                       0.92340                       0.00870                      -0.11675
                       0.92262                       0.00842                      -0.11603
                       0.92142                       0.00796                      -0.11481
                       0.91980                       0.00725                      -0.11294
                       0.91812                       0.00635                      -0.11057
                       0.91646                       0.00520                      -0.10753
                       0.91488                       0.00372                      -0.10363
                       0.91346                       0.00184                      -0.09867
                       0.91229                      -0.00053                      -0.09242
                       0.91141                      -0.00333                      -0.08505
                       0.91085                      -0.00645                      -0.07685
                       0.91060                      -0.00967                      -0.06834
                       0.91059                      -0.01268                      -0.06042
                       0.91070                      -0.01465                      -0.05524
                       0.91079                      -0.01560                      -0.05273
                       0.91083                      -0.01600                      -0.05168
                       0.91082                      -0.01597                      -0.05176
        </DataArray>
        <DataArray type="Float32" Name="TranslationalAcceleration" NumberOfComponents="3" format="ascii">
                      -1.14207                      -1.29189                      -0.54360
                      -1.17142                      -2.38584                      -0.99870
                      -1.23650                      -4.53234                      -1.99882
                      -1.28818                      -6.63425                      -3.08240
                      -1.31923                      -9.19804                      -4.54231
                      -1.27225                     -12.25308                      -6.32404
                      -1.12848                     -15.28031                      -8.18600
                      -0.91221                     -18.22661                     -10.23329
                      -0.64945                     -21.09514                     -12.46419
                      -0.38688                     -23.88832                     -14.87284
                      -0.17704                     -26.61541                     -17.43248
                      -0.09495                     -29.27282                     -20.14074
                      -0.21791                     -31.86345                     -22.97172
                      -0.61396                     -34.38916                     -25.89426
                      -1.32590                     -36.85220                     -28.87439
                      -2.15523                     -38.86287                     -31.37829
                      -2.96088                     -40.45478                     -33.37941
                      -3.84713                     -42.08083                     -35.34343
                      -4.30425                     -42.86032                     -36.34853
        </DataArray>
        <DataArray type="Float32" Name="OrientationX" NumberOfComponents="3" format="ascii">
                       0.99353                      -0.04134                       0.10576
                       0.99353                      -0.04169                       0.10562
                       0.99353                      -0.04272                       0.10523
                       0.99352                      -0.04413                       0.10470
                       0.99351                      -0.04647                       0.10381
                       0.99660                      -0.03873                       0.07278
                       0.99815                      -0.03494                       0.04968
                       0.99903                      -0.03324                       0.02886
                       0.99945                      -0.03251                       0.00643
                       0.99930                      -0.03327                      -0.01721
                       0.99851                      -0.03652                      -0.04052
                       0.99706                      -0.04161                      -0.06432
                       0.99504                      -0.04869                      -0.08679
                       0.99277                      -0.05777                      -0.10518
                       0.99023                      -0.06590                      -0.12293
                       0.98810                      -0.07023                      -0.13682
                       0.98667                      -0.07120                      -0.14630
                       0.98594                      -0.07120                      -0.15117
                       0.98596                      -0.07101                      -0.15110
        </DataArray>
        <DataArray type="Float32" Name="OrientationY" NumberOfComponents="3" format="ascii">
                       0.11355                       0.35263                      -0.92885
                       0.11355                       0.35261                      -0.92886
                       0.11355                       0.35254                      -0.92888
                       0.11354                       0.35247                      -0.92891
                       0.11354                       0.35234                      -0.92896
                       0.08179                       0.35353                      -0.93184
                       0.05885                       0.35421                      -0.93331
                       0.03878                       0.35471                      -0.93417
                       0.01757                       0.35524                      -0.93461
                      -0.00425                       0.35579                      -0.93455
                      -0.02487                       0.35635                      -0.93402
                      -0.04529                       0.35700                      -0.93301
                      -0.06375                       0.35771                      -0.93165
                      -0.07771                       0.35836                      -0.93034
                      -0.09140                       0.35914                      -0.92880
                      -0.10282                       0.35989                      -0.92731
                      -0.11130                       0.36050                      -0.92610
                      -0.11584                       0.36083                      -0.92541
                      -0.11584                       0.36083                      -0.92541
        </DataArray>
        <DataArray type="Float32" Name="OrientationZ" NumberOfComponents="3" format="ascii">
                       0.00110                       0.93485                       0.35505
                       0.00148                       0.93484                       0.35506
                       0.00258                       0.93482                       0.35511
                       0.00409                       0.93478                       0.35519
                       0.00659                       0.93472                       0.35533
                       0.01036                       0.93462                       0.35550
                       0.01501                       0.93451                       0.35561
                       0.02081                       0.93438                       0.35566
                       0.02810                       0.93421                       0.35561
                       0.03721                       0.93397                       0.35540
                       0.04855                       0.93364                       0.35491
                       0.06178                       0.93318                       0.35407
                       0.07640                       0.93256                       0.35283
                       0.09144                       0.93179                       0.35128
                       0.10535                       0.93095                       0.34961
                       0.11436                       0.93035                       0.34839
                       0.11868                       0.93004                       0.34777
                       0.12043                       0.92991                       0.34751
                       0.12023                       0.92993                       0.34754
        </DataArray>
      </PointData>
      <Lines>
        <DataArray type="Int32" Name="connectivity" format="ascii">
      0      1
      1      2
      2      3
      3      4
      4      5
      5      6
      6      7
      7      8
      8      9
      9     10
     10     11
     11     12
     12     13
     13     14
     14     15
     15     16
     16     17
     17     18
        </DataArray>
        <DataArray type="Int32" Name="offsets" format="ascii">
      2
      4
      6
      8
     10
     12
     14
     16
     18
     20
     22
     24
     26
     28
     30
     32
     34
     36
        </DataArray>
      </Lines>
    </Piece>
  </PolyData>
</VTKFile>
