<?xml version="1.0"?>
<VTKFile type="PolyData" version="0.1" byte_order="LittleEndian">
  <PolyData>
    <Piece NumberOfPoints="     19" NumberOfVerts="  0" NumberOfLines="     18"
           NumberOfStrips="  0" NumberOfPolys="      0">
      <Points>
        <DataArray type="Float32" NumberOfComponents="3" format="ascii">
                       2.86897                       0.35830                      88.72742
                       2.64425                       0.72047                      87.42888
                       2.17686                       1.53631                      84.86028
                       1.70399                       2.39680                      82.30505
                       1.11482                       3.50112                      79.11872
                       0.46813                       4.69374                      75.24848
                      -0.14134                       5.76732                      71.33902
                      -0.73093                       6.84484                      67.42757
                      -1.29270                       7.92490                      63.51268
                      -1.82041                       9.00952                      59.59427
                      -2.31219                      10.10143                      55.67320
                      -2.75554                      11.19947                      51.74802
                      -3.14406                      12.30276                      47.81847
                      -3.47439                      13.41013                      43.88470
                      -3.74603                      14.52031                      39.94717
                      -3.93468                      15.44662                      36.66373
                      -4.06716                      16.18038                      34.03390
                      -4.19740                      16.86139                      31.38864
                      -4.26155                      17.24194                      30.07762
        </DataArray>
      </Points>
      <PointData>
        <DataArray type="Float32" Name="Force" NumberOfComponents="3" format="ascii">
                      -0.04020                      -1.17704                      -0.31785
                      58.22825                     -16.24034                     -14.51886
                      74.33870                     -43.67439                     -24.77635
                      67.94420                     -61.08563                     -28.37162
                     617.52578                     245.44806                     -35.37250
                     810.49328                     272.33414                     -56.86851
                     981.87236                     277.26040                     -78.45263
                    1308.32886                     317.90327                    -110.54698
                    1471.10788                     300.55635                    -128.51874
                    1743.07333                     308.80833                    -148.58226
                    2192.61154                     332.05140                    -176.64425
                    2551.76348                     334.61971                    -185.24092
                    2989.91046                     355.61388                    -182.77247
                    3265.44120                     338.60759                    -163.98756
                    3470.05086                     306.87711                    -140.77149
                    3554.52436                     263.73320                    -126.58716
                    3436.98079                     209.99610                    -120.52046
                    2484.73276                     121.10582                     -91.74208
                    1176.71636                     -36.34546                     -69.31107
        </DataArray>
        <DataArray type="Float32" Name="Moment" NumberOfComponents="3" format="ascii">
                       0.00000                       0.00000                       0.00000
                       0.00000                       0.00000                       0.00000
                       0.00000                       0.00000                       0.00000
                       0.00000                       0.00000                       0.00000
                      38.45966                     -63.54809                     230.46370
                      67.15952                    -113.71373                     412.60459
                      83.86731                    -146.49839                     531.89787
                     111.75156                    -203.18347                     738.28437
                     143.60529                    -275.07866                    1000.49408
                     149.56659                    -306.76010                    1117.06112
                     143.62487                    -322.57678                    1176.38407
                     133.87480                    -337.79671                    1233.97886
                     103.68913                    -302.59963                    1107.45663
                      86.39658                    -300.16028                    1100.61044
                      68.75457                    -289.55971                    1063.58623
                      56.28146                    -274.33969                    1008.80179
                      46.18977                    -242.96382                     893.88872
                      22.53336                    -122.06151                     449.16172
                      19.37743                    -104.26304                     383.65051
        </DataArray>
        <DataArray type="Float32" Name="TranslationalVelocity" NumberOfComponents="3" format="ascii">
                      -0.37642                       1.36419                       0.34551
                      -0.32213                       2.58377                       0.67626
                      -0.20327                       4.99757                       1.42121
                      -0.07953                       7.39565                       2.20551
                       0.07787                      10.37867                       3.20925
                       0.25041                      13.98191                       4.28881
                       0.40739                      17.60155                       5.25613
                       0.56308                      21.20535                       6.22332
                       0.71995                      24.79442                       7.18904
                       0.88316                      28.36943                       8.15490
                       1.05812                      31.93203                       9.12358
                       1.25367                      35.48225                      10.09340
                       1.47844                      39.02083                      11.06366
                       1.73998                      42.54823                      12.03385
                       2.04272                      46.06494                      13.00385
                       2.32510                      48.98852                      13.81200
                       2.56794                      51.32561                      14.45160
                       2.81498                      53.67521                      15.04416
                       2.94404                      54.83956                      15.37576
        </DataArray>
        <DataArray type="Float32" Name="RotationalVelocity" NumberOfComponents="3" format="ascii">
                       0.91965                      -0.00939                      -0.11632
                       0.91908                      -0.00939                      -0.11622
                       0.91769                      -0.00941                      -0.11599
                       0.91598                      -0.00942                      -0.11569
                       0.91338                      -0.00935                      -0.11523
                       0.90981                      -0.00908                      -0.11453
                       0.90605                      -0.00874                      -0.11379
                       0.90235                      -0.00872                      -0.11315
                       0.89885                      -0.00950                      -0.11276
                       0.89565                      -0.01157                      -0.11277
                       0.89281                      -0.01553                      -0.11338
                       0.89026                      -0.02141                      -0.11456
                       0.88797                      -0.02911                      -0.11629
                       0.88594                      -0.03817                      -0.11844
                       0.88422                      -0.04766                      -0.12076
                       0.88312                      -0.05476                      -0.12253
                       0.88257                      -0.05904                      -0.12361
                       0.88230                      -0.06196                      -0.12437
                       0.88228                      -0.06282                      -0.12461
        </DataArray>
        <DataArray type="Float32" Name="TranslationalAcceleration" NumberOfComponents="3" format="ascii">
                      -0.97221                       0.03100                       1.33081
                      -0.83471                      -0.20576                       2.47292
                      -0.55212                      -0.78036                       4.72682
                      -0.23593                      -1.46242                       6.92882
                       0.22480                      -2.45978                       9.59433
                       0.90652                      -3.74224                      12.70992
                       1.74941                      -5.17728                      15.73786
                       2.73174                      -6.88173                      18.64411
                       3.80186                      -8.86127                      21.44072
                       4.86694                     -11.11905                      24.14439
                       5.82229                     -13.62665                      26.78053
                       6.51579                     -16.40138                      29.36113
                       6.79005                     -19.42393                      31.90349
                       6.50553                     -22.66465                      34.41850
                       5.57381                     -26.08330                      36.91042
                       4.31426                     -29.03039                      38.97235
                       3.01747                     -31.42624                      40.62241
                       1.56410                     -33.80402                      42.32422
                       0.80715                     -35.01782                      43.14041
        </DataArray>
        <DataArray type="Float32" Name="OrientationX" NumberOfComponents="3" format="ascii">
                       0.96697                       0.23327                      -0.10272
                       0.96704                       0.23316                      -0.10232
                       0.96723                       0.23285                      -0.10119
                       0.96750                       0.23242                      -0.09964
                       0.96793                       0.23171                      -0.09707
                       0.97429                       0.20065                      -0.10250
                       0.97855                       0.17758                      -0.10440
                       0.98209                       0.15688                      -0.10435
                       0.98550                       0.13465                      -0.10321
                       0.98868                       0.11131                      -0.10059
                       0.99148                       0.08849                      -0.09562
                       0.99389                       0.06532                      -0.08892
                       0.99580                       0.04364                      -0.08047
                       0.99717                       0.02617                      -0.07047
                       0.99806                       0.00925                      -0.06154
                       0.99839                      -0.00419                      -0.05658
                       0.99839                      -0.01353                      -0.05515
                       0.99832                      -0.01835                      -0.05504
                       0.99830                      -0.01826                      -0.05535
        </DataArray>
        <DataArray type="Float32" Name="OrientationY" NumberOfComponents="3" format="ascii">
                       0.19486                      -0.93634                      -0.29205
                       0.19485                      -0.93632                      -0.29213
                       0.19481                      -0.93626                      -0.29235
                       0.19476                      -0.93619                      -0.29261
                       0.19470                      -0.93608                      -0.29300
                       0.16363                      -0.94283                      -0.29035
                       0.14108                      -0.94702                      -0.28854
                       0.12130                      -0.95022                      -0.28701
                       0.10034                      -0.95315                      -0.28536
                       0.07873                      -0.95569                      -0.28366
                       0.05826                      -0.95761                      -0.28211
                       0.03793                      -0.95906                      -0.28066
                       0.01948                      -0.95995                      -0.27948
                       0.00550                      -0.96034                      -0.27876
                      -0.00825                      -0.96051                      -0.27813
                      -0.01976                      -0.96049                      -0.27761
                      -0.02833                      -0.96039                      -0.27722
                      -0.03292                      -0.96030                      -0.27701
                      -0.03293                      -0.96030                      -0.27701
        </DataArray>
        <DataArray type="Float32" Name="OrientationZ" NumberOfComponents="3" format="ascii">
                      -0.16431                       0.26239                      -0.95087
                      -0.16392                       0.26257                      -0.95089
                      -0.16281                       0.26306                      -0.95094
                      -0.16129                       0.26369                      -0.95103
                      -0.15876                       0.26470                      -0.95117
                      -0.15490                       0.26611                      -0.95142
                      -0.15011                       0.26762                      -0.95176
                      -0.14418                       0.26921                      -0.95223
                      -0.13680                       0.27087                      -0.95285
                      -0.12770                       0.27253                      -0.95363
                      -0.11653                       0.27414                      -0.95460
                      -0.10361                       0.27557                      -0.95568
                      -0.08945                       0.27674                      -0.95677
                      -0.07497                       0.27759                      -0.95777
                      -0.06169                       0.27810                      -0.95857
                      -0.05318                       0.27828                      -0.95903
                      -0.04922                       0.27834                      -0.95922
                      -0.04777                       0.27836                      -0.95929
                      -0.04810                       0.27836                      -0.95927
        </DataArray>
      </PointData>
      <Lines>
        <DataArray type="Int32" Name="connectivity" format="ascii">
      0      1
      1      2
      2      3
      3      4
      4      5
      5      6
      6      7
      7      8
      8      9
      9     10
     10     11
     11     12
     12     13
     13     14
     14     15
     15     16
     16     17
     17     18
        </DataArray>
        <DataArray type="Int32" Name="offsets" format="ascii">
      2
      4
      6
      8
     10
     12
     14
     16
     18
     20
     22
     24
     26
     28
     30
     32
     34
     36
        </DataArray>
      </Lines>
    </Piece>
  </PolyData>
</VTKFile>
