<?xml version="1.0"?>
<VTKFile type="PolyData" version="0.1" byte_order="LittleEndian">
  <PolyData>
    <Piece NumberOfPoints="     19" NumberOfVerts="  0" NumberOfLines="     18"
           NumberOfStrips="  0" NumberOfPolys="      0">
      <Points>
        <DataArray type="Float32" NumberOfComponents="3" format="ascii">
                       2.87068                      -3.32720                      90.32435
                       2.74096                      -6.93752                      90.51446
                       2.61940                     -10.54842                      90.69874
                       2.50932                     -14.16007                      90.87532
                       2.41368                     -17.77255                      91.04297
                       2.33566                     -21.38589                      91.20089
                       2.27892                     -25.00006                      91.34838
                       2.24782                     -28.61498                      91.48472
                       2.24740                     -32.23044                      91.60931
                       2.28314                     -35.84611                      91.72164
                       2.36046                     -39.46149                      91.82144
                       2.48408                     -43.07590                      91.90879
                       2.65706                     -46.68856                      91.98416
                       2.87964                     -50.29875                      92.04853
                       3.14787                     -53.90604                      92.10354
                       3.45203                     -57.51065                      92.15167
                       3.77481                     -61.11373                      92.19635
                       3.93815                     -62.91510                      92.21832
                       2.93711                      -1.52217                      90.22811
        </DataArray>
      </Points>
      <PointData>
        <DataArray type="Float32" Name="TranslationalVelocity" NumberOfComponents="3" format="ascii">
                      -1.00409                      -0.09830                      -3.09675
                      -1.41941                      -0.25913                      -6.43429
                      -1.83363                      -0.41539                      -9.76932
                      -2.24650                      -0.56570                     -13.10122
                      -2.65797                      -0.70928                     -16.42956
                      -3.06782                      -0.84573                     -19.75413
                      -3.47552                      -0.97484                     -23.07498
                      -3.88005                      -1.09648                     -26.39232
                      -4.27988                      -1.21062                     -29.70641
                      -4.67307                      -1.31736                     -33.01750
                      -5.05736                      -1.41688                     -36.32571
                      -5.43042                      -1.50948                     -39.63100
                      -5.79019                      -1.59556                     -42.93316
                      -6.13530                      -1.67564                     -46.23201
                      -6.46557                      -1.75047                     -49.52757
                      -6.78269                      -1.82126                     -52.82040
                      -7.09084                      -1.88978                     -56.11190
                      -7.24339                      -1.92374                     -57.75757
                      -0.79620                      -0.01695                      -1.42745
        </DataArray>
        <DataArray type="Float32" Name="RotationalVelocity" NumberOfComponents="3" format="ascii">
                       0.92420                      -0.01628                      -0.11431
                       0.92352                      -0.01624                      -0.11406
                       0.92259                      -0.01619                      -0.11371
                       0.92151                      -0.01613                      -0.11334
                       0.92033                      -0.01606                      -0.11296
                       0.91915                      -0.01599                      -0.11249
                       0.91804                      -0.01592                      -0.11182
                       0.91706                      -0.01582                      -0.11080
                       0.91624                      -0.01571                      -0.10930
                       0.91561                      -0.01558                      -0.10723
                       0.91517                      -0.01542                      -0.10453
                       0.91489                      -0.01523                      -0.10123
                       0.91475                      -0.01502                      -0.09744
                       0.91472                      -0.01480                      -0.09342
                       0.91477                      -0.01460                      -0.08956
                       0.91485                      -0.01443                      -0.08643
                       0.91495                      -0.01435                      -0.08478
                       0.91500                      -0.01433                      -0.08442
                       0.92447                      -0.01629                      -0.11439
        </DataArray>
        <DataArray type="Float32" Name="TranslationalAcceleration" NumberOfComponents="3" format="ascii">
                      -0.25617                       2.75291                      -0.14874
                      -0.18108                       5.87817                      -0.38297
                      -0.13398                       9.00185                      -0.56334
                      -0.12875                      12.12346                      -0.67406
                      -0.17882                      15.24234                      -0.70505
                      -0.29293                      18.35750                      -0.65229
                      -0.47139                      21.46762                      -0.51684
                      -0.70411                      24.57113                      -0.30403
                      -0.97033                      27.66645                      -0.02273
                      -1.23927                      30.75243                       0.31584
                      -1.47217                      33.82899                       0.69937
                      -1.62556                      36.89771                       1.11563
                      -1.65603                      39.96224                       1.55326
                      -1.52618                      43.02807                       2.00225
                      -1.21211                      46.10142                       2.45431
                      -0.71209                      49.18705                       2.90293
                      -0.05656                      52.28538                       3.34314
                       0.30393                      53.83742                       3.56061
                      -0.29907                       1.18995                      -0.02046
        </DataArray>
        <DataArray type="Float32" Name="RotationalAcceleration" NumberOfComponents="3" format="ascii">
                       0.02821                       0.01821                       0.01288
                       0.01679                       0.01831                       0.00687
                       0.00072                       0.01839                      -0.00282
                      -0.01876                       0.01838                      -0.01657
                      -0.04001                       0.01825                      -0.03369
                      -0.06152                       0.01806                      -0.05227
                      -0.08207                       0.01790                      -0.06953
                      -0.10055                       0.01789                      -0.08251
                      -0.11614                       0.01816                      -0.08828
                      -0.12840                       0.01884                      -0.08425
                      -0.13720                       0.02001                      -0.06862
                      -0.14274                       0.02172                      -0.04065
                      -0.14537                       0.02394                      -0.00114
                      -0.14557                       0.02656                       0.04733
                      -0.14398                       0.02933                       0.09993
                      -0.14127                       0.03188                       0.14932
                      -0.13802                       0.03369                       0.18524
                      -0.13632                       0.03434                       0.19837
                       0.03263                       0.01816                       0.01509
        </DataArray>
        <DataArray type="Float32" Name="OrientationX" NumberOfComponents="3" format="ascii">
                       0.93694                      -0.05290                      -0.34545
                       0.93702                      -0.05082                      -0.34556
                       0.93713                      -0.04756                      -0.34573
                       0.94180                      -0.04292                      -0.33343
                       0.95186                      -0.03683                      -0.30433
                       0.95723                      -0.03029                      -0.28772
                       0.96236                      -0.02267                      -0.27085
                       0.96739                      -0.01374                      -0.25293
                       0.97206                      -0.00338                      -0.23471
                       0.97608                       0.00843                      -0.21724
                       0.97956                       0.02160                      -0.19998
                       0.98235                       0.03577                      -0.18359
                       0.98409                       0.05025                      -0.17042
                       0.98524                       0.06415                      -0.15873
                       0.98621                       0.07617                      -0.14692
                       0.98722                       0.08454                      -0.13510
                       0.98806                       0.08687                      -0.12724
                       0.98843                       0.08619                      -0.12479
                       0.93692                      -0.05360                      -0.34541
        </DataArray>
        <DataArray type="Float32" Name="OrientationY" NumberOfComponents="3" format="ascii">
                       0.34754                       0.03716                       0.93693
                       0.34752                       0.03654                       0.93696
                       0.34749                       0.03570                       0.93700
                       0.33496                       0.03532                       0.94157
                       0.30559                       0.03550                       0.95150
                       0.28870                       0.03502                       0.95678
                       0.27151                       0.03442                       0.96182
                       0.25326                       0.03374                       0.96681
                       0.23470                       0.03292                       0.97151
                       0.21687                       0.03196                       0.97568
                       0.19927                       0.03085                       0.97946
                       0.18259                       0.02960                       0.98274
                       0.16916                       0.02834                       0.98518
                       0.15728                       0.02708                       0.98718
                       0.14535                       0.02578                       0.98904
                       0.13348                       0.02451                       0.99075
                       0.12564                       0.02371                       0.99179
                       0.12320                       0.02350                       0.99210
                       0.34755                       0.03741                       0.93691
        </DataArray>
        <DataArray type="Float32" Name="OrientationZ" NumberOfComponents="3" format="ascii">
                      -0.03673                      -0.99791                       0.05321
                      -0.03499                      -0.99804                       0.05190
                      -0.03222                      -0.99823                       0.04998
                      -0.02864                      -0.99845                       0.04764
                      -0.02424                      -0.99869                       0.04505
                      -0.01891                      -0.99893                       0.04226
                      -0.01248                      -0.99915                       0.03928
                      -0.00475                      -0.99934                       0.03611
                       0.00445                      -0.99945                       0.03279
                       0.01517                      -0.99945                       0.02937
                       0.02733                      -0.99929                       0.02592
                       0.04058                      -0.99892                       0.02255
                       0.05433                      -0.99833                       0.01939
                       0.06762                      -0.99757                       0.01659
                       0.07913                      -0.99676                       0.01435
                       0.08707                      -0.99612                       0.01291
                       0.08917                      -0.99594                       0.01251
                       0.08844                      -0.99600                       0.01261
                      -0.03730                      -0.99786                       0.05368
        </DataArray>
      </PointData>
      <Lines>
        <DataArray type="Int32" Name="connectivity" format="ascii">
      0      1
      1      2
      2      3
      3      4
      4      5
      5      6
      6      7
      7      8
      8      9
      9     10
     10     11
     11     12
     12     13
     13     14
     14     15
     15     16
     16     17
     18      0
        </DataArray>
        <DataArray type="Int32" Name="offsets" format="ascii">
      2
      4
      6
      8
     10
     12
     14
     16
     18
     20
     22
     24
     26
     28
     30
     32
     34
     36
        </DataArray>
      </Lines>
    </Piece>
  </PolyData>
</VTKFile>
