<?xml version="1.0"?>
<VTKFile type="PolyData" version="0.1" byte_order="LittleEndian">
  <PolyData>
    <Piece NumberOfPoints="     17" NumberOfVerts="  0" NumberOfLines="      0"
           NumberOfStrips="  0" NumberOfPolys="      0">
      <Points>
        <DataArray type="Float32" NumberOfComponents="3" format="ascii">
                       3.27289                       2.68534                      92.03660
                       3.38155                       5.65966                      94.09304
                       3.49749                       8.63536                      96.14709
                       3.62345                      11.61267                      98.19822
                       3.76165                      14.59174                     100.24599
                       3.91433                      17.57265                     102.29004
                       4.08425                      20.55533                     104.33014
                       4.27481                      23.53959                     106.36610
                       4.49008                      26.52515                     108.39768
                       4.73458                      29.51169                     110.42447
                       5.01288                      32.49887                     112.44594
                       5.32901                      35.48633                     114.46143
                       5.68574                      38.47367                     116.47029
                       6.08353                      41.46056                     118.47214
                       6.51947                      44.44674                     120.46712
                       6.98590                      47.43221                     122.45633
                       7.46891                      50.41729                     124.44223
        </DataArray>
      </Points>
      <PointData>
        <DataArray type="Float32" Name="Force" NumberOfComponents="3" format="ascii">
                     168.23615                      37.23417                     -62.50420
                     528.40919                     127.82109                    -214.47206
                    2034.99404                    -330.01826                     352.73370
                    3514.21171                    -635.86312                     687.19002
                    2127.68132                    -347.44266                     350.54179
                    4515.53851                    -634.09664                     564.80773
                    5374.45511                    -646.44981                     464.58554
                    5916.57377                    -620.69424                     309.85487
                    6330.44840                    -608.92026                     164.06871
                    8007.10675                    -730.25306                      21.16846
                    9258.26855                    -835.75559                    -162.46031
                   10674.20353                   -1006.65441                    -346.28426
                    6176.15270                    -605.26971                    -267.09645
                   12432.08102                   -1262.55187                    -675.03635
                   12114.23617                   -1271.90729                    -812.32070
                   17214.98599                   -1796.14662                   -1414.89230
                    6940.30471                    -647.53340                    -721.51644
        </DataArray>
        <DataArray type="Float32" Name="Moment" NumberOfComponents="3" format="ascii">
                     -19.75195                      14.25986                     -11.60406
                      80.11070                     247.99078                    -255.61933
                     626.37938                    1440.00232                   -1562.97083
                     738.45642                    2131.69957                   -1964.12425
                      36.52188                     369.02198                     -12.84403
                    -490.90718                    -995.34456                    1972.75878
                    -320.86373                    -978.73608                    1099.54989
                    -171.06880                    -814.77638                    -430.23106
                    -111.11204                    -517.16952                   -1127.58707
                     -83.24754                      22.62117                   -1793.66634
                      -0.11738                    1399.63740                   -3599.98905
                     112.22831                    3598.42754                   -5876.65747
                     -18.51876                    -218.15887                     303.81075
                    -133.00812                   -4559.37237                    6930.67979
                     -47.72563                   -4203.19404                    6571.39115
                    -103.80119                    -495.43794                    1155.19622
                    -139.30736                       6.28511                    -192.91439
        </DataArray>
      </PointData>
    </Piece>
  </PolyData>
</VTKFile>
