<?xml version="1.0"?>
<VTKFile type="PolyData" version="0.1" byte_order="LittleEndian">
  <PolyData>
    <Piece NumberOfPoints="     17" NumberOfVerts="  0" NumberOfLines="      0"
           NumberOfStrips="  0" NumberOfPolys="      0">
      <Points>
        <DataArray type="Float32" NumberOfComponents="3" format="ascii">
                       2.60728                      -2.64983                      88.16993
                       2.19205                      -5.54595                      86.04216
                       1.77796                      -8.44149                      83.91336
                       1.36550                     -11.33626                      81.78322
                       0.95513                     -14.23019                      79.65152
                       0.54726                     -17.12323                      77.51814
                       0.14234                     -20.01539                      75.38300
                      -0.25923                     -22.90669                      73.24606
                      -0.65705                     -25.79718                      71.10732
                      -1.05074                     -28.68691                      68.96681
                      -1.44002                     -31.57597                      66.82458
                      -1.82470                     -34.46444                      64.68072
                      -2.20481                     -37.35242                      62.53539
                      -2.58063                     -40.24000                      60.38876
                      -2.95280                     -43.12728                      58.24108
                      -3.32243                     -46.01434                      56.09269
                      -3.69124                     -48.90129                      53.94399
        </DataArray>
      </Points>
      <PointData>
        <DataArray type="Float32" Name="Force" NumberOfComponents="3" format="ascii">
                     173.61985                     -66.23844                      56.28455
                     606.72864                    -205.57249                     161.83981
                    2026.92965                     369.07529                    -895.26549
                    3328.48902                     619.09184                   -1484.82064
                    2019.59101                     321.00010                    -824.50742
                    4385.23860                     591.40445                   -1641.26481
                    5307.52240                     587.28302                   -1802.75851
                    5845.71281                     517.46170                   -1798.25654
                    6217.65982                     447.93844                   -1760.40233
                    7746.90843                     443.90081                   -2021.04700
                    8689.81010                     390.93297                   -2100.95629
                    9749.59847                     359.12551                   -2225.62740
                    5438.89312                     164.42110                   -1183.39894
                   10416.00086                     233.56694                   -2138.90199
                    9532.76511                     118.62791                   -1812.70513
                   12701.49104                      -3.63154                   -2182.40761
                    5319.44791                     -86.44869                    -798.26888
        </DataArray>
        <DataArray type="Float32" Name="Moment" NumberOfComponents="3" format="ascii">
                     -19.52454                     -16.45146                      19.22623
                     168.13213                    -287.49030                     251.05180
                    1055.69720                   -1601.49255                    1376.22140
                    1081.56480                   -2055.32465                    1762.18101
                      49.48660                    -276.02530                      67.18629
                    -896.52175                    1240.40737                   -1693.17630
                    -550.12688                    1233.13398                    -896.18831
                     -21.43858                    1063.12844                     607.98231
                     198.19945                     758.90585                    1259.40157
                     356.40580                     314.75194                    1860.96932
                     792.91220                    -981.09895                    3452.27056
                    1247.20276                   -3232.17385                    5209.76631
                     -75.37745                     421.34392                    -203.25657
                   -1318.61067                    4837.12776                   -5486.14380
                   -1032.49804                    4315.83339                   -4766.26648
                    -270.26294                    1533.07870                    -589.26397
                      66.68281                      23.19650                     845.82289
        </DataArray>
      </PointData>
    </Piece>
  </PolyData>
</VTKFile>
