<?xml version="1.0"?>
<VTKFile type="PolyData" version="0.1" byte_order="LittleEndian">
  <PolyData>
    <Piece NumberOfPoints="     17" NumberOfVerts="  0" NumberOfLines="      0"
           NumberOfStrips="  0" NumberOfPolys="      0">
      <Points>
        <DataArray type="Float32" NumberOfComponents="3" format="ascii">
                       2.42986                       1.88582                      87.47772
                       1.92254                       3.96770                      84.56296
                       1.42311                       6.04743                      81.64532
                       0.93449                       8.12464                      78.72406
                       0.45903                      10.19907                      75.79866
                      -0.00085                      12.27062                      72.86872
                      -0.44209                      14.33940                      69.93398
                      -0.86082                      16.40572                      66.99422
                      -1.25233                      18.46992                      64.04923
                      -1.61131                      20.53224                      61.09880
                      -1.93230                      22.59277                      58.14276
                      -2.21034                      24.65137                      55.18104
                      -2.44191                      26.70771                      52.21377
                      -2.62606                      28.76145                      49.24134
                      -2.76577                      30.81237                      46.26451
                      -2.86957                      32.86068                      43.28434
                      -2.95336                      34.90735                      40.30238
        </DataArray>
      </Points>
      <PointData>
        <DataArray type="Float32" Name="Force" NumberOfComponents="3" format="ascii">
                     154.25787                     -34.96210                     -51.99016
                     552.33030                    -121.96956                    -181.84444
                    2229.08351                     717.16920                     138.90199
                    3620.28991                    1148.82835                     227.91271
                    2194.68776                     621.92863                      94.17369
                    4798.22605                    1207.92572                     121.67250
                    5849.89732                    1276.21570                      50.76138
                    6558.89178                    1222.15891                     -32.18023
                    7069.59316                    1130.17092                     -92.31350
                    8936.73022                    1210.45685                    -160.14223
                   10306.38483                    1165.53992                    -196.40140
                   11763.93473                    1116.64691                    -184.22790
                    6750.15672                     549.33130                     -84.52345
                   13462.43597                     907.79231                    -129.81671
                   12949.39041                     662.72103                     -92.21992
                   18213.38794                     601.61970                    -158.24346
                    7375.13990                      82.14782                    -144.68144
        </DataArray>
        <DataArray type="Float32" Name="Moment" NumberOfComponents="3" format="ascii">
                     -18.50647                     -15.53654                     -13.16506
                     103.96312                    -307.42392                    -288.23240
                     765.18334                   -1744.79690                   -1509.93117
                     695.11382                   -2021.59097                   -2076.16368
                      12.41423                     -64.66293                    -337.75338
                    -620.58773                    1987.73101                    1130.50373
                    -374.62951                    1195.27791                     964.63399
                     -45.78042                    -350.42641                     610.05922
                      73.02601                   -1073.63015                     258.10505
                     127.10849                   -1772.54263                    -373.23326
                     306.01868                   -3751.41578                   -1903.27005
                     469.09118                   -6229.86964                   -4197.31779
                     -41.68332                     358.66686                     209.72579
                    -523.91994                    7450.23729                    5063.94922
                    -386.09004                    6918.31746                    4651.28636
                    -209.10581                    1135.12893                     700.06568
                    -116.58446                    -266.74218                      14.94566
        </DataArray>
      </PointData>
    </Piece>
  </PolyData>
</VTKFile>
