<?xml version="1.0"?>
<VTKFile type="PolyData" version="0.1" byte_order="LittleEndian">
  <PolyData>
    <Piece NumberOfPoints="     19" NumberOfVerts="  0" NumberOfLines="     18"
           NumberOfStrips="  0" NumberOfPolys="      0">
      <Points>
        <DataArray type="Float32" NumberOfComponents="3" format="ascii">
                       2.68506                       0.84441                      88.93448
                       2.49148                       1.63415                      87.83597
                       2.08987                       3.29004                      85.69615
                       1.68470                       4.98127                      83.58186
                       1.18163                       7.11550                      80.95201
                       0.63391                       9.55794                      77.70160
                       0.11950                      11.89071                      74.36780
                      -0.37476                      14.21752                      71.02684
                      -0.84114                      16.53729                      67.67707
                      -1.27342                      18.85208                      64.31942
                      -1.66958                      21.16548                      60.95657
                      -2.01700                      23.47616                      57.58660
                      -2.30902                      25.78386                      54.20948
                      -2.54199                      28.08813                      50.82558
                      -2.71513                      30.38861                      47.43563
                      -2.82074                      32.30286                      44.60707
                      -2.88638                      33.82609                      42.33814
                      -2.95106                      35.30349                      40.03781
                      -2.98094                      36.07648                      38.91118
        </DataArray>
      </Points>
      <PointData>
        <DataArray type="Float32" Name="Force" NumberOfComponents="3" format="ascii">
                      -0.03727                      -0.43863                      -0.30724
                      63.32889                      -9.61987                     -17.98840
                      82.55900                     -33.27730                     -38.14729
                      74.32902                     -50.07514                     -48.56108
                     792.38304                     281.93499                      68.33989
                     981.87306                     302.75247                      56.40222
                    1162.68350                     304.01757                      35.06582
                    1505.01885                     338.61988                      17.53310
                    1663.05368                     315.19123                      -7.27534
                    1926.86355                     310.67272                     -25.35497
                    2369.05728                     317.01220                     -44.37309
                    2719.07229                     298.54372                     -53.51420
                    3145.80683                     288.89343                     -46.37867
                    3433.74936                     247.84691                     -36.28323
                    3670.14050                     197.16810                     -25.44710
                    3784.92425                     146.44410                     -25.63844
                    3664.68924                      97.26416                     -37.46327
                    2635.15859                      44.42286                     -39.59934
                    1229.77841                     -69.04957                     -81.94144
        </DataArray>
        <DataArray type="Float32" Name="Moment" NumberOfComponents="3" format="ascii">
                       0.00000                       0.00000                       0.00000
                       0.00000                       0.00000                       0.00000
                       0.00000                       0.00000                       0.00000
                       0.00000                       0.00000                       0.00000
                      45.80836                    -194.81512                     272.57037
                      59.68079                    -261.84863                     366.58774
                      72.76211                    -331.90714                     465.01974
                      94.16504                    -451.29123                     632.86180
                     116.60392                    -595.92962                     836.63245
                     120.24013                    -668.99905                     940.50878
                     112.02838                    -699.34733                     984.83165
                     101.54198                    -738.13635                    1041.48087
                      76.19145                    -676.17091                     956.09134
                      58.49085                    -671.12511                     951.03503
                      41.05784                    -645.89426                     917.12909
                      29.54248                    -611.36253                     869.22688
                      22.28281                    -542.36569                     771.60434
                      10.41581                    -272.36745                     387.58139
                       9.08420                    -234.94491                     334.31670
        </DataArray>
        <DataArray type="Float32" Name="TranslationalVelocity" NumberOfComponents="3" format="ascii">
                      -0.52721                       1.15968                       0.75235
                      -0.42228                       2.19225                       1.47621
                      -0.20524                       4.20594                       2.99371
                       0.01390                       6.19510                       4.54270
                       0.28697                       8.66662                       6.49577
                       0.59719                      11.70866                       8.72856
                       0.88885                      14.81790                      10.85830
                       1.17274                      17.92592                      12.98002
                       1.45196                      21.03404                      15.09278
                       1.73284                      24.14172                      17.19838
                       2.02267                      27.24755                      19.30025
                       2.33205                      30.35225                      21.39666
                       2.67197                      33.45535                      23.48731
                       3.05224                      36.55575                      25.57200
                       3.47908                      39.65201                      27.65108
                       3.86955                      42.22860                      29.37997
                       4.20221                      44.29158                      30.75513
                       4.54259                      46.38218                      32.08808
                       4.71784                      47.40574                      32.78563
        </DataArray>
        <DataArray type="Float32" Name="RotationalVelocity" NumberOfComponents="3" format="ascii">
                       0.92055                      -0.01547                      -0.11169
                       0.92033                      -0.01533                      -0.11155
                       0.91977                      -0.01499                      -0.11121
                       0.91909                      -0.01454                      -0.11077
                       0.91803                      -0.01376                      -0.11002
                       0.91657                      -0.01250                      -0.10886
                       0.91508                      -0.01111                      -0.10761
                       0.91366                      -0.01005                      -0.10660
                       0.91238                      -0.00981                      -0.10620
                       0.91127                      -0.01092                      -0.10680
                       0.91030                      -0.01404                      -0.10886
                       0.90937                      -0.01921                      -0.11240
                       0.90843                      -0.02636                      -0.11735
                       0.90743                      -0.03505                      -0.12339
                       0.90642                      -0.04435                      -0.12986
                       0.90565                      -0.05147                      -0.13482
                       0.90519                      -0.05587                      -0.13789
                       0.90488                      -0.05899                      -0.14007
                       0.90481                      -0.05998                      -0.14076
        </DataArray>
        <DataArray type="Float32" Name="TranslationalAcceleration" NumberOfComponents="3" format="ascii">
                       0.15481                      -1.05400                       0.80316
                       0.27736                      -1.79325                       1.70770
                       0.50732                      -3.31396                       3.48356
                       0.71677                      -4.79735                       5.29497
                       0.94799                      -6.55184                       7.65447
                       1.19023                      -8.35529                      10.71792
                       1.38629                      -9.80229                      14.01514
                       1.53827                     -10.97415                      17.49127
                       1.67165                     -11.86862                      21.14071
                       1.82589                     -12.49463                      24.95203
                       2.04048                     -12.89305                      28.89625
                       2.37589                     -13.05456                      32.97484
                       2.88982                     -13.00377                      37.17062
                       3.63066                     -12.77204                      41.46556
                       4.62513                     -12.39786                      45.84056
                       5.63773                     -12.01009                      49.53064
                       6.55517                     -11.65875                      52.50104
                       7.53069                     -11.23752                      55.46789
                       8.02403                     -11.07256                      56.95673
        </DataArray>
        <DataArray type="Float32" Name="OrientationX" NumberOfComponents="3" format="ascii">
                       0.97694                       0.21258                      -0.01982
                       0.97700                       0.21236                      -0.01950
                       0.97716                       0.21171                      -0.01860
                       0.97737                       0.21083                      -0.01736
                       0.97772                       0.20937                      -0.01531
                       0.98285                       0.18179                      -0.03099
                       0.98618                       0.16064                      -0.04065
                       0.98885                       0.14109                      -0.04763
                       0.99134                       0.11971                      -0.05402
                       0.99354                       0.09674                      -0.05927
                       0.99537                       0.07345                      -0.06201
                       0.99679                       0.04921                      -0.06310
                       0.99775                       0.02575                      -0.06192
                       0.99831                       0.00575                      -0.05783
                       0.99842                      -0.01341                      -0.05448
                       0.99816                      -0.02795                      -0.05378
                       0.99777                      -0.03742                      -0.05520
                       0.99752                      -0.04214                      -0.05645
                       0.99751                      -0.04200                      -0.05665
        </DataArray>
        <DataArray type="Float32" Name="OrientationY" NumberOfComponents="3" format="ascii">
                       0.15974                      -0.78934                      -0.59281
                       0.15978                      -0.78953                      -0.59255
                       0.15990                      -0.78999                      -0.59190
                       0.16003                      -0.79055                      -0.59111
                       0.16024                      -0.79141                      -0.58991
                       0.12923                      -0.79882                      -0.58753
                       0.10685                      -0.80398                      -0.58498
                       0.08728                      -0.80824                      -0.58234
                       0.06650                      -0.81221                      -0.57956
                       0.04502                      -0.81570                      -0.57671
                       0.02464                      -0.81851                      -0.57396
                       0.00435                      -0.82072                      -0.57131
                      -0.01409                      -0.82226                      -0.56894
                      -0.02810                      -0.82319                      -0.56707
                      -0.04192                      -0.82370                      -0.56547
                      -0.05348                      -0.82379                      -0.56437
                      -0.06207                      -0.82365                      -0.56370
                      -0.06667                      -0.82352                      -0.56336
                      -0.06667                      -0.82352                      -0.56336
        </DataArray>
        <DataArray type="Float32" Name="OrientationZ" NumberOfComponents="3" format="ascii">
                      -0.14166                       0.57597                      -0.80510
                      -0.14123                       0.57580                      -0.80530
                      -0.14001                       0.57541                      -0.80579
                      -0.13835                       0.57496                      -0.80640
                      -0.13562                       0.57431                      -0.80732
                      -0.13156                       0.57345                      -0.80861
                      -0.12665                       0.57255                      -0.81003
                      -0.12066                       0.57169                      -0.81155
                      -0.11326                       0.57095                      -0.81313
                      -0.10414                       0.57032                      -0.81479
                      -0.09292                       0.56978                      -0.81653
                      -0.07990                       0.56921                      -0.81830
                      -0.06557                       0.56854                      -0.82004
                      -0.05087                       0.56774                      -0.82164
                      -0.03729                       0.56687                      -0.82297
                      -0.02853                       0.56621                      -0.82377
                      -0.02437                       0.56587                      -0.82413
                      -0.02274                       0.56572                      -0.82428
                      -0.02299                       0.56573                      -0.82427
        </DataArray>
      </PointData>
      <Lines>
        <DataArray type="Int32" Name="connectivity" format="ascii">
      0      1
      1      2
      2      3
      3      4
      4      5
      5      6
      6      7
      7      8
      8      9
      9     10
     10     11
     11     12
     12     13
     13     14
     14     15
     15     16
     16     17
     17     18
        </DataArray>
        <DataArray type="Int32" Name="offsets" format="ascii">
      2
      4
      6
      8
     10
     12
     14
     16
     18
     20
     22
     24
     26
     28
     30
     32
     34
     36
        </DataArray>
      </Lines>
    </Piece>
  </PolyData>
</VTKFile>
