<?xml version="1.0"?>
<VTKFile type="PolyData" version="0.1" byte_order="LittleEndian">
  <PolyData>
    <Piece NumberOfPoints="     19" NumberOfVerts="  0" NumberOfLines="     18"
           NumberOfStrips="  0" NumberOfPolys="      0">
      <Points>
        <DataArray type="Float32" NumberOfComponents="3" format="ascii">
                       2.58544                      -1.35718                      87.15251
                       2.02748                      -2.82117                      83.89172
                       1.48002                      -4.28301                      80.62819
                       0.94716                      -5.74190                      77.36093
                       0.43239                      -7.19739                      74.08926
                      -0.06061                      -8.64923                      70.81262
                      -0.52756                     -10.09715                      67.53045
                      -0.96327                     -11.54081                      64.24213
                      -1.36168                     -12.97991                      60.94710
                      -1.71610                     -14.41421                      57.64498
                      -2.01981                     -15.84358                      54.33569
                      -2.26691                     -17.26803                      51.01958
                      -2.45341                     -18.68775                      47.69747
                      -2.57875                     -20.10305                      44.37054
                      -2.64747                     -21.51455                      41.04025
                      -2.67126                     -22.92323                      37.70801
                      -2.67124                     -24.33052                      34.37500
                      -2.66859                     -25.03401                      32.70843
                       2.86647                      -0.62477                      88.78237
        </DataArray>
      </Points>
      <PointData>
        <DataArray type="Float32" Name="TranslationalVelocity" NumberOfComponents="3" format="ascii">
                       0.13983                       2.77526                      -1.16254
                      -0.06348                       5.81754                      -2.49363
                      -0.26370                       8.84827                      -3.81761
                      -0.46016                      11.86467                      -5.13244
                      -0.65284                      14.86505                      -6.43692
                      -0.84263                      17.84845                      -7.73029
                      -1.03135                      20.81454                      -9.01193
                      -1.22181                      23.76334                     -10.28132
                      -1.41782                      26.69506                     -11.53808
                      -1.62407                      29.60987                     -12.78207
                      -1.84569                      32.50783                     -14.01350
                      -2.08785                      35.38890                     -15.23312
                      -2.35504                      38.25305                     -16.44219
                      -2.65021                      41.10060                     -17.64245
                      -2.97380                      43.93278                     -18.83603
                      -3.32254                      46.75251                     -20.02528
                      -3.68806                      49.56519                     -21.21245
                      -3.87360                      50.97062                     -21.80578
                       0.24217                       1.25165                      -0.49552
        </DataArray>
        <DataArray type="Float32" Name="RotationalVelocity" NumberOfComponents="3" format="ascii">
                       0.91525                       0.01181                      -0.11345
                       0.91203                       0.01136                      -0.11270
                       0.90765                       0.01082                      -0.11169
                       0.90255                       0.01021                      -0.11054
                       0.89701                       0.00975                      -0.10937
                       0.89126                       0.00964                      -0.10832
                       0.88545                       0.01013                      -0.10753
                       0.87967                       0.01147                      -0.10713
                       0.87399                       0.01389                      -0.10724
                       0.86850                       0.01756                      -0.10794
                       0.86327                       0.02253                      -0.10927
                       0.85840                       0.02871                      -0.11120
                       0.85398                       0.03582                      -0.11364
                       0.85017                       0.04335                      -0.11636
                       0.84713                       0.05051                      -0.11905
                       0.84511                       0.05622                      -0.12127
                       0.84438                       0.05903                      -0.12241
                       0.84437                       0.05951                      -0.12262
                       0.91650                       0.01201                      -0.11376
        </DataArray>
        <DataArray type="Float32" Name="TranslationalAcceleration" NumberOfComponents="3" format="ascii">
                       0.25586                       0.78981                       2.96343
                       0.40156                       1.64517                       5.94891
                       0.45294                       2.55184                       8.89803
                       0.37683                       3.52032                      11.80362
                       0.14797                       4.55701                      14.66129
                      -0.25285                       5.66526                      17.46823
                      -0.84108                       6.84486                      20.22296
                      -1.62926                       8.09282                      22.92449
                      -2.62692                       9.40469                      25.57112
                      -3.84029                      10.77526                      28.15992
                      -5.27132                      12.19910                      30.68662
                      -6.91623                      13.67091                      33.14609
                      -8.76334                      15.18566                      35.53363
                     -10.79043                      16.73829                      37.84717
                     -12.96136                      18.32344                      40.09030
                     -15.22225                      19.93477                      42.27577
                     -17.49736                      21.56332                      44.42879
                     -18.62751                      22.38056                      45.50120
                       0.16410                       0.37328                       1.46274
        </DataArray>
        <DataArray type="Float32" Name="RotationalAcceleration" NumberOfComponents="3" format="ascii">
                      -0.12493                       0.04815                       0.00703
                      -0.10989                       0.06587                      -0.00355
                      -0.09031                       0.09261                      -0.01896
                      -0.06808                       0.12639                      -0.03800
                      -0.04416                       0.16542                      -0.05970
                      -0.01954                       0.20858                      -0.08337
                       0.00469                       0.25520                      -0.10853
                       0.02807                       0.30452                      -0.13476
                       0.05036                       0.35574                      -0.16166
                       0.07145                       0.40789                      -0.18876
                       0.09127                       0.45972                      -0.21550
                       0.10977                       0.50953                      -0.24110
                       0.12672                       0.55512                      -0.26454
                       0.14168                       0.59364                      -0.28445
                       0.15406                       0.62146                      -0.29910
                       0.16288                       0.63408                      -0.30630
                       0.16670                       0.62607                      -0.30337
                       0.16715                       0.61617                      -0.29900
                      -0.13100                       0.04180                       0.01093
        </DataArray>
        <DataArray type="Float32" Name="OrientationX" NumberOfComponents="3" format="ascii">
                       0.94856                       0.19356                      -0.25053
                       0.94893                       0.19452                      -0.24839
                       0.94949                       0.19603                      -0.24502
                       0.95378                       0.18604                      -0.23599
                       0.96229                       0.16048                      -0.21964
                       0.96719                       0.14724                      -0.20703
                       0.97195                       0.13428                      -0.19307
                       0.97671                       0.12095                      -0.17724
                       0.98124                       0.10805                      -0.15964
                       0.98535                       0.09659                      -0.14057
                       0.98904                       0.08603                      -0.11996
                       0.99217                       0.07684                      -0.09843
                       0.99446                       0.07092                      -0.07758
                       0.99613                       0.06620                      -0.05780
                       0.99736                       0.06060                      -0.03998
                       0.99823                       0.05337                      -0.02616
                       0.99868                       0.04715                      -0.02047
                       0.99880                       0.04460                      -0.02021
                       0.94844                       0.19324                      -0.25125
        </DataArray>
        <DataArray type="Float32" Name="OrientationY" NumberOfComponents="3" format="ascii">
                       0.27585                      -0.89364                       0.35401
                       0.27585                      -0.89363                       0.35401
                       0.27585                      -0.89363                       0.35401
                       0.26319                      -0.89617                       0.35722
                       0.23350                      -0.90154                       0.36429
                       0.21645                      -0.90425                       0.36807
                       0.19910                      -0.90677                       0.37166
                       0.18067                      -0.90918                       0.37517
                       0.16192                      -0.91137                       0.37841
                       0.14390                      -0.91324                       0.38117
                       0.12610                      -0.91488                       0.38354
                       0.10920                      -0.91626                       0.38541
                       0.09558                      -0.91727                       0.38663
                       0.08350                      -0.91810                       0.38745
                       0.07139                      -0.91887                       0.38805
                       0.05935                      -0.91956                       0.38844
                       0.05140                      -0.91996                       0.38862
                       0.04895                      -0.92008                       0.38867
                       0.27585                      -0.89364                       0.35401
        </DataArray>
        <DataArray type="Float32" Name="OrientationZ" NumberOfComponents="3" format="ascii">
                      -0.15537                      -0.40491                      -0.90106
                      -0.15310                      -0.40445                      -0.90165
                      -0.14956                      -0.40372                      -0.90257
                      -0.14503                      -0.40282                      -0.90372
                      -0.13956                      -0.40184                      -0.90501
                      -0.13301                      -0.40080                      -0.90646
                      -0.12517                      -0.39968                      -0.90807
                      -0.11577                      -0.39846                      -0.90985
                      -0.10460                      -0.39716                      -0.91177
                      -0.09156                      -0.39582                      -0.91375
                      -0.07676                      -0.39446                      -0.91570
                      -0.06057                      -0.39314                      -0.91748
                      -0.04374                      -0.39190                      -0.91897
                      -0.02742                      -0.39078                      -0.92008
                      -0.01322                      -0.38988                      -0.92077
                      -0.00332                      -0.38931                      -0.92110
                      -0.00051                      -0.38915                      -0.92117
                      -0.00126                      -0.38919                      -0.92116
                      -0.15612                      -0.40506                      -0.90086
        </DataArray>
      </PointData>
      <Lines>
        <DataArray type="Int32" Name="connectivity" format="ascii">
      0      1
      1      2
      2      3
      3      4
      4      5
      5      6
      6      7
      7      8
      8      9
      9     10
     10     11
     11     12
     12     13
     13     14
     14     15
     15     16
     16     17
     18      0
        </DataArray>
        <DataArray type="Int32" Name="offsets" format="ascii">
      2
      4
      6
      8
     10
     12
     14
     16
     18
     20
     22
     24
     26
     28
     30
     32
     34
     36
        </DataArray>
      </Lines>
    </Piece>
  </PolyData>
</VTKFile>
