<?xml version="1.0"?>
<VTKFile type="PolyData" version="0.1" byte_order="LittleEndian">
  <PolyData>
    <Piece NumberOfPoints="     19" NumberOfVerts="  0" NumberOfLines="     18"
           NumberOfStrips="  0" NumberOfPolys="      0">
      <Points>
        <DataArray type="Float32" NumberOfComponents="3" format="ascii">
                       2.82268                      -0.87605                      88.91730
                       2.62740                      -1.66062                      87.81539
                       2.20924                      -3.15115                      85.56038
                       1.78152                      -4.60264                      83.27934
                       1.24724                      -6.39087                      80.40973
                       0.68353                      -8.64826                      77.03295
                       0.17384                     -11.00463                      73.71752
                      -0.31152                     -13.35469                      70.39393
                      -0.76370                     -15.69967                      67.06199
                      -1.17612                     -18.03783                      63.72001
                      -1.54748                     -20.36705                      60.36691
                      -1.86432                     -22.68777                      57.00223
                      -2.12031                     -25.00034                      53.62667
                      -2.31253                     -27.30534                      50.24158
                      -2.44154                     -29.60351                      46.84872
                      -2.50904                     -31.51463                      44.01719
                      -2.54314                     -33.04821                      41.75466
                      -2.57009                     -34.62714                      39.52205
                      -2.58709                     -35.38191                      38.38285
        </DataArray>
      </Points>
      <PointData>
        <DataArray type="Float32" Name="Force" NumberOfComponents="3" format="ascii">
                       0.29035                      -3.38019                       2.36990
                      59.66269                     -25.80539                       7.94847
                      86.68258                     -58.94868                      27.05672
                      83.17491                     -74.42064                      38.93058
                     688.04953                     222.02715                    -274.87688
                     878.99030                     236.47418                    -311.99126
                    1001.29743                     220.59299                    -312.92022
                    1250.73524                     230.95845                    -347.45209
                    1294.36929                     193.38071                    -312.48723
                    1397.67476                     174.68604                    -294.27285
                    1605.70843                     161.20637                    -284.17322
                    1624.22433                     130.64474                    -234.98010
                    1649.68120                     112.35275                    -192.16503
                    1463.96656                      77.88717                    -126.62661
                    1188.01649                      42.39029                     -67.30435
                    1229.89287                      41.06206                     -54.27103
                    1482.01914                      60.37126                     -65.88459
                    1218.78597                      48.65347                     -51.73539
                    1253.09586                      51.05442                     -54.79030
        </DataArray>
        <DataArray type="Float32" Name="Moment" NumberOfComponents="3" format="ascii">
                       0.00000                       0.00000                       0.00000
                       0.00000                       0.00000                       0.00000
                       0.00000                       0.00000                       0.00000
                       0.00000                       0.00000                       0.00000
                      28.61170                     121.44763                     169.71576
                      58.32457                     256.55156                     358.77463
                      72.06288                     331.90267                     464.56501
                      94.44883                     461.62035                     646.83912
                     118.69908                     626.91926                     879.63444
                     119.08223                     696.76016                     979.20179
                     110.88815                     745.21356                    1049.31491
                      96.71361                     781.72386                    1103.12626
                      60.56308                     626.56188                     886.24723
                      41.60549                     599.24120                     849.60224
                      25.40070                     566.83656                     805.36874
                      14.56862                     495.66016                     705.17670
                      10.07941                     446.99951                     636.32188
                       4.73778                     230.91077                     328.76828
                       5.26678                     244.90081                     348.65750
        </DataArray>
        <DataArray type="Float32" Name="TranslationalVelocity" NumberOfComponents="3" format="ascii">
                       0.15377                       1.10428                      -0.74601
                       0.05427                       2.14481                      -1.46925
                      -0.13421                       4.27548                      -2.84276
                      -0.31097                       6.42875                      -4.18019
                      -0.51366                       9.13299                      -5.82876
                      -0.74231                      12.30183                      -7.91118
                      -0.94516                      15.40151                     -10.08558
                      -1.10055                      18.49991                     -12.25616
                      -1.19206                      21.59828                     -14.42652
                      -1.19635                      24.70030                     -16.59809
                      -1.09836                      27.80979                     -18.77042
                      -0.85768                      30.92941                     -20.94612
                      -0.44467                      34.06165                     -23.12459
                       0.16211                      37.20847                     -25.30313
                       0.96736                      40.37102                     -27.47745
                       1.77204                      43.01730                     -29.28431
                       2.48650                      45.13582                     -30.73243
                       3.22447                      47.22792                     -32.22229
                       3.59914                      48.29526                     -32.93572
        </DataArray>
        <DataArray type="Float32" Name="RotationalVelocity" NumberOfComponents="3" format="ascii">
                       0.92457                       0.01044                      -0.11359
                       0.92426                       0.00978                      -0.11307
                       0.92361                       0.00786                      -0.11157
                       0.92291                       0.00522                      -0.10956
                       0.92195                       0.00090                      -0.10629
                       0.92071                      -0.00548                      -0.10150
                       0.91960                      -0.01347                      -0.09558
                       0.91897                      -0.02399                      -0.08794
                       0.91918                      -0.03822                      -0.07778
                       0.92036                      -0.05732                      -0.06430
                       0.92259                      -0.08275                      -0.04649
                       0.92555                      -0.11393                      -0.02467
                       0.92889                      -0.14985                       0.00046
                       0.93224                      -0.18816                       0.02731
                       0.93522                      -0.22493                       0.05312
                       0.93704                      -0.24987                       0.07067
                       0.93793                      -0.26277                       0.07975
                       0.93837                      -0.26929                       0.08434
                       0.93842                      -0.26982                       0.08471
        </DataArray>
        <DataArray type="Float32" Name="TranslationalAcceleration" NumberOfComponents="3" format="ascii">
                       0.66339                       0.67108                       1.10188
                       0.77981                       1.25955                       2.12850
                       1.01232                       2.35369                       4.22685
                       1.22340                       3.37825                       6.36293
                       1.43495                       4.57325                       9.08048
                       1.59032                       6.01310                      12.34920
                       1.60842                       7.42876                      15.65813
                       1.43421                       8.71320                      19.07083
                       0.96916                       9.86086                      22.60706
                       0.07344                      10.86350                      26.29128
                      -1.35158                      11.72644                      30.13013
                      -3.54135                      12.42844                      34.15763
                      -6.67600                      12.96335                      38.38299
                     -10.88877                      13.32868                      42.80256
                     -16.21678                      13.52901                      47.39576
                     -21.41252                      13.58908                      51.32912
                     -25.97568                      13.59357                      54.52698
                     -30.68844                      13.63780                      57.74534
                     -33.06984                      13.61879                      59.36231
        </DataArray>
        <DataArray type="Float32" Name="OrientationX" NumberOfComponents="3" format="ascii">
                       0.94463                       0.16350                      -0.28449
                       0.94471                       0.16381                      -0.28406
                       0.94492                       0.16468                      -0.28284
                       0.94521                       0.16587                      -0.28118
                       0.94569                       0.16784                      -0.27840
                       0.95531                       0.14513                      -0.25752
                       0.96196                       0.13010                      -0.24023
                       0.96756                       0.11810                      -0.22334
                       0.97312                       0.10597                      -0.20448
                       0.97844                       0.09429                      -0.18373
                       0.98318                       0.08468                      -0.16183
                       0.98742                       0.07611                      -0.13858
                       0.99087                       0.06967                      -0.11541
                       0.99326                       0.06693                      -0.09461
                       0.99515                       0.06347                      -0.07521
                       0.99637                       0.05886                      -0.06147
                       0.99711                       0.05393                      -0.05346
                       0.99746                       0.05075                      -0.04996
                       0.99745                       0.05043                      -0.05043
        </DataArray>
        <DataArray type="Float32" Name="OrientationY" NumberOfComponents="3" format="ascii">
                       0.29554                      -0.80065                       0.52117
                       0.29551                      -0.80077                       0.52100
                       0.29543                      -0.80106                       0.52059
                       0.29535                      -0.80142                       0.52009
                       0.29522                      -0.80196                       0.51933
                       0.26472                      -0.80769                       0.52684
                       0.24250                      -0.81163                       0.53146
                       0.22296                      -0.81490                       0.53500
                       0.20223                      -0.81803                       0.53845
                       0.18082                      -0.82093                       0.54165
                       0.16051                      -0.82341                       0.54428
                       0.14033                      -0.82562                       0.54649
                       0.12202                      -0.82749                       0.54807
                       0.10814                      -0.82889                       0.54887
                       0.09447                      -0.83014                       0.54949
                       0.08302                      -0.83106                       0.54995
                       0.07448                      -0.83165                       0.55028
                       0.06990                      -0.83194                       0.55045
                       0.06989                      -0.83194                       0.55045
        </DataArray>
        <DataArray type="Float32" Name="OrientationZ" NumberOfComponents="3" format="ascii">
                      -0.14257                      -0.57639                      -0.80464
                      -0.14212                      -0.57614                      -0.80490
                      -0.14084                      -0.57548                      -0.80560
                      -0.13908                      -0.57464                      -0.80651
                      -0.13611                      -0.57331                      -0.80795
                      -0.13154                      -0.57147                      -0.81002
                      -0.12584                      -0.56949                      -0.81231
                      -0.11882                      -0.56744                      -0.81480
                      -0.11021                      -0.56533                      -0.81747
                      -0.09976                      -0.56320                      -0.82028
                      -0.08716                      -0.56110                      -0.82315
                      -0.07282                      -0.55906                      -0.82592
                      -0.05731                      -0.55715                      -0.82843
                      -0.04169                      -0.55540                      -0.83054
                      -0.02756                      -0.55393                      -0.83211
                      -0.01871                      -0.55306                      -0.83293
                      -0.01479                      -0.55267                      -0.83327
                      -0.01363                      -0.55254                      -0.83337
                      -0.01419                      -0.55257                      -0.83334
        </DataArray>
      </PointData>
      <Lines>
        <DataArray type="Int32" Name="connectivity" format="ascii">
      0      1
      1      2
      2      3
      3      4
      4      5
      5      6
      6      7
      7      8
      8      9
      9     10
     10     11
     11     12
     12     13
     13     14
     14     15
     15     16
     16     17
     17     18
        </DataArray>
        <DataArray type="Int32" Name="offsets" format="ascii">
      2
      4
      6
      8
     10
     12
     14
     16
     18
     20
     22
     24
     26
     28
     30
     32
     34
     36
        </DataArray>
      </Lines>
    </Piece>
  </PolyData>
</VTKFile>
