<?xml version="1.0"?>
<VTKFile type="PolyData" version="0.1" byte_order="LittleEndian">
  <PolyData>
    <Piece NumberOfPoints="     19" NumberOfVerts="  0" NumberOfLines="     18"
           NumberOfStrips="  0" NumberOfPolys="      0">
      <Points>
        <DataArray type="Float32" NumberOfComponents="3" format="ascii">
                       3.13016                       1.43511                      93.10675
                       3.37161                       3.02568                      96.34699
                       3.62227                       4.61496                      99.58716
                       3.88570                       6.20243                     102.82720
                       4.16487                       7.78779                     106.06695
                       4.46294                       9.37088                     109.30612
                       4.78367                      10.95146                     112.54435
                       5.13167                      12.52924                     115.78112
                       5.51240                      14.10391                     119.01570
                       5.93189                      15.67522                     122.24710
                       6.39621                      17.24300                     125.47407
                       6.91070                      18.80721                     128.69514
                       7.47894                      20.36795                     131.90887
                       8.10149                      21.92542                     135.11415
                       8.77442                      23.48004                     138.31069
                       9.48751                      25.03254                     141.49963
                      10.22232                      26.58398                     144.68423
                      10.59226                      27.35958                     146.27600
                       3.01124                       0.63959                      91.48661
        </DataArray>
      </Points>
      <PointData>
        <DataArray type="Float32" Name="TranslationalVelocity" NumberOfComponents="3" format="ascii">
                      -0.52265                      -2.72925                       1.31047
                      -0.39269                      -5.75138                       2.78428
                      -0.26357                      -8.78371                       4.26163
                      -0.13541                     -11.82889                       5.74321
                      -0.00801                     -14.88848                       7.22943
                       0.11981                     -17.96335                       8.72045
                       0.25048                     -21.05400                      10.21604
                       0.38786                     -24.16062                      11.71559
                       0.53730                     -27.28317                      13.21809
                       0.70534                     -30.42129                      14.72214
                       0.89924                     -33.57423                      16.22596
                       1.12620                     -36.74085                      17.72736
                       1.39235                     -39.91962                      19.22394
                       1.70157                     -43.10868                      20.71342
                       2.05401                     -46.30589                      22.19425
                       2.44443                     -49.50882                      23.66653
                       2.86026                     -52.71484                      25.13289
                       3.07243                     -54.31828                      25.86510
                      -0.58784                      -1.22033                       0.57434
        </DataArray>
        <DataArray type="Float32" Name="RotationalVelocity" NumberOfComponents="3" format="ascii">
                       0.92312                      -0.01484                      -0.11217
                       0.92553                      -0.01509                      -0.11222
                       0.92881                      -0.01535                      -0.11233
                       0.93263                      -0.01567                      -0.11245
                       0.93675                      -0.01584                      -0.11267
                       0.94102                      -0.01558                      -0.11311
                       0.94533                      -0.01454                      -0.11393
                       0.94958                      -0.01233                      -0.11533
                       0.95369                      -0.00860                      -0.11746
                       0.95758                      -0.00310                      -0.12044
                       0.96114                       0.00428                      -0.12432
                       0.96429                       0.01342                      -0.12904
                       0.96694                       0.02392                      -0.13439
                       0.96904                       0.03504                      -0.14000
                       0.97053                       0.04566                      -0.14533
                       0.97136                       0.05417                      -0.14957
                       0.97155                       0.05846                      -0.15169
                       0.97149                       0.05925                      -0.15207
                       0.92219                      -0.01470                      -0.11217
        </DataArray>
        <DataArray type="Float32" Name="TranslationalAcceleration" NumberOfComponents="3" format="ascii">
                      -0.46788                      -1.25774                      -2.77141
                      -0.94371                      -2.40388                      -5.66762
                      -1.42643                      -3.53628                      -8.59141
                      -1.91887                      -4.65119                     -11.54970
                      -2.42387                      -5.74644                     -14.54648
                      -2.94623                      -6.82086                     -17.58357
                      -3.49361                      -7.87370                     -20.66124
                      -4.07713                      -8.90426                     -23.77834
                      -4.71141                      -9.91188                     -26.93226
                      -5.41384                     -10.89567                     -30.11883
                      -6.20314                     -11.85445                     -33.33227
                      -7.09731                     -12.78676                     -36.56533
                      -8.11095                     -13.69103                     -39.80985
                      -9.25188                     -14.56614                     -43.05777
                     -10.51722                     -15.41278                     -46.30244
                     -11.88873                     -16.23529                     -49.54015
                     -13.32760                     -17.04345                     -52.77205
                     -14.05755                     -17.44555                     -54.38706
                      -0.23125                      -0.68181                      -1.32914
        </DataArray>
        <DataArray type="Float32" Name="RotationalAcceleration" NumberOfComponents="3" format="ascii">
                      -0.06706                      -0.02549                       0.01895
                      -0.07244                      -0.02613                       0.01966
                      -0.07983                      -0.02741                       0.02083
                      -0.08845                      -0.02909                       0.02228
                      -0.09774                      -0.03156                       0.02417
                      -0.10735                      -0.03551                       0.02680
                      -0.11703                      -0.04175                       0.03057
                      -0.12660                      -0.05124                       0.03593
                      -0.13583                      -0.06483                       0.04327
                      -0.14451                      -0.08311                       0.05288
                      -0.15240                      -0.10623                       0.06481
                      -0.15927                      -0.13377                       0.07883
                      -0.16494                      -0.16450                       0.09434
                      -0.16932                      -0.19630                       0.11027
                      -0.17231                      -0.22595                       0.12505
                      -0.17391                      -0.24896                       0.13647
                      -0.17427                      -0.25943                       0.14163
                      -0.17416                      -0.26069                       0.14225
                      -0.06499                      -0.02539                       0.01876
        </DataArray>
        <DataArray type="Float32" Name="OrientationX" NumberOfComponents="3" format="ascii">
                       0.98191                      -0.18825                       0.02036
                       0.98178                      -0.18912                       0.01856
                       0.98156                      -0.19050                       0.01576
                       0.98355                      -0.18055                       0.00627
                       0.98780                      -0.15528                      -0.01181
                       0.98954                      -0.14211                      -0.02480
                       0.99085                      -0.12920                      -0.03891
                       0.99175                      -0.11595                      -0.05472
                       0.99205                      -0.10313                      -0.07206
                       0.99166                      -0.09176                      -0.09054
                       0.99057                      -0.08130                      -0.11030
                       0.98878                      -0.07224                      -0.13075
                       0.98641                      -0.06644                      -0.15024
                       0.98373                      -0.06186                      -0.16865
                       0.98104                      -0.05646                      -0.18538
                       0.97882                      -0.04949                      -0.19865
                       0.97789                      -0.04350                      -0.20452
                       0.97788                      -0.04105                      -0.20509
                       0.98195                      -0.18795                       0.02095
        </DataArray>
        <DataArray type="Float32" Name="OrientationY" NumberOfComponents="3" format="ascii">
                       0.17756                       0.87815                      -0.44422
                       0.17755                       0.87809                      -0.44434
                       0.17754                       0.87801                      -0.44449
                       0.16445                       0.88039                      -0.44482
                       0.13388                       0.88550                      -0.44494
                       0.11639                       0.88803                      -0.44482
                       0.09865                       0.89036                      -0.44445
                       0.07987                       0.89258                      -0.44376
                       0.06084                       0.89459                      -0.44273
                       0.04263                       0.89629                      -0.44142
                       0.02472                       0.89777                      -0.43977
                       0.00779                       0.89901                      -0.43786
                      -0.00580                       0.89990                      -0.43605
                      -0.01781                       0.90063                      -0.43422
                      -0.02979                       0.90131                      -0.43215
                      -0.04164                       0.90193                      -0.42987
                      -0.04943                       0.90230                      -0.42827
                      -0.05183                       0.90240                      -0.42777
                       0.17756                       0.87817                      -0.44418
        </DataArray>
        <DataArray type="Float32" Name="OrientationZ" NumberOfComponents="3" format="ascii">
                       0.06575                       0.43980                       0.89569
                       0.06773                       0.43954                       0.89567
                       0.07084                       0.43909                       0.89564
                       0.07479                       0.43853                       0.89560
                       0.07955                       0.43793                       0.89548
                       0.08523                       0.43728                       0.89528
                       0.09206                       0.43654                       0.89496
                       0.10029                       0.43573                       0.89447
                       0.11012                       0.43483                       0.89375
                       0.12165                       0.43388                       0.89272
                       0.13478                       0.43289                       0.89131
                       0.14918                       0.43193                       0.88949
                       0.16417                       0.43100                       0.88729
                       0.17876                       0.43016                       0.88488
                       0.19148                       0.42948                       0.88254
                       0.20044                       0.42904                       0.88077
                       0.20317                       0.42892                       0.88020
                       0.20264                       0.42894                       0.88031
                       0.06509                       0.43988                       0.89569
        </DataArray>
      </PointData>
      <Lines>
        <DataArray type="Int32" Name="connectivity" format="ascii">
      0      1
      1      2
      2      3
      3      4
      4      5
      5      6
      6      7
      7      8
      8      9
      9     10
     10     11
     11     12
     12     13
     13     14
     14     15
     15     16
     16     17
     18      0
        </DataArray>
        <DataArray type="Int32" Name="offsets" format="ascii">
      2
      4
      6
      8
     10
     12
     14
     16
     18
     20
     22
     24
     26
     28
     30
     32
     34
     36
        </DataArray>
      </Lines>
    </Piece>
  </PolyData>
</VTKFile>
