<?xml version="1.0"?>
<VTKFile type="PolyData" version="0.1" byte_order="LittleEndian">
  <PolyData>
    <Piece NumberOfPoints="     19" NumberOfVerts="  0" NumberOfLines="     18"
           NumberOfStrips="  0" NumberOfPolys="      0">
      <Points>
        <DataArray type="Float32" NumberOfComponents="3" format="ascii">
                       2.50687                       1.26564                      89.38697
                       2.36945                       2.44847                      88.71622
                       2.08299                       4.86082                      87.45908
                       1.79451                       7.29568                      86.24170
                       1.43864                      10.35344                      84.74350
                       1.06449                      13.95419                      82.81521
                       0.72143                      17.49219                      80.77126
                       0.40063                      21.03058                      78.72440
                       0.11020                      24.56867                      76.67248
                      -0.14319                      28.10742                      74.61684
                      -0.35752                      31.64830                      72.56051
                      -0.51978                      35.19021                      70.50123
                      -0.62342                      38.73220                      68.43834
                      -0.66512                      42.27309                      66.37142
                      -0.64473                      45.81174                      64.30033
                      -0.58799                      48.75856                      62.57164
                      -0.52375                      51.11075                      61.18046
                      -0.46065                      53.43533                      59.74148
                      -0.42547                      54.61828                      59.05801
        </DataArray>
      </Points>
      <PointData>
        <DataArray type="Float32" Name="Force" NumberOfComponents="3" format="ascii">
                      -0.03225                      -0.16329                      -0.27964
                      67.64993                      -4.84066                     -22.23339
                      82.71002                     -19.11136                     -50.07717
                      72.24069                     -29.78685                     -66.40052
                     818.47602                     201.47041                     196.31180
                    1076.07634                     234.53234                     214.24864
                    1233.58326                     224.21977                     180.62479
                    1553.30265                     236.11248                     166.93443
                    1669.19683                     206.59939                     123.96932
                    1893.05534                     187.08006                      95.51170
                    2296.67665                     169.60019                      71.08057
                    2602.41482                     131.10145                      46.11383
                    3013.98142                      92.95068                      41.76564
                    3278.59650                      33.46043                      28.50848
                    3506.99937                     -30.08643                      14.78312
                    3629.15809                     -80.72562                      -5.33126
                    3535.86977                    -110.52852                     -30.65211
                    2579.06876                     -94.02388                     -37.63773
                    1228.82409                     -95.19929                    -104.67731
        </DataArray>
        <DataArray type="Float32" Name="Moment" NumberOfComponents="3" format="ascii">
                       0.00000                       0.00000                       0.00000
                       0.00000                       0.00000                       0.00000
                       0.00000                       0.00000                       0.00000
                       0.00000                       0.00000                       0.00000
                      25.37741                    -232.56625                     132.87238
                      34.68466                    -333.24126                     190.58471
                      44.89562                    -458.50278                     262.54926
                      58.58510                    -648.25839                     371.77173
                      70.08512                    -864.18536                     496.52854
                      69.27047                    -992.84530                     571.74896
                      59.04065                   -1054.78851                     609.09825
                      45.27887                   -1128.80966                     653.90734
                      23.27109                   -1021.34461                     593.69485
                       5.23339                   -1019.45280                     594.67033
                     -10.90081                    -986.88050                     577.51149
                     -20.00762                    -935.71282                     548.68412
                     -21.66117                    -827.67355                     485.78905
                     -11.58408                    -415.37575                     243.88005
                      -9.80960                    -357.21495                     209.71444
        </DataArray>
        <DataArray type="Float32" Name="TranslationalVelocity" NumberOfComponents="3" format="ascii">
                      -0.15151                       0.66862                       1.19837
                      -0.02000                       1.30904                       2.30076
                       0.24736                       2.51219                       4.54850
                       0.51652                       3.67771                       6.81555
                       0.85361                       5.11087                       9.65958
                       1.24998                       6.94403                      13.00414
                       1.63816                       8.87804                      16.28496
                       2.02476                      10.80898                      19.56068
                       2.41198                      12.73820                      22.83085
                       2.80394                      14.66414                      26.09667
                       3.20487                      16.58435                      29.36021
                       3.62171                      18.49938                      32.62020
                       4.06114                      20.40890                      35.87597
                       4.52885                      22.31235                      39.12670
                       5.02806                      24.20913                      42.37187
                       5.46693                      25.78500                      45.07214
                       5.83105                      27.04934                      47.22638
                       6.19993                      28.35690                      49.35459
                       6.38723                      28.97713                      50.43761
        </DataArray>
        <DataArray type="Float32" Name="RotationalVelocity" NumberOfComponents="3" format="ascii">
                       0.93298                      -0.00646                      -0.10758
                       0.93274                      -0.00645                      -0.10752
                       0.93216                      -0.00644                      -0.10739
                       0.93143                      -0.00643                      -0.10722
                       0.93033                      -0.00639                      -0.10693
                       0.92883                      -0.00628                      -0.10643
                       0.92725                      -0.00618                      -0.10592
                       0.92570                      -0.00622                      -0.10568
                       0.92423                      -0.00660                      -0.10605
                       0.92286                      -0.00751                      -0.10737
                       0.92156                      -0.00919                      -0.11004
                       0.92029                      -0.01164                      -0.11407
                       0.91900                      -0.01481                      -0.11937
                       0.91772                      -0.01851                      -0.12560
                       0.91649                      -0.02236                      -0.13209
                       0.91563                      -0.02522                      -0.13692
                       0.91515                      -0.02692                      -0.13981
                       0.91486                      -0.02806                      -0.14175
                       0.91480                      -0.02838                      -0.14230
        </DataArray>
        <DataArray type="Float32" Name="TranslationalAcceleration" NumberOfComponents="3" format="ascii">
                       1.24156                      -1.05787                       0.72657
                       1.27138                      -2.10937                       1.31523
                       1.31826                      -4.25764                       2.40739
                       1.34347                      -6.44131                       3.42376
                       1.33502                      -9.21065                       4.59829
                       1.26395                     -12.53108                       5.99885
                       1.10240                     -15.87820                       7.36130
                       0.83067                     -19.30149                       8.58377
                       0.46041                     -22.79693                       9.67153
                       0.02462                     -26.35816                      10.63001
                      -0.42712                     -29.97287                      11.47608
                      -0.83373                     -33.63936                      12.20481
                      -1.11981                     -37.35318                      12.82320
                      -1.21241                     -41.11370                      13.33929
                      -1.05553                     -44.92243                      13.76448
                      -0.72336                     -48.13232                      14.06287
                      -0.32553                     -50.72122                      14.28051
                       0.17139                     -53.31709                      14.53636
                       0.42719                     -54.62002                      14.62418
        </DataArray>
        <DataArray type="Float32" Name="OrientationX" NumberOfComponents="3" format="ascii">
                       0.98620                       0.15213                       0.06531
                       0.98625                       0.15174                       0.06553
                       0.98637                       0.15063                       0.06617
                       0.98654                       0.14912                       0.06703
                       0.98682                       0.14660                       0.06846
                       0.99092                       0.12741                       0.04293
                       0.99343                       0.11156                       0.02560
                       0.99531                       0.09603                       0.01138
                       0.99690                       0.07858                      -0.00307
                       0.99810                       0.05923                      -0.01716
                       0.99883                       0.03856                      -0.02913
                       0.99906                       0.01641                      -0.04003
                       0.99880                      -0.00589                      -0.04860
                       0.99824                      -0.02618                      -0.05312
                       0.99729                      -0.04521                      -0.05807
                       0.99625                      -0.05871                      -0.06358
                       0.99540                      -0.06656                      -0.06892
                       0.99493                      -0.07013                      -0.07215
                       0.99493                      -0.06981                      -0.07234
        </DataArray>
        <DataArray type="Float32" Name="OrientationY" NumberOfComponents="3" format="ascii">
                       0.13144                      -0.47963                      -0.86757
                       0.13145                      -0.47968                      -0.86754
                       0.13147                      -0.47983                      -0.86746
                       0.13149                      -0.48001                      -0.86735
                       0.13152                      -0.48029                      -0.86720
                       0.10000                      -0.48503                      -0.86876
                       0.07722                      -0.48817                      -0.86932
                       0.05728                      -0.49066                      -0.86947
                       0.03617                      -0.49290                      -0.86933
                       0.01442                      -0.49477                      -0.86890
                      -0.00616                      -0.49613                      -0.86823
                      -0.02659                      -0.49701                      -0.86734
                      -0.04509                      -0.49738                      -0.86636
                      -0.05911                      -0.49738                      -0.86552
                      -0.07288                      -0.49707                      -0.86465
                      -0.08439                      -0.49656                      -0.86389
                      -0.09295                      -0.49606                      -0.86330
                      -0.09753                      -0.49575                      -0.86297
                      -0.09753                      -0.49575                      -0.86297
        </DataArray>
        <DataArray type="Float32" Name="OrientationZ" NumberOfComponents="3" format="ascii">
                      -0.10066                       0.86419                      -0.49300
                      -0.10021                       0.86422                      -0.49303
                      -0.09892                       0.86433                      -0.49309
                      -0.09716                       0.86450                      -0.49316
                      -0.09425                       0.86477                      -0.49324
                      -0.08986                       0.86516                      -0.49337
                      -0.08449                       0.86559                      -0.49358
                      -0.07791                       0.86604                      -0.49386
                      -0.06983                       0.86653                      -0.49422
                      -0.05995                       0.86700                      -0.49468
                      -0.04793                       0.86739                      -0.49531
                      -0.03413                       0.86759                      -0.49611
                      -0.01907                       0.86751                      -0.49705
                      -0.00376                       0.86714                      -0.49806
                       0.01023                       0.86653                      -0.49901
                       0.01915                       0.86601                      -0.49966
                       0.02327                       0.86573                      -0.49996
                       0.02475                       0.86563                      -0.50008
                       0.02438                       0.86565                      -0.50005
        </DataArray>
      </PointData>
      <Lines>
        <DataArray type="Int32" Name="connectivity" format="ascii">
      0      1
      1      2
      2      3
      3      4
      4      5
      5      6
      6      7
      7      8
      8      9
      9     10
     10     11
     11     12
     12     13
     13     14
     14     15
     15     16
     16     17
     17     18
        </DataArray>
        <DataArray type="Int32" Name="offsets" format="ascii">
      2
      4
      6
      8
     10
     12
     14
     16
     18
     20
     22
     24
     26
     28
     30
     32
     34
     36
        </DataArray>
      </Lines>
    </Piece>
  </PolyData>
</VTKFile>
