<?xml version="1.0"?>
<VTKFile type="PolyData" version="0.1" byte_order="LittleEndian">
  <PolyData>
    <Piece NumberOfPoints="     19" NumberOfVerts="  0" NumberOfLines="     18"
           NumberOfStrips="  0" NumberOfPolys="      0">
      <Points>
        <DataArray type="Float32" NumberOfComponents="3" format="ascii">
                       2.62605                      -0.37178                      86.90783
                       2.01908                      -0.75060                      83.36164
                       1.41986                      -1.12925                      79.81412
                       0.83129                      -1.50752                      76.26478
                       0.25582                      -1.88527                      72.71323
                      -0.30383                      -2.26242                      69.15910
                      -0.84412                      -2.63871                      65.60189
                      -1.36042                      -3.01375                      62.04100
                      -1.84698                      -3.38711                      58.47576
                      -2.29725                      -3.75847                      54.90555
                      -2.70435                      -4.12764                      51.32997
                      -3.06192                      -4.49467                      47.74888
                      -3.36520                      -4.85980                      44.16259
                      -3.61246                      -5.22337                      40.57182
                      -3.80665                      -5.58586                      36.97762
                      -3.95737                      -5.94779                      33.38121
                      -4.08311                      -6.30954                      29.78374
                      -4.14268                      -6.49040                      27.98489
                       2.93104                      -0.18237                      88.68066
        </DataArray>
      </Points>
      <PointData>
        <DataArray type="Float32" Name="TranslationalVelocity" NumberOfComponents="3" format="ascii">
                       0.03618                       3.01653                      -0.27972
                      -0.03001                       6.36501                      -0.62609
                      -0.09999                       9.71900                      -0.97227
                      -0.17485                      13.07986                      -1.31804
                      -0.25535                      16.44843                      -1.66329
                      -0.34309                      19.82494                      -2.00779
                      -0.44139                      23.20904                      -2.35086
                      -0.55584                      26.59990                      -2.69142
                      -0.69427                      29.99631                      -3.02828
                      -0.86648                      33.39686                      -3.36038
                      -1.08353                      36.80005                      -3.68719
                      -1.35656                      40.20437                      -4.00903
                      -1.69526                      43.60839                      -4.32713
                      -2.10576                      47.01082                      -4.64347
                      -2.58817                      50.41079                      -4.96022
                      -3.13360                      53.80821                      -5.27889
                      -3.72078                      57.20396                      -5.59922
                      -4.02126                      58.90160                      -5.75961
                       0.06852                       1.34346                      -0.10653
        </DataArray>
        <DataArray type="Float32" Name="RotationalVelocity" NumberOfComponents="3" format="ascii">
                       0.92334                       0.00559                      -0.11846
                       0.92455                       0.00640                      -0.11876
                       0.92615                       0.00766                      -0.11917
                       0.92804                       0.00908                      -0.11964
                       0.93006                       0.01075                      -0.12017
                       0.93205                       0.01305                      -0.12076
                       0.93384                       0.01659                      -0.12145
                       0.93532                       0.02200                      -0.12228
                       0.93644                       0.02990                      -0.12332
                       0.93723                       0.04071                      -0.12461
                       0.93774                       0.05464                      -0.12619
                       0.93808                       0.07148                      -0.12804
                       0.93833                       0.09053                      -0.13012
                       0.93854                       0.11052                      -0.13229
                       0.93875                       0.12945                      -0.13435
                       0.93896                       0.14449                      -0.13600
                       0.93902                       0.15192                      -0.13680
                       0.93899                       0.15320                      -0.13693
                       0.92285                       0.00535                      -0.11835
        </DataArray>
        <DataArray type="Float32" Name="TranslationalAcceleration" NumberOfComponents="3" format="ascii">
                      -0.72041                       0.21302                       2.42257
                      -0.00100                       0.57227                       5.45795
                       0.76189                       1.02211                       8.48730
                       1.58967                       1.58688                      11.50757
                       2.50308                       2.28132                      14.51621
                       3.51437                       3.11073                      17.51242
                       4.62030                       4.07281                      20.49806
                       5.79881                       5.15963                      23.47805
                       7.00863                       6.35965                      26.46012
                       8.19079                       7.66002                      29.45383
                       9.27256                       9.04881                      32.46907
                      10.17386                      10.51638                      35.51399
                      10.81621                      12.05564                      38.59311
                      11.13423                      13.66074                      41.70612
                      11.08994                      15.32491                      44.84819
                      10.68971                      17.03728                      48.01192
                      10.00366                      18.77800                      51.19001
                       9.60256                      19.65223                      52.78182
                      -1.07174                       0.05244                       0.90375
        </DataArray>
        <DataArray type="Float32" Name="RotationalAcceleration" NumberOfComponents="3" format="ascii">
                      -0.00357                      -0.08806                      -0.01042
                       0.01730                      -0.09745                      -0.01301
                       0.04617                      -0.11241                      -0.01640
                       0.08056                      -0.13376                      -0.02005
                       0.11763                      -0.16023                      -0.02363
                       0.15499                      -0.18830                      -0.02708
                       0.19085                      -0.21283                      -0.03064
                       0.22377                      -0.22845                      -0.03466
                       0.25289                      -0.22987                      -0.03953
                       0.27790                      -0.21261                      -0.04569
                       0.29895                      -0.17369                      -0.05349
                       0.31652                      -0.11229                      -0.06308
                       0.33105                      -0.03044                      -0.07433
                       0.34281                       0.06632                      -0.08670
                       0.35188                       0.16828                      -0.09915
                       0.35789                       0.26093                      -0.11009
                       0.35959                       0.32432                      -0.11715
                       0.35914                       0.34585                      -0.11938
                      -0.01171                      -0.08451                      -0.00939
        </DataArray>
        <DataArray type="Float32" Name="OrientationX" NumberOfComponents="3" format="ascii">
                       0.95604                       0.22464                      -0.18848
                       0.95632                       0.22482                      -0.18686
                       0.95675                       0.22509                      -0.18431
                       0.96039                       0.21252                      -0.18023
                       0.96761                       0.18272                      -0.17420
                       0.97170                       0.16592                      -0.16817
                       0.97566                       0.14896                      -0.16092
                       0.97963                       0.13110                      -0.15209
                       0.98346                       0.11312                      -0.14144
                       0.98699                       0.09610                      -0.12892
                       0.99023                       0.07951                      -0.11452
                       0.99307                       0.06400                      -0.09859
                       0.99528                       0.05189                      -0.08201
                       0.99699                       0.04131                      -0.06568
                       0.99823                       0.03053                      -0.05095
                       0.99901                       0.01949                      -0.03989
                       0.99930                       0.01192                      -0.03556
                       0.99932                       0.00946                      -0.03551
                       0.95595                       0.22459                      -0.18900
        </DataArray>
        <DataArray type="Float32" Name="OrientationY" NumberOfComponents="3" format="ascii">
                       0.23991                      -0.96880                       0.06223
                       0.23997                      -0.96876                       0.06261
                       0.24006                      -0.96870                       0.06311
                       0.22740                      -0.97155                       0.06613
                       0.19762                      -0.97761                       0.07226
                       0.18059                      -0.98062                       0.07594
                       0.16326                      -0.98337                       0.07954
                       0.14485                      -0.98596                       0.08313
                       0.12611                      -0.98823                       0.08654
                       0.10811                      -0.99009                       0.08959
                       0.09030                      -0.99163                       0.09231
                       0.07338                      -0.99281                       0.09460
                       0.05973                      -0.99356                       0.09626
                       0.04761                      -0.99410                       0.09751
                       0.03545                      -0.99451                       0.09849
                       0.02337                      -0.99479                       0.09921
                       0.01541                      -0.99491                       0.09956
                       0.01296                      -0.99494                       0.09965
                       0.23989                      -0.96881                       0.06209
        </DataArray>
        <DataArray type="Float32" Name="OrientationZ" NumberOfComponents="3" format="ascii">
                      -0.16861                      -0.10472                      -0.98010
                      -0.16694                      -0.10471                      -0.98039
                      -0.16434                      -0.10463                      -0.98084
                      -0.16105                      -0.10449                      -0.98140
                      -0.15710                      -0.10435                      -0.98206
                      -0.15231                      -0.10416                      -0.98283
                      -0.14640                      -0.10387                      -0.98376
                      -0.13905                      -0.10346                      -0.98487
                      -0.12999                      -0.10295                      -0.98616
                      -0.11904                      -0.10236                      -0.98760
                      -0.10622                      -0.10175                      -0.98912
                      -0.09182                      -0.10118                      -0.99062
                      -0.07649                      -0.10070                      -0.99197
                      -0.06126                      -0.10034                      -0.99307
                      -0.04766                      -0.10012                      -0.99383
                      -0.03775                      -0.10005                      -0.99427
                      -0.03420                      -0.10004                      -0.99440
                      -0.03438                      -0.10004                      -0.99439
                      -0.16916                      -0.10469                      -0.98001
        </DataArray>
      </PointData>
      <Lines>
        <DataArray type="Int32" Name="connectivity" format="ascii">
      0      1
      1      2
      2      3
      3      4
      4      5
      5      6
      6      7
      7      8
      8      9
      9     10
     10     11
     11     12
     12     13
     13     14
     14     15
     15     16
     16     17
     18      0
        </DataArray>
        <DataArray type="Int32" Name="offsets" format="ascii">
      2
      4
      6
      8
     10
     12
     14
     16
     18
     20
     22
     24
     26
     28
     30
     32
     34
     36
        </DataArray>
      </Lines>
    </Piece>
  </PolyData>
</VTKFile>
