<?xml version="1.0"?>
<VTKFile type="PolyData" version="0.1" byte_order="LittleEndian">
  <PolyData>
    <Piece NumberOfPoints="     19" NumberOfVerts="  0" NumberOfLines="     18"
           NumberOfStrips="  0" NumberOfPolys="      0">
      <Points>
        <DataArray type="Float32" NumberOfComponents="3" format="ascii">
                       3.11599                      -0.47084                      91.54181
                       3.21295                      -0.89752                      92.83657
                       3.38177                      -1.84084                      95.39849
                       3.54098                      -2.82761                      97.94689
                       3.73811                      -4.08839                     101.12358
                       4.04247                      -5.46925                     104.97341
                       4.38911                      -6.73087                     108.85895
                       4.74980                      -7.99420                     112.74267
                       5.13006                      -9.25767                     116.62453
                       5.53234                     -10.52302                     120.50358
                       5.95575                     -11.79314                     124.37882
                       6.40668                     -13.06666                     128.24986
                       6.88685                     -14.34303                     132.11646
                       7.39621                     -15.62161                     135.97860
                       7.93433                     -16.90181                     139.83634
                       8.40024                     -17.96937                     143.04844
                       8.78111                     -18.81616                     145.61936
                       9.16387                     -19.61090                     148.20775
                       9.35275                     -20.04776                     149.48880
        </DataArray>
      </Points>
      <PointData>
        <DataArray type="Float32" Name="Force" NumberOfComponents="3" format="ascii">
                       0.12245                       3.11037                       1.00669
                      71.46531                      25.06322                       2.78628
                      90.04610                      58.79353                      12.32032
                      80.82539                      76.77356                      18.80304
                     701.60305                    -283.21900                    -148.51361
                     908.58901                    -322.53356                    -180.76298
                    1019.76735                    -294.80131                    -184.85697
                    1257.54985                    -301.68401                    -213.50214
                    1267.94218                    -241.68127                    -201.64185
                    1341.83127                    -204.95910                    -205.12869
                    1495.07058                    -166.44570                    -218.98283
                    1456.10379                    -106.36896                    -206.43568
                    1496.01422                     -68.10872                    -210.87939
                    1288.09817                     -12.90938                    -176.89944
                    1040.00235                      24.32986                    -138.71953
                     674.63679                      44.30320                     -83.43182
                    1088.68400                      47.56858                    -144.33456
                    1091.33807                      32.39817                    -149.94735
                    1317.44395                      26.27477                    -184.58361
        </DataArray>
        <DataArray type="Float32" Name="Moment" NumberOfComponents="3" format="ascii">
                       0.00000                       0.00000                       0.00000
                       0.00000                       0.00000                       0.00000
                       0.00000                       0.00000                       0.00000
                       0.00000                       0.00000                       0.00000
                     -13.88406                      56.88777                    -174.07694
                     -31.19682                     123.02917                    -376.32771
                     -43.51861                     164.13021                    -501.81855
                     -64.40409                     230.92276                    -705.64662
                     -92.94406                     315.02182                    -962.01543
                    -109.78247                     349.90618                   -1067.74922
                    -124.38699                     371.03346                   -1131.24963
                    -139.85230                     389.78195                   -1187.29558
                    -117.65666                     306.85723                    -933.78342
                    -120.89126                     296.67272                    -901.92300
                    -121.66663                     283.89885                    -862.36135
                    -117.79289                     267.02296                    -810.69122
                    -111.43022                     249.77523                    -758.17494
                     -57.89905                     129.60423                    -393.39472
                     -61.35165                     137.79311                    -418.27589
        </DataArray>
        <DataArray type="Float32" Name="TranslationalVelocity" NumberOfComponents="3" format="ascii">
                       0.12197                      -1.38212                      -0.41513
                       0.07965                      -2.59912                      -0.81301
                      -0.01261                      -5.00470                      -1.69264
                      -0.10057                      -7.39717                      -2.61339
                      -0.19462                     -10.38100                      -3.79137
                      -0.25922                     -14.00716                      -5.08610
                      -0.26470                     -17.67467                      -6.27554
                      -0.21442                     -21.34586                      -7.47356
                      -0.09492                     -25.02212                      -8.68104
                       0.11010                     -28.70361                      -9.90258
                       0.40708                     -32.38904                     -11.14242
                       0.82438                     -36.07891                     -12.40449
                       1.37845                     -39.77186                     -13.69194
                       2.07864                     -43.46593                     -15.00686
                       2.92148                     -47.15893                     -16.34964
                       3.71537                     -50.23465                     -17.48675
                       4.39736                     -52.69621                     -18.39838
                       5.09848                     -55.17423                     -19.26276
                       5.44479                     -56.40063                     -19.73198
        </DataArray>
        <DataArray type="Float32" Name="RotationalVelocity" NumberOfComponents="3" format="ascii">
                       0.93145                       0.00343                      -0.11293
                       0.93150                       0.00442                      -0.11261
                       0.93174                       0.00723                      -0.11171
                       0.93213                       0.01104                      -0.11049
                       0.93286                       0.01736                      -0.10848
                       0.93396                       0.02686                      -0.10546
                       0.93523                       0.03848                      -0.10176
                       0.93677                       0.05270                      -0.09723
                       0.93868                       0.07020                      -0.09166
                       0.94096                       0.09162                      -0.08484
                       0.94351                       0.11778                      -0.07649
                       0.94613                       0.14792                      -0.06684
                       0.94860                       0.18093                      -0.05624
                       0.95073                       0.21465                      -0.04539
                       0.95236                       0.24564                      -0.03539
                       0.95320                       0.26549                      -0.02897
                       0.95354                       0.27473                      -0.02598
                       0.95363                       0.27809                      -0.02488
                       0.95360                       0.27732                      -0.02514
        </DataArray>
        <DataArray type="Float32" Name="TranslationalAcceleration" NumberOfComponents="3" format="ascii">
                       0.72759                       0.26546                      -1.04756
                       0.63979                       0.58434                      -2.20346
                       0.45003                       1.31009                      -4.48747
                       0.21088                       2.09952                      -6.74736
                      -0.18952                       3.15799                      -9.54114
                      -0.85874                       4.39236                     -12.89062
                      -1.78131                       5.62260                     -16.22705
                      -2.97382                       6.95402                     -19.51638
                      -4.40750                       8.37561                     -22.76736
                      -6.00571                       9.87354                     -25.99663
                      -7.65327                      11.42920                     -29.22617
                      -9.21408                      13.03521                     -32.48548
                     -10.51871                      14.68408                     -35.81084
                     -11.40366                      16.37483                     -39.23924
                     -11.74315                      18.10994                     -42.79993
                     -11.58311                      19.58875                     -45.87267
                     -11.16372                      20.78383                     -48.39987
                     -10.52633                      21.94030                     -50.98753
                     -10.18711                      22.55264                     -52.26737
        </DataArray>
        <DataArray type="Float32" Name="OrientationX" NumberOfComponents="3" format="ascii">
                       0.96137                      -0.23202                      -0.14812
                       0.96134                      -0.23192                      -0.14842
                       0.96128                      -0.23164                      -0.14928
                       0.96119                      -0.23126                      -0.15045
                       0.96104                      -0.23062                      -0.15239
                       0.96879                      -0.20013                      -0.14626
                       0.97364                      -0.17755                      -0.14316
                       0.97735                      -0.15739                      -0.14146
                       0.98078                      -0.13588                      -0.14005
                       0.98375                      -0.11348                      -0.13913
                       0.98598                      -0.09187                      -0.13929
                       0.98766                      -0.07019                      -0.14003
                       0.98865                      -0.05020                      -0.14159
                       0.98893                      -0.03450                      -0.14432
                       0.98907                      -0.01931                      -0.14618
                       0.98922                      -0.00710                      -0.14624
                       0.98943                       0.00154                      -0.14498
                       0.98960                       0.00597                      -0.14370
                       0.98967                       0.00582                      -0.14326
        </DataArray>
        <DataArray type="Float32" Name="OrientationY" NumberOfComponents="3" format="ascii">
                       0.26586                       0.92210                       0.28117
                       0.26586                       0.92208                       0.28121
                       0.26587                       0.92205                       0.28132
                       0.26588                       0.92200                       0.28146
                       0.26590                       0.92194                       0.28166
                       0.23513                       0.92872                       0.28669
                       0.21282                       0.93297                       0.29031
                       0.19325                       0.93623                       0.29346
                       0.17250                       0.93925                       0.29673
                       0.15108                       0.94188                       0.30005
                       0.13078                       0.94392                       0.30316
                       0.11062                       0.94551                       0.30624
                       0.09233                       0.94655                       0.30905
                       0.07846                       0.94709                       0.31123
                       0.06481                       0.94741                       0.31338
                       0.05339                       0.94753                       0.31516
                       0.04489                       0.94754                       0.31646
                       0.04034                       0.94752                       0.31715
                       0.04033                       0.94752                       0.31715
        </DataArray>
        <DataArray type="Float32" Name="OrientationZ" NumberOfComponents="3" format="ascii">
                       0.07134                      -0.30969                       0.94816
                       0.07164                      -0.30981                       0.94810
                       0.07248                      -0.31012                       0.94793
                       0.07362                      -0.31054                       0.94771
                       0.07554                      -0.31120                       0.94734
                       0.07846                      -0.31214                       0.94679
                       0.08202                      -0.31313                       0.94616
                       0.08625                      -0.31415                       0.94545
                       0.09122                      -0.31519                       0.94464
                       0.09699                      -0.31619                       0.94372
                       0.10363                      -0.31713                       0.94270
                       0.11090                      -0.31795                       0.94160
                       0.11851                      -0.31861                       0.94045
                       0.12594                      -0.31911                       0.93931
                       0.13244                      -0.31943                       0.93831
                       0.13633                      -0.31957                       0.93770
                       0.13786                      -0.31963                       0.93746
                       0.13805                      -0.31965                       0.93743
                       0.13759                      -0.31965                       0.93749
        </DataArray>
      </PointData>
      <Lines>
        <DataArray type="Int32" Name="connectivity" format="ascii">
      0      1
      1      2
      2      3
      3      4
      4      5
      5      6
      6      7
      7      8
      8      9
      9     10
     10     11
     11     12
     12     13
     13     14
     14     15
     15     16
     16     17
     17     18
        </DataArray>
        <DataArray type="Int32" Name="offsets" format="ascii">
      2
      4
      6
      8
     10
     12
     14
     16
     18
     20
     22
     24
     26
     28
     30
     32
     34
     36
        </DataArray>
      </Lines>
    </Piece>
  </PolyData>
</VTKFile>
