<?xml version="1.0"?>
<VTKFile type="PolyData" version="0.1" byte_order="LittleEndian">
  <PolyData>
    <Piece NumberOfPoints="     19" NumberOfVerts="  0" NumberOfLines="     18"
           NumberOfStrips="  0" NumberOfPolys="      0">
      <Points>
        <DataArray type="Float32" NumberOfComponents="3" format="ascii">
                       3.20485                      -1.36406                      90.84488
                       3.22471                      -2.57854                      91.47140
                       3.23256                      -5.05023                      92.64292
                       3.22851                      -7.54279                      93.77453
                       3.22177                     -10.67198                      95.16304
                       3.29590                     -14.36554                      96.94427
                       3.42734                     -18.00331                      98.83072
                       3.57990                     -21.64288                     100.71212
                       3.76135                     -25.28359                     102.58883
                       3.97679                     -28.92621                     104.45830
                       4.22661                     -32.57181                     106.31762
                       4.52207                     -36.21946                     108.16627
                       4.86807                     -39.86825                     110.00390
                       5.26663                     -43.51714                     111.83070
                       5.71733                     -47.16513                     113.64725
                       6.12577                     -50.20406                     115.15484
                       6.46920                     -52.63090                     116.36499
                       6.82135                     -55.03305                     117.62348
                       6.99198                     -56.25276                     118.21582
        </DataArray>
      </Points>
      <PointData>
        <DataArray type="Float32" Name="Force" NumberOfComponents="3" format="ascii">
                       0.65315                       2.66408                       5.10972
                      80.66316                      12.80206                      21.95893
                     104.20459                      30.04210                      54.12205
                      95.26959                      39.04641                      71.48451
                     685.98868                    -155.84276                    -332.07471
                     889.76430                    -171.93539                    -381.02911
                    1020.69383                    -160.58939                    -378.30198
                    1309.85392                    -170.52061                    -435.27213
                    1415.68933                    -145.69525                    -419.85724
                    1632.95090                    -132.83140                    -449.34180
                    2018.57800                    -118.40585                    -515.58681
                    2306.20601                     -87.86080                    -560.16097
                    2747.83027                     -61.61879                    -664.92683
                    3018.18523                     -13.81617                    -714.96983
                    3267.93846                      38.13597                    -758.04389
                    3397.76996                      79.90488                    -766.18305
                    3318.43782                     103.82087                    -722.03507
                    2418.42892                      86.33510                    -510.24401
                    1291.97194                      86.08096                    -191.71694
        </DataArray>
        <DataArray type="Float32" Name="Moment" NumberOfComponents="3" format="ascii">
                       0.00000                       0.00000                       0.00000
                       0.00000                       0.00000                       0.00000
                       0.00000                       0.00000                       0.00000
                       0.00000                       0.00000                       0.00000
                      -4.53902                     191.20091                     -99.10720
                     -11.79862                     414.33788                    -214.51731
                     -18.51854                     540.20224                    -279.28088
                     -30.95228                     749.12296                    -386.61761
                     -50.50437                    1013.67479                    -522.04910
                     -67.40292                    1123.14987                    -576.96663
                     -86.01953                    1192.13005                    -610.55151
                    -107.48383                    1251.63806                    -638.83384
                    -107.85487                    1071.83251                    -545.04027
                    -122.91918                    1064.84236                    -539.47018
                    -132.52241                    1028.97095                    -519.54019
                    -133.65340                     974.63251                    -491.06491
                    -121.60966                     863.63133                    -434.73114
                     -61.82463                     435.77366                    -219.29882
                     -55.18055                     390.48055                    -196.53340
        </DataArray>
        <DataArray type="Float32" Name="TranslationalVelocity" NumberOfComponents="3" format="ascii">
                      -0.27903                      -0.68145                      -1.21076
                      -0.42293                      -1.26191                      -2.33140
                      -0.71549                      -2.34387                      -4.61217
                      -1.00960                      -3.38770                      -6.91242
                      -1.37694                      -4.66851                      -9.80062
                      -1.80728                      -6.32162                     -13.21053
                      -2.22658                      -8.07897                     -16.57001
                      -2.64034                      -9.83452                     -19.93250
                      -3.04672                     -11.58954                     -23.29776
                      -3.44345                     -13.34220                     -26.66703
                      -3.82933                     -15.08973                     -30.04156
                      -4.20024                     -16.83266                     -33.42130
                      -4.55332                     -18.57077                     -36.80595
                      -4.88665                     -20.30387                     -40.19485
                      -5.20004                     -22.03185                     -43.58711
                      -5.44796                     -23.46852                     -46.41575
                      -5.63897                     -24.62275                     -48.67608
                      -5.82465                     -25.82249                     -50.91400
                      -5.91952                     -26.38760                     -52.05021
        </DataArray>
        <DataArray type="Float32" Name="RotationalVelocity" NumberOfComponents="3" format="ascii">
                       0.92272                      -0.00052                      -0.11833
                       0.92274                      -0.00048                      -0.11824
                       0.92281                      -0.00035                      -0.11799
                       0.92291                      -0.00016                      -0.11764
                       0.92309                       0.00014                      -0.11706
                       0.92334                       0.00059                      -0.11620
                       0.92363                       0.00116                      -0.11512
                       0.92400                       0.00188                      -0.11373
                       0.92446                       0.00283                      -0.11193
                       0.92502                       0.00405                      -0.10959
                       0.92569                       0.00562                      -0.10659
                       0.92643                       0.00750                      -0.10300
                       0.92719                       0.00962                      -0.09893
                       0.92792                       0.01185                      -0.09466
                       0.92856                       0.01396                      -0.09062
                       0.92895                       0.01536                      -0.08794
                       0.92913                       0.01605                      -0.08661
                       0.92921                       0.01637                      -0.08600
                       0.92921                       0.01637                      -0.08600
        </DataArray>
        <DataArray type="Float32" Name="TranslationalAcceleration" NumberOfComponents="3" format="ascii">
                      -1.34478                       1.42564                      -0.42710
                      -1.40862                       2.51293                      -0.89271
                      -1.53368                       4.71530                      -1.76037
                      -1.67463                       6.91903                      -2.63046
                      -1.88468                       9.66018                      -3.76525
                      -2.21273                      12.85224                      -5.34386
                      -2.62612                      15.92753                      -7.14634
                      -3.09920                      18.93127                      -9.08269
                      -3.59701                      21.85983                     -11.16037
                      -4.06123                      24.71372                     -13.38489
                      -4.43123                      27.50413                     -15.74498
                      -4.61362                      30.22951                     -18.26393
                      -4.51736                      32.90148                     -20.94644
                      -4.06495                      35.53661                     -23.79220
                      -3.21248                      38.15450                     -26.79203
                      -2.21092                      40.33503                     -29.39063
                      -1.23980                      42.07756                     -31.52575
                      -0.18085                      43.78321                     -33.71606
                       0.36207                      44.66573                     -34.78764
        </DataArray>
        <DataArray type="Float32" Name="OrientationX" NumberOfComponents="3" format="ascii">
                       0.94092                      -0.14338                      -0.30677
                       0.94091                      -0.14298                      -0.30698
                       0.94089                      -0.14184                      -0.30757
                       0.94086                      -0.14028                      -0.30838
                       0.94081                      -0.13770                      -0.30971
                       0.95102                      -0.11976                      -0.28499
                       0.95771                      -0.10483                      -0.26797
                       0.96305                      -0.09016                      -0.25378
                       0.96819                      -0.07380                      -0.23909
                       0.97289                      -0.05580                      -0.22443
                       0.97670                      -0.03676                      -0.21144
                       0.97984                      -0.01656                      -0.19910
                       0.98202                       0.00359                      -0.18875
                       0.98301                       0.02173                      -0.18225
                       0.98376                       0.03859                      -0.17532
                       0.98444                       0.05040                      -0.16836
                       0.98510                       0.05718                      -0.16218
                       0.98553                       0.06008                      -0.15851
                       0.98559                       0.05964                      -0.15829
        </DataArray>
        <DataArray type="Float32" Name="OrientationY" NumberOfComponents="3" format="ascii">
                       0.33829                       0.43813                       0.83283
                       0.33829                       0.43809                       0.83285
                       0.33830                       0.43800                       0.83290
                       0.33830                       0.43788                       0.83296
                       0.33830                       0.43770                       0.83305
                       0.30813                       0.44157                       0.84266
                       0.28618                       0.44390                       0.84915
                       0.26690                       0.44560                       0.85452
                       0.24643                       0.44709                       0.85988
                       0.22526                       0.44826                       0.86506
                       0.20516                       0.44901                       0.86965
                       0.18518                       0.44937                       0.87394
                       0.16704                       0.44931                       0.87762
                       0.15328                       0.44898                       0.88030
                       0.13974                       0.44843                       0.88283
                       0.12840                       0.44784                       0.88485
                       0.11995                       0.44732                       0.88629
                       0.11542                       0.44703                       0.88704
                       0.11542                       0.44703                       0.88704
        </DataArray>
        <DataArray type="Float32" Name="OrientationZ" NumberOfComponents="3" format="ascii">
                       0.01499                      -0.88740                       0.46075
                       0.01541                      -0.88749                       0.46058
                       0.01658                      -0.88772                       0.46009
                       0.01818                      -0.88802                       0.45944
                       0.02085                      -0.88851                       0.45838
                       0.02492                      -0.88920                       0.45685
                       0.02994                      -0.88993                       0.45512
                       0.03604                      -0.89068                       0.45320
                       0.04344                      -0.89144                       0.45105
                       0.05233                      -0.89216                       0.44868
                       0.06297                      -0.89277                       0.44609
                       0.07500                      -0.89319                       0.44338
                       0.08796                      -0.89337                       0.44064
                       0.10096                      -0.89328                       0.43802
                       0.11268                      -0.89298                       0.43576
                       0.12000                      -0.89269                       0.43439
                       0.12322                      -0.89254                       0.43380
                       0.12415                      -0.89250                       0.43363
                       0.12366                      -0.89253                       0.43370
        </DataArray>
      </PointData>
      <Lines>
        <DataArray type="Int32" Name="connectivity" format="ascii">
      0      1
      1      2
      2      3
      3      4
      4      5
      5      6
      6      7
      7      8
      8      9
      9     10
     10     11
     11     12
     12     13
     13     14
     14     15
     15     16
     16     17
     17     18
        </DataArray>
        <DataArray type="Int32" Name="offsets" format="ascii">
      2
      4
      6
      8
     10
     12
     14
     16
     18
     20
     22
     24
     26
     28
     30
     32
     34
     36
        </DataArray>
      </Lines>
    </Piece>
  </PolyData>
</VTKFile>
