<?xml version="1.0"?>
<VTKFile type="PolyData" version="0.1" byte_order="LittleEndian">
  <PolyData>
    <Piece NumberOfPoints="     19" NumberOfVerts="  0" NumberOfLines="     18"
           NumberOfStrips="  0" NumberOfPolys="      0">
      <Points>
        <DataArray type="Float32" NumberOfComponents="3" format="ascii">
                       2.56134                       1.11134                      89.16620
                       2.39808                       2.14651                      88.28889
                       2.05887                       4.27794                      86.60845
                       1.71695                       6.43840                      84.96238
                       1.29350                       9.15668                      82.92430
                       0.83888                      12.32698                      80.36141
                       0.41549                      15.41319                      77.69469
                       0.01292                      18.49805                      75.02321
                      -0.36080                      21.58070                      72.34502
                      -0.69896                      24.66258                      69.66132
                      -0.99924                      27.74602                      66.97502
                      -1.24847                      30.82983                      64.28402
                      -1.43963                      33.91327                      61.58792
                      -1.56891                      36.99533                      58.88664
                      -1.63563                      40.07502                      56.18042
                      -1.65083                      42.63930                      53.92213
                      -1.64346                      44.68417                      52.10806
                      -1.63603                      46.69270                      50.25222
                      -1.62903                      47.72416                      49.35571
        </DataArray>
      </Points>
      <PointData>
        <DataArray type="Float32" Name="Force" NumberOfComponents="3" format="ascii">
                      -0.02948                      -0.21851                      -0.25105
                      66.26125                      -6.51253                     -19.90000
                      84.22012                     -25.56038                     -45.41021
                      74.24751                     -39.51680                     -59.75366
                     834.69825                     253.10485                     149.93460
                    1064.66233                     284.05115                     152.48580
                    1243.14630                     279.70534                     126.78701
                    1589.54029                     304.04055                     114.53219
                    1734.33488                     276.31359                      80.70908
                    1986.18139                     262.18633                      58.14256
                    2418.62601                     253.47238                      37.66171
                    2748.89452                     218.90793                      19.70198
                    3188.64944                     188.37480                      19.87489
                    3487.71654                     129.05457                      14.46960
                    3768.22741                      63.36678                       9.29829
                    3949.59045                       7.50915                      -3.05554
                    3898.34426                     -32.29955                     -22.97267
                    2881.75955                     -39.74519                     -27.82713
                    1347.24457                     -94.77254                    -101.04006
        </DataArray>
        <DataArray type="Float32" Name="Moment" NumberOfComponents="3" format="ascii">
                       0.00000                       0.00000                       0.00000
                       0.00000                       0.00000                       0.00000
                       0.00000                       0.00000                       0.00000
                       0.00000                       0.00000                       0.00000
                      35.98582                    -239.82259                     204.50888
                      45.75847                    -316.50931                     270.10722
                      57.73347                    -418.71917                     357.66157
                      75.15000                    -579.59542                     495.63851
                      91.25860                    -763.86947                     654.13386
                      92.98853                    -869.91489                     746.22980
                      83.91655                    -917.98069                     789.13043
                      72.26694                    -983.77832                     847.76708
                      48.89284                    -910.63496                     786.85019
                      30.77147                    -921.08284                     798.07197
                      13.31534                    -907.49485                     788.29545
                       2.25135                    -874.52629                     760.89988
                      -2.47223                    -783.78478                     682.47565
                      -2.13513                    -396.76853                     345.58747
                      -1.70640                    -339.56045                     295.74474
        </DataArray>
        <DataArray type="Float32" Name="TranslationalVelocity" NumberOfComponents="3" format="ascii">
                      -0.38134                       0.87575                       1.01359
                      -0.25657                       1.70673                       1.97086
                      -0.00066                       3.30263                       3.94365
                       0.26010                       4.87118                       5.94909
                       0.59222                       6.82076                       8.48286
                       0.99080                       9.27676                      11.45492
                       1.39359                      11.84397                      14.36715
                       1.80980                      14.43128                      17.29700
                       2.23800                      17.03896                      20.24326
                       2.67419                      19.66375                      23.20656
                       3.11231                      22.29960                      26.18655
                       3.54450                      24.94685                      29.18310
                       3.96108                      27.60372                      32.19454
                       4.35259                      30.26892                      35.21858
                       4.71174                      32.94136                      38.25238
                       4.98487                      35.17319                      40.78560
                       5.18583                      36.96729                      42.80920
                       5.37125                      38.80425                      44.79830
                       5.46509                      39.69151                      45.81990
        </DataArray>
        <DataArray type="Float32" Name="RotationalVelocity" NumberOfComponents="3" format="ascii">
                       0.92587                      -0.01287                      -0.10929
                       0.92680                      -0.01295                      -0.10956
                       0.92908                      -0.01317                      -0.11024
                       0.93189                      -0.01349                      -0.11115
                       0.93619                      -0.01413                      -0.11269
                       0.94205                      -0.01530                      -0.11515
                       0.94819                      -0.01679                      -0.11803
                       0.95429                      -0.01829                      -0.12093
                       0.96011                      -0.01943                      -0.12336
                       0.96555                      -0.01983                      -0.12483
                       0.97050                      -0.01899                      -0.12477
                       0.97505                      -0.01679                      -0.12302
                       0.97921                      -0.01317                      -0.11955
                       0.98295                      -0.00835                      -0.11458
                       0.98617                      -0.00280                      -0.10866
                       0.98825                       0.00176                      -0.10370
                       0.98934                       0.00483                      -0.10029
                       0.98996                       0.00729                      -0.09753
                       0.99007                       0.00822                      -0.09646
        </DataArray>
        <DataArray type="Float32" Name="TranslationalAcceleration" NumberOfComponents="3" format="ascii">
                       0.91127                      -1.08458                       0.76237
                       0.99292                      -1.96925                       1.55267
                       1.14530                      -3.79887                       3.07141
                       1.28951                      -5.67289                       4.55951
                       1.45914                      -8.06467                       6.39890
                       1.66260                     -10.90818                       8.69937
                       1.85946                     -13.74448                      11.08947
                       2.03522                     -16.64877                      13.48474
                       2.19598                     -19.61772                      15.88599
                       2.35426                     -22.64733                      18.29024
                       2.52539                     -25.72805                      20.69275
                       2.73276                     -28.85820                      23.09197
                       3.00165                     -32.03113                      25.48623
                       3.35550                     -35.24086                      27.87542
                       3.81050                     -38.48169                      30.26114
                       4.26705                     -41.20108                      32.24868
                       4.68091                     -43.38144                      33.84539
                       5.12996                     -45.53337                      35.48624
                       5.35446                     -46.63388                      36.27354
        </DataArray>
        <DataArray type="Float32" Name="OrientationX" NumberOfComponents="3" format="ascii">
                       0.98266                       0.18264                       0.03199
                       0.98271                       0.18232                       0.03226
                       0.98285                       0.18143                       0.03302
                       0.98304                       0.18020                       0.03407
                       0.98335                       0.17816                       0.03580
                       0.98783                       0.15489                       0.01406
                       0.99065                       0.13644                      -0.00028
                       0.99284                       0.11887                      -0.01161
                       0.99479                       0.09935                      -0.02279
                       0.99640                       0.07799                      -0.03322
                       0.99760                       0.05566                      -0.04127
                       0.99834                       0.03197                      -0.04791
                       0.99860                       0.00847                      -0.05215
                       0.99853                      -0.01239                      -0.05272
                       0.99803                      -0.03218                      -0.05385
                       0.99731                      -0.04667                      -0.05656
                       0.99664                      -0.05556                      -0.06019
                       0.99625                      -0.05984                      -0.06255
                       0.99625                      -0.05964                      -0.06272
        </DataArray>
        <DataArray type="Float32" Name="OrientationY" NumberOfComponents="3" format="ascii">
                       0.14176                      -0.62881                      -0.76453
                       0.14178                      -0.62892                      -0.76443
                       0.14182                      -0.62920                      -0.76419
                       0.14187                      -0.62955                      -0.76390
                       0.14195                      -0.63007                      -0.76345
                       0.11061                      -0.63610                      -0.76364
                       0.08796                      -0.64020                      -0.76316
                       0.06814                      -0.64352                      -0.76239
                       0.04713                      -0.64658                      -0.76139
                       0.02547                      -0.64921                      -0.76018
                       0.00494                      -0.65124                      -0.75885
                      -0.01545                      -0.65273                      -0.75743
                      -0.03394                      -0.65363                      -0.75606
                      -0.04797                      -0.65404                      -0.75494
                      -0.06177                      -0.65408                      -0.75390
                      -0.07330                      -0.65381                      -0.75310
                      -0.08188                      -0.65345                      -0.75252
                      -0.08646                      -0.65322                      -0.75222
                      -0.08646                      -0.65322                      -0.75222
        </DataArray>
        <DataArray type="Float32" Name="OrientationZ" NumberOfComponents="3" format="ascii">
                      -0.11951                       0.75581                      -0.64380
                      -0.11909                       0.75579                      -0.64390
                      -0.11787                       0.75577                      -0.64414
                      -0.11621                       0.75578                      -0.64443
                      -0.11346                       0.75582                      -0.64487
                      -0.10934                       0.75590                      -0.64549
                      -0.10430                       0.75599                      -0.64621
                      -0.09809                       0.75614                      -0.64702
                      -0.09039                       0.75635                      -0.64789
                      -0.08086                       0.75660                      -0.64886
                      -0.06911                       0.75683                      -0.64995
                      -0.05549                       0.75691                      -0.65115
                      -0.04049                       0.75677                      -0.65243
                      -0.02513                       0.75636                      -0.65367
                      -0.01096                       0.75574                      -0.65477
                      -0.00183                       0.75521                      -0.65548
                       0.00248                       0.75492                      -0.65581
                       0.00416                       0.75480                      -0.65594
                       0.00389                       0.75482                      -0.65592
        </DataArray>
      </PointData>
      <Lines>
        <DataArray type="Int32" Name="connectivity" format="ascii">
      0      1
      1      2
      2      3
      3      4
      4      5
      5      6
      6      7
      7      8
      8      9
      9     10
     10     11
     11     12
     12     13
     13     14
     14     15
     15     16
     16     17
     17     18
        </DataArray>
        <DataArray type="Int32" Name="offsets" format="ascii">
      2
      4
      6
      8
     10
     12
     14
     16
     18
     20
     22
     24
     26
     28
     30
     32
     34
     36
        </DataArray>
      </Lines>
    </Piece>
  </PolyData>
</VTKFile>
