<?xml version="1.0"?>
<VTKFile type="PolyData" version="0.1" byte_order="LittleEndian">
  <PolyData>
    <Piece NumberOfPoints="     19" NumberOfVerts="  0" NumberOfLines="     18"
           NumberOfStrips="  0" NumberOfPolys="      0">
      <Points>
        <DataArray type="Float32" NumberOfComponents="3" format="ascii">
                       3.22407                      -1.29946                      90.94885
                       3.25625                      -2.45912                      91.67137
                       3.28918                      -4.82796                      93.03858
                       3.31028                      -7.22098                      94.36762
                       3.33484                     -10.22788                      96.00396
                       3.44532                     -13.76489                      98.07699
                       3.61184                     -17.23741                     100.25017
                       3.79876                     -20.71211                     102.41822
                       4.01384                     -24.18824                     104.58145
                       4.26221                     -27.66671                     106.73738
                       4.54441                     -31.14883                     108.88325
                       4.87172                     -34.63362                     111.01841
                       5.24917                     -38.12015                     113.14247
                       5.67894                     -41.60735                     115.25553
                       6.16079                     -45.09413                     117.35811
                       6.59525                     -47.99901                     119.10384
                       6.95957                     -50.31817                     120.50409
                       7.33253                     -52.60879                     121.95049
                       7.51379                     -53.77567                     122.63839
        </DataArray>
      </Points>
      <PointData>
        <DataArray type="Float32" Name="Force" NumberOfComponents="3" format="ascii">
                       0.60154                       2.96532                       4.70425
                      78.37013                      14.99672                      20.32489
                     101.34769                      34.79075                      50.64471
                      92.73747                      45.06639                      67.20815
                     676.34077                    -172.18528                    -313.23748
                     877.59749                    -190.53918                    -360.98302
                    1001.86083                    -176.64082                    -356.58868
                    1281.38926                    -187.02731                    -409.11182
                    1381.35271                    -160.05489                    -394.37733
                    1591.09207                    -147.65199                    -423.01303
                    1967.67396                    -135.51568                    -488.39347
                    2249.20265                    -107.41024                    -534.91026
                    2679.31695                     -87.28956                    -640.09754
                    2956.07587                     -44.02367                    -697.86089
                    3223.82930                       3.35109                    -753.16040
                    3388.88038                      43.29611                    -776.80971
                    3344.80213                      69.62220                    -744.72724
                    2460.60275                      61.76780                    -535.47660
                    1256.74717                      80.26742                    -192.50047
        </DataArray>
        <DataArray type="Float32" Name="Moment" NumberOfComponents="3" format="ascii">
                       0.00000                       0.00000                       0.00000
                       0.00000                       0.00000                       0.00000
                       0.00000                       0.00000                       0.00000
                       0.00000                       0.00000                       0.00000
                      -6.12557                     173.70349                    -108.71035
                     -15.43146                     385.20842                    -240.84208
                     -23.16469                     504.09268                    -314.79167
                     -37.22980                     700.77137                    -436.96915
                     -58.68790                     949.04286                    -590.72269
                     -75.96547                    1050.28625                    -652.33194
                     -94.46689                    1112.78449                    -689.36177
                    -115.57749                    1165.78950                    -720.07393
                    -114.05589                     995.99227                    -613.23717
                    -128.91307                     991.68684                    -608.62344
                    -138.70809                     963.24161                    -589.44055
                    -140.24665                     917.91742                    -560.67380
                    -127.96524                     816.61571                    -498.38892
                     -65.07827                     412.18636                    -251.49916
                     -57.16471                     363.31939                    -221.70789
        </DataArray>
        <DataArray type="Float32" Name="TranslationalVelocity" NumberOfComponents="3" format="ascii">
                      -0.15901                      -0.78925                      -1.15910
                      -0.29610                      -1.46023                      -2.22994
                      -0.57544                      -2.72637                      -4.41681
                      -0.85537                      -3.95509                      -6.62436
                      -1.20277                      -5.46648                      -9.39531
                      -1.60352                      -7.38813                     -12.65054
                      -1.98676                      -9.40499                     -15.84162
                      -2.36019                     -11.41563                     -19.02966
                      -2.72492                     -13.42095                     -22.21373
                      -3.08381                     -15.41903                     -25.39436
                      -3.44096                     -17.40774                     -28.57294
                      -3.80064                     -19.38743                     -31.74749
                      -4.16823                     -21.35866                     -34.91671
                      -4.54879                     -23.32250                     -38.07931
                      -4.94611                     -25.28038                     -41.23442
                      -5.29072                     -26.90890                     -43.85814
                      -5.57469                     -28.21668                     -45.95017
                      -5.86135                     -29.56725                     -48.01505
                      -6.00811                     -30.21006                     -49.06680
        </DataArray>
        <DataArray type="Float32" Name="RotationalVelocity" NumberOfComponents="3" format="ascii">
                       0.92364                      -0.00013                      -0.11847
                       0.92340                       0.00002                      -0.11822
                       0.92282                       0.00039                      -0.11760
                       0.92211                       0.00088                      -0.11679
                       0.92108                       0.00167                      -0.11549
                       0.91970                       0.00283                      -0.11357
                       0.91822                       0.00409                      -0.11149
                       0.91665                       0.00529                      -0.10950
                       0.91500                       0.00626                      -0.10788
                       0.91325                       0.00683                      -0.10689
                       0.91139                       0.00677                      -0.10690
                       0.90946                       0.00605                      -0.10797
                       0.90753                       0.00466                      -0.11010
                       0.90568                       0.00270                      -0.11314
                       0.90405                       0.00039                      -0.11676
                       0.90298                      -0.00153                      -0.11977
                       0.90241                      -0.00283                      -0.12182
                       0.90207                      -0.00386                      -0.12345
                       0.90200                      -0.00425                      -0.12407
        </DataArray>
        <DataArray type="Float32" Name="TranslationalAcceleration" NumberOfComponents="3" format="ascii">
                      -1.46280                       1.03413                      -0.85480
                      -1.56983                       2.02189                      -1.50086
                      -1.77290                       4.03976                      -2.72781
                      -1.97352                       6.07180                      -3.92910
                      -2.22628                       8.61263                      -5.42300
                      -2.55770                      11.57423                      -7.33122
                      -2.91493                      14.44719                      -9.34758
                      -3.27123                      17.29042                     -11.38590
                      -3.60281                      20.10121                     -13.45172
                      -3.87117                      22.87919                     -15.55025
                      -4.04081                      25.62946                     -17.68261
                      -4.04787                      28.35044                     -19.86236
                      -3.83506                      31.04788                     -22.09870
                      -3.35547                      33.73068                     -24.39922
                      -2.58634                      36.40969                     -26.76733
                      -1.74016                      38.64556                     -28.78794
                      -0.94728                      40.43425                     -30.43551
                      -0.10328                      42.19496                     -32.12939
                       0.33071                      43.09791                     -32.95130
        </DataArray>
        <DataArray type="Float32" Name="OrientationX" NumberOfComponents="3" format="ascii">
                       0.94246                      -0.15794                      -0.29464
                       0.94245                      -0.15757                      -0.29488
                       0.94242                      -0.15651                      -0.29554
                       0.94238                      -0.15507                      -0.29644
                       0.94230                      -0.15266                      -0.29794
                       0.95232                      -0.13280                      -0.27469
                       0.95886                      -0.11659                      -0.25885
                       0.96405                      -0.10091                      -0.24581
                       0.96903                      -0.08350                      -0.23240
                       0.97356                      -0.06446                      -0.21915
                       0.97719                      -0.04452                      -0.20767
                       0.98013                      -0.02345                      -0.19695
                       0.98213                      -0.00257                      -0.18821
                       0.98295                       0.01602                      -0.18318
                       0.98353                       0.03339                      -0.17762
                       0.98409                       0.04577                      -0.17166
                       0.98469                       0.05306                      -0.16607
                       0.98507                       0.05631                      -0.16267
                       0.98513                       0.05591                      -0.16243
        </DataArray>
        <DataArray type="Float32" Name="OrientationY" NumberOfComponents="3" format="ascii">
                       0.33344                       0.50743                       0.79457
                       0.33344                       0.50737                       0.79460
                       0.33345                       0.50724                       0.79468
                       0.33345                       0.50708                       0.79478
                       0.33346                       0.50685                       0.79493
                       0.30325                       0.51108                       0.80426
                       0.28128                       0.51360                       0.81061
                       0.26199                       0.51544                       0.81589
                       0.24150                       0.51706                       0.82117
                       0.22032                       0.51835                       0.82630
                       0.20023                       0.51920                       0.83087
                       0.18025                       0.51964                       0.83516
                       0.16211                       0.51964                       0.83886
                       0.14837                       0.51934                       0.84159
                       0.13484                       0.51883                       0.84418
                       0.12351                       0.51826                       0.84626
                       0.11507                       0.51778                       0.84774
                       0.11054                       0.51750                       0.84852
                       0.11054                       0.51750                       0.84852
        </DataArray>
        <DataArray type="Float32" Name="OrientationZ" NumberOfComponents="3" format="ascii">
                       0.02401                      -0.84710                       0.53090
                       0.02441                      -0.84720                       0.53072
                       0.02554                      -0.84747                       0.53023
                       0.02708                      -0.84783                       0.52957
                       0.02965                      -0.84841                       0.52851
                       0.03358                      -0.84921                       0.52698
                       0.03844                      -0.85007                       0.52527
                       0.04437                      -0.85096                       0.52335
                       0.05160                      -0.85186                       0.52121
                       0.06033                      -0.85273                       0.51885
                       0.07083                      -0.85349                       0.51627
                       0.08276                      -0.85407                       0.51354
                       0.09564                      -0.85438                       0.51077
                       0.10862                      -0.85442                       0.50811
                       0.12035                      -0.85423                       0.50578
                       0.12770                      -0.85400                       0.50436
                       0.13097                      -0.85387                       0.50374
                       0.13196                      -0.85383                       0.50355
                       0.13150                      -0.85386                       0.50362
        </DataArray>
      </PointData>
      <Lines>
        <DataArray type="Int32" Name="connectivity" format="ascii">
      0      1
      1      2
      2      3
      3      4
      4      5
      5      6
      6      7
      7      8
      8      9
      9     10
     10     11
     11     12
     12     13
     13     14
     14     15
     15     16
     16     17
     17     18
        </DataArray>
        <DataArray type="Int32" Name="offsets" format="ascii">
      2
      4
      6
      8
     10
     12
     14
     16
     18
     20
     22
     24
     26
     28
     30
     32
     34
     36
        </DataArray>
      </Lines>
    </Piece>
  </PolyData>
</VTKFile>
