<?xml version="1.0"?>
<VTKFile type="PolyData" version="0.1" byte_order="LittleEndian">
  <PolyData>
    <Piece NumberOfPoints="     19" NumberOfVerts="  0" NumberOfLines="     18"
           NumberOfStrips="  0" NumberOfPolys="      0">
      <Points>
        <DataArray type="Float32" NumberOfComponents="3" format="ascii">
                       3.22913                       1.98066                      92.77265
                       3.43395                       4.17964                      95.63794
                       3.64717                       6.37972                      98.50178
                       3.87194                       8.58098                     101.36381
                       4.11086                      10.78353                     104.22371
                       4.36663                      12.98738                     107.08114
                       4.64252                      15.19238                     109.93580
                       4.94267                      17.39823                     112.78735
                       5.27201                      19.60453                     115.63531
                       5.63603                      21.81090                     118.47898
                       6.04032                      24.01693                     121.31745
                       6.48984                      26.22229                     124.14962
                       6.98800                      28.42668                     126.97441
                       7.53550                      30.62987                     129.79101
                       8.12895                      32.83179                     132.59935
                       8.75923                      35.03263                     135.40057
                       9.40973                      37.23291                     138.19768
                       9.73742                      38.33298                     139.59571
                       3.12836                       0.88142                      91.33970
        </DataArray>
      </Points>
      <PointData>
        <DataArray type="Float32" Name="TranslationalVelocity" NumberOfComponents="3" format="ascii">
                      -0.37720                      -2.38927                       1.82400
                      -0.15944                      -5.06213                       3.85974
                       0.06571                      -7.74518                       5.90416
                       0.30148                     -10.44127                       7.95927
                       0.55096                     -13.15211                      10.02616
                       0.81673                     -15.87847                      12.10511
                       1.10048                     -18.62057                      14.19571
                       1.40286                     -21.37826                      16.29708
                       1.72347                     -24.15102                      18.40801
                       2.06087                     -26.93799                      20.52716
                       2.41261                     -29.73800                      22.65317
                       2.77537                     -32.54950                      24.78484
                       3.14517                     -35.37063                      26.92120
                       3.51756                     -38.19927                      29.06150
                       3.88796                     -41.03313                      31.20529
                       4.25196                     -43.86994                      33.35236
                       4.60576                     -46.70770                      35.50251
                       4.77968                     -48.12661                      36.57832
                      -0.48465                      -1.05496                       0.80799
        </DataArray>
        <DataArray type="Float32" Name="RotationalVelocity" NumberOfComponents="3" format="ascii">
                       0.92303                      -0.01377                      -0.11570
                       0.92604                      -0.01264                      -0.11677
                       0.93019                      -0.01083                      -0.11845
                       0.93507                      -0.00834                      -0.12070
                       0.94029                      -0.00522                      -0.12345
                       0.94557                      -0.00161                      -0.12659
                       0.95075                       0.00226                      -0.12992
                       0.95567                       0.00619                      -0.13328
                       0.96026                       0.00994                      -0.13647
                       0.96446                       0.01328                      -0.13932
                       0.96825                       0.01600                      -0.14168
                       0.97164                       0.01793                      -0.14339
                       0.97464                       0.01894                      -0.14437
                       0.97721                       0.01895                      -0.14456
                       0.97929                       0.01795                      -0.14394
                       0.98077                       0.01604                      -0.14258
                       0.98146                       0.01339                      -0.14059
                       0.98158                       0.01190                      -0.13946
                       0.92185                      -0.01416                      -0.11532
        </DataArray>
        <DataArray type="Float32" Name="TranslationalAcceleration" NumberOfComponents="3" format="ascii">
                      -1.30088                      -1.65281                      -2.49442
                      -1.82195                      -3.61351                      -4.90869
                      -2.32643                      -5.62151                      -7.31941
                      -2.80616                      -7.68941                      -9.72622
                      -3.25313                      -9.82491                     -12.12940
                      -3.66172                     -12.03134                     -14.52976
                      -4.03076                     -14.30863                     -16.92842
                      -4.36458                     -16.65410                     -19.32657
                      -4.67303                     -19.06311                     -21.72502
                      -4.97107                     -21.52966                     -24.12378
                      -5.27779                     -24.04694                     -26.52161
                      -5.61470                     -26.60770                     -28.91573
                      -6.00346                     -29.20442                     -31.30192
                      -6.46310                     -31.82940                     -33.67508
                      -7.00654                     -34.47492                     -36.03041
                      -7.63666                     -37.13350                     -38.36532
                      -8.34189                     -39.79784                     -40.68201
                      -8.71078                     -41.13054                     -41.83646
                      -1.03716                      -0.68239                      -1.28648
        </DataArray>
        <DataArray type="Float32" Name="RotationalAcceleration" NumberOfComponents="3" format="ascii">
                       0.01457                      -0.06089                       0.00726
                       0.02334                      -0.05793                       0.00438
                       0.03540                      -0.05318                      -0.00010
                       0.04958                      -0.04650                      -0.00621
                       0.06477                      -0.03815                      -0.01367
                       0.08009                      -0.02894                      -0.02180
                       0.09501                      -0.02005                      -0.02965
                       0.10911                      -0.01272                      -0.03625
                       0.12218                      -0.00816                      -0.04066
                       0.13416                      -0.00745                      -0.04203
                       0.14514                      -0.01137                      -0.03979
                       0.15522                      -0.02027                      -0.03367
                       0.16446                      -0.03392                      -0.02384
                       0.17276                      -0.05141                      -0.01101
                       0.17984                      -0.07098                       0.00351
                       0.18516                      -0.08991                       0.01765
                       0.18776                      -0.10441                       0.02858
                       0.18822                      -0.11000                       0.03284
                       0.01115                      -0.06197                       0.00833
        </DataArray>
        <DataArray type="Float32" Name="OrientationX" NumberOfComponents="3" format="ascii">
                       0.98623                      -0.15723                       0.05126
                       0.98613                      -0.15828                       0.04989
                       0.98597                      -0.15993                       0.04774
                       0.98774                      -0.15166                       0.03689
                       0.99141                      -0.12999                       0.01466
                       0.99287                      -0.11917                      -0.00010
                       0.99394                      -0.10879                      -0.01584
                       0.99460                      -0.09836                      -0.03322
                       0.99471                      -0.08862                      -0.05192
                       0.99420                      -0.08048                      -0.07136
                       0.99306                      -0.07346                      -0.09181
                       0.99131                      -0.06795                      -0.11260
                       0.98911                      -0.06545                      -0.13181
                       0.98664                      -0.06401                      -0.14980
                       0.98412                      -0.06157                      -0.16648
                       0.98193                      -0.05711                      -0.18041
                       0.98090                      -0.05244                      -0.18733
                       0.98079                      -0.05025                      -0.18850
                       0.98626                      -0.15688                       0.05171
        </DataArray>
        <DataArray type="Float32" Name="OrientationY" NumberOfComponents="3" format="ascii">
                       0.15571                       0.77844                      -0.60810
                       0.15567                       0.77801                      -0.60866
                       0.15561                       0.77742                      -0.60943
                       0.14240                       0.77881                      -0.61088
                       0.11165                       0.78243                      -0.61264
                       0.09402                       0.78388                      -0.61376
                       0.07615                       0.78517                      -0.61458
                       0.05723                       0.78640                      -0.61506
                       0.03805                       0.78750                      -0.61514
                       0.01969                       0.78841                      -0.61484
                       0.00160                       0.78920                      -0.61413
                      -0.01550                       0.78987                      -0.61307
                      -0.02926                       0.79032                      -0.61200
                      -0.04143                       0.79071                      -0.61079
                      -0.05357                       0.79117                      -0.60925
                      -0.06555                       0.79169                      -0.60740
                      -0.07339                       0.79206                      -0.60602
                      -0.07580                       0.79219                      -0.60555
                       0.15572                       0.77861                      -0.60788
        </DataArray>
        <DataArray type="Float32" Name="OrientationZ" NumberOfComponents="3" format="ascii">
                       0.05571                       0.60771                       0.79220
                       0.05753                       0.60799                       0.79186
                       0.06035                       0.60831                       0.79140
                       0.06392                       0.60865                       0.79086
                       0.06817                       0.60902                       0.79022
                       0.07322                       0.60937                       0.78950
                       0.07929                       0.60965                       0.78869
                       0.08662                       0.60984                       0.78778
                       0.09540                       0.60991                       0.78671
                       0.10574                       0.60987                       0.78542
                       0.11757                       0.60972                       0.78385
                       0.13060                       0.60949                       0.78196
                       0.14423                       0.60919                       0.77980
                       0.15754                       0.60884                       0.77750
                       0.16922                       0.60849                       0.77531
                       0.17752                       0.60825                       0.77364
                       0.18016                       0.60819                       0.77308
                       0.17975                       0.60821                       0.77316
                       0.05510                       0.60758                       0.79234
        </DataArray>
      </PointData>
      <Lines>
        <DataArray type="Int32" Name="connectivity" format="ascii">
      0      1
      1      2
      2      3
      3      4
      4      5
      5      6
      6      7
      7      8
      8      9
      9     10
     10     11
     11     12
     12     13
     13     14
     14     15
     15     16
     16     17
     18      0
        </DataArray>
        <DataArray type="Int32" Name="offsets" format="ascii">
      2
      4
      6
      8
     10
     12
     14
     16
     18
     20
     22
     24
     26
     28
     30
     32
     34
     36
        </DataArray>
      </Lines>
    </Piece>
  </PolyData>
</VTKFile>
