<?xml version="1.0"?>
<VTKFile type="PolyData" version="0.1" byte_order="LittleEndian">
  <PolyData>
    <Piece NumberOfPoints="     19" NumberOfVerts="  0" NumberOfLines="     18"
           NumberOfStrips="  0" NumberOfPolys="      0">
      <Points>
        <DataArray type="Float32" NumberOfComponents="3" format="ascii">
                       2.77243                       0.00856                      91.62246
                       2.86956                       0.04003                      92.98535
                       3.04289                       0.00839                      95.71499
                       3.20985                      -0.06784                      98.44636
                       3.42070                      -0.18974                     101.86144
                       3.74062                      -0.19282                     105.95090
                       4.10406                      -0.06577                     110.03344
                       4.48988                       0.06376                     114.11384
                       4.90691                       0.19702                     118.19103
                       5.36259                       0.33148                     122.26398
                       5.85954                       0.46316                     126.33211
                       6.41262                       0.59317                     130.39299
                       7.02995                       0.72164                     134.44460
                       7.71618                       0.84900                     138.48510
                       8.47212                       0.97569                     142.51315
                       9.14732                       1.08121                     145.86112
                       9.71028                       1.17367                     148.53453
                      10.27922                       1.32124                     151.20532
                      10.56354                       1.35335                     152.54169
        </DataArray>
      </Points>
      <PointData>
        <DataArray type="Float32" Name="Force" NumberOfComponents="3" format="ascii">
                      -0.00624                       2.19524                      -0.05568
                      78.77060                      25.74780                      -6.31902
                      96.84536                      61.40999                      -8.65599
                      85.31321                      80.12097                      -8.44226
                     842.67147                    -333.11059                     -57.09029
                    1188.16700                    -482.19954                     -85.38237
                    1362.71550                    -455.82795                    -107.74350
                    1727.09630                    -488.30756                    -150.38019
                    1895.08737                    -460.30618                    -182.84714
                    2192.10154                    -466.70092                    -236.21327
                    2680.75827                    -503.03675                    -325.76068
                    3090.60944                    -522.98909                    -424.59746
                    3572.68524                    -567.93113                    -552.95895
                    3920.34361                    -583.15851                    -677.39457
                    4210.94777                    -586.89404                    -798.38246
                    4371.67112                    -567.00817                    -877.25262
                    4275.13696                    -509.64998                    -881.34991
                    3100.21350                    -338.24345                    -646.59607
                    1211.00933                      12.99571                    -256.07384
        </DataArray>
        <DataArray type="Float32" Name="Moment" NumberOfComponents="3" format="ascii">
                       0.00000                       0.00000                       0.00000
                       0.00000                       0.00000                       0.00000
                       0.00000                       0.00000                       0.00000
                       0.00000                       0.00000                       0.00000
                     -19.83399                      -6.51719                    -254.72974
                     -30.23656                      -9.41012                    -367.62307
                     -47.42227                     -13.86015                    -541.14835
                     -74.33736                     -20.20162                    -788.15682
                    -105.32003                     -26.30565                   -1025.34825
                    -131.74924                     -29.88744                   -1163.60617
                    -154.08541                     -31.37014                   -1219.56218
                    -182.30283                     -33.13917                   -1286.14858
                    -188.04980                     -30.55485                   -1183.61350
                    -206.13868                     -30.18531                   -1167.01794
                    -215.07175                     -28.84466                   -1113.15969
                    -213.86609                     -27.19354                   -1048.19665
                    -195.13228                     -24.20646                    -932.52453
                    -100.29787                     -12.31869                    -474.45091
                     -85.55909                     -10.51922                    -405.15488
        </DataArray>
        <DataArray type="Float32" Name="TranslationalVelocity" NumberOfComponents="3" format="ascii">
                      -0.33298                      -1.44636                       0.02339
                      -0.33998                      -2.72737                       0.05347
                      -0.36506                      -5.28937                       0.02544
                      -0.39788                      -7.84788                      -0.04367
                      -0.44795                     -11.03895                      -0.15368
                      -0.50413                     -14.85397                      -0.15058
                      -0.56268                     -18.65087                      -0.02542
                      -0.64005                     -22.43147                       0.10364
                      -0.73731                     -26.19618                       0.23824
                      -0.85445                     -29.94594                       0.37657
                      -0.98841                     -33.68323                       0.51515
                      -1.13801                     -37.40749                       0.65580
                      -1.29888                     -41.11944                       0.79885
                      -1.46565                     -44.81960                       0.94442
                      -1.63243                     -48.50858                       1.09214
                      -1.76747                     -51.57552                       1.21618
                      -1.86983                     -54.02513                       1.32247
                      -1.95989                     -56.47245                       1.47683
                      -2.00808                     -57.69693                       1.51645
        </DataArray>
        <DataArray type="Float32" Name="RotationalVelocity" NumberOfComponents="3" format="ascii">
                       0.93281                      -0.00728                      -0.10784
                       0.93224                      -0.00762                      -0.10779
                       0.93082                      -0.00857                      -0.10767
                       0.92905                      -0.00988                      -0.10751
                       0.92632                      -0.01211                      -0.10726
                       0.92254                      -0.01565                      -0.10690
                       0.91856                      -0.01995                      -0.10650
                       0.91459                      -0.02473                      -0.10610
                       0.91080                      -0.02965                      -0.10570
                       0.90731                      -0.03438                      -0.10533
                       0.90422                      -0.03849                      -0.10500
                       0.90152                      -0.04170                      -0.10473
                       0.89922                      -0.04376                      -0.10451
                       0.89732                      -0.04451                      -0.10436
                       0.89585                      -0.04388                      -0.10427
                       0.89500                      -0.04231                      -0.10425
                       0.89461                      -0.04047                      -0.10427
                       0.89445                      -0.03826                      -0.10431
                       0.89446                      -0.03704                      -0.10434
        </DataArray>
        <DataArray type="Float32" Name="TranslationalAcceleration" NumberOfComponents="3" format="ascii">
                       1.14288                       0.01465                      -1.14837
                       1.06011                      -0.04550                      -2.34583
                       0.89292                      -0.09597                      -4.74201
                       0.71600                      -0.15046                      -7.13495
                       0.47650                      -0.27253                     -10.12048
                       0.15674                      -0.66769                     -13.67484
                      -0.19891                      -1.32521                     -17.18050
                      -0.58502                      -2.13950                     -20.64753
                      -0.99636                      -3.11042                     -24.07603
                      -1.42520                      -4.23066                     -27.46862
                      -1.86192                      -5.47593                     -30.83226
                      -2.29807                      -6.85291                     -34.16734
                      -2.72339                      -8.35043                     -37.47773
                      -3.12892                      -9.95481                     -40.76725
                      -3.50849                     -11.64842                     -44.03975
                      -3.80413                     -13.11077                     -46.75699
                      -4.02774                     -14.31004                     -48.92271
                      -4.24411                     -15.56020                     -51.06314
                      -4.35052                     -16.15221                     -52.15112
        </DataArray>
        <DataArray type="Float32" Name="OrientationX" NumberOfComponents="3" format="ascii">
                       0.97133                      -0.22911                      -0.06350
                       0.97130                      -0.22912                      -0.06393
                       0.97121                      -0.22915                      -0.06517
                       0.97108                      -0.22920                      -0.06686
                       0.97087                      -0.22927                      -0.06968
                       0.97726                      -0.19822                      -0.07525
                       0.98106                      -0.17577                      -0.08142
                       0.98374                      -0.15613                      -0.08875
                       0.98596                      -0.13535                      -0.09781
                       0.98750                      -0.11395                      -0.10893
                       0.98803                      -0.09374                      -0.12250
                       0.98766                      -0.07371                      -0.13819
                       0.98629                      -0.05560                      -0.15536
                       0.98406                      -0.04196                      -0.17282
                       0.98157                      -0.02852                      -0.18896
                       0.97975                      -0.01722                      -0.19948
                       0.97881                      -0.00874                      -0.20460
                       0.97839                      -0.00419                      -0.20672
                       0.97843                      -0.00418                      -0.20652
        </DataArray>
        <DataArray type="Float32" Name="OrientationY" NumberOfComponents="3" format="ascii">
                       0.22684                       0.97307                      -0.04108
                       0.22683                       0.97306                      -0.04123
                       0.22680                       0.97305                      -0.04160
                       0.22676                       0.97304                      -0.04206
                       0.22671                       0.97302                      -0.04277
                       0.19555                       0.97982                      -0.04142
                       0.17294                       0.98409                      -0.04062
                       0.15311                       0.98740                      -0.03993
                       0.13211                       0.99047                      -0.03894
                       0.11046                       0.99317                      -0.03761
                       0.08995                       0.99529                      -0.03609
                       0.06961                       0.99699                      -0.03422
                       0.05120                       0.99817                      -0.03219
                       0.03724                       0.99884                      -0.03046
                       0.02357                       0.99932                      -0.02842
                       0.01218                       0.99958                      -0.02642
                       0.00374                       0.99969                      -0.02479
                      -0.00077                       0.99971                      -0.02388
                      -0.00077                       0.99971                      -0.02388
        </DataArray>
        <DataArray type="Float32" Name="OrientationZ" NumberOfComponents="3" format="ascii">
                       0.07120                       0.02549                       0.99714
                       0.07165                       0.02554                       0.99710
                       0.07295                       0.02563                       0.99701
                       0.07470                       0.02568                       0.99688
                       0.07760                       0.02573                       0.99665
                       0.08194                       0.02576                       0.99630
                       0.08727                       0.02577                       0.99585
                       0.09387                       0.02569                       0.99525
                       0.10215                       0.02547                       0.99444
                       0.11247                       0.02510                       0.99334
                       0.12531                       0.02464                       0.99181
                       0.14030                       0.02418                       0.98981
                       0.15686                       0.02380                       0.98733
                       0.17389                       0.02354                       0.98448
                       0.18964                       0.02344                       0.98157
                       0.19985                       0.02346                       0.97954
                       0.20475                       0.02349                       0.97853
                       0.20677                       0.02352                       0.97811
                       0.20656                       0.02352                       0.97815
        </DataArray>
      </PointData>
      <Lines>
        <DataArray type="Int32" Name="connectivity" format="ascii">
      0      1
      1      2
      2      3
      3      4
      4      5
      5      6
      6      7
      7      8
      8      9
      9     10
     10     11
     11     12
     12     13
     13     14
     14     15
     15     16
     16     17
     17     18
        </DataArray>
        <DataArray type="Int32" Name="offsets" format="ascii">
      2
      4
      6
      8
     10
     12
     14
     16
     18
     20
     22
     24
     26
     28
     30
     32
     34
     36
        </DataArray>
      </Lines>
    </Piece>
  </PolyData>
</VTKFile>
