<?xml version="1.0"?>
<VTKFile type="PolyData" version="0.1" byte_order="LittleEndian">
  <PolyData>
    <Piece NumberOfPoints="     19" NumberOfVerts="  0" NumberOfLines="     18"
           NumberOfStrips="  0" NumberOfPolys="      0">
      <Points>
        <DataArray type="Float32" NumberOfComponents="3" format="ascii">
                       2.77609                      -1.50316                      89.94433
                       2.69396                      -2.85521                      89.76240
                       2.49737                      -5.54521                      89.30751
                       2.28880                      -8.22838                      88.80731
                       2.02666                     -11.57800                      88.15154
                       1.79577                     -15.61872                      87.49028
                       1.62411                     -19.67798                      86.94316
                       1.47561                     -23.73696                      86.38712
                       1.35935                     -27.79588                      85.82251
                       1.28224                     -31.85417                      85.24643
                       1.24604                     -35.91102                      84.65612
                       1.26506                     -39.96587                      84.05097
                       1.34660                     -44.01779                      83.43116
                       1.49448                     -48.06578                      82.79765
                       1.70885                     -52.10898                      82.15195
                       1.93009                     -55.47479                      81.60681
                       2.12907                     -58.16670                      81.17526
                       2.33917                     -60.86690                      80.79690
                       2.43877                     -62.21038                      80.56691
        </DataArray>
      </Points>
      <PointData>
        <DataArray type="Float32" Name="Force" NumberOfComponents="3" format="ascii">
                       0.77751                      -0.89679                       6.45042
                      90.18106                      -8.84380                      26.18654
                     115.26451                     -15.12724                      63.54564
                     105.22486                     -16.97284                      83.27700
                     792.59956                      16.00078                    -441.59073
                    1017.80109                      16.75355                    -501.11523
                    1189.45775                      16.79363                    -511.17528
                    1539.36341                      23.81151                    -592.28892
                    1695.66464                      31.87694                    -580.08507
                    1973.25288                      51.00952                    -616.23577
                    2445.25713                      87.06234                    -696.80098
                    2815.04628                     135.42309                    -741.48883
                    3274.23470                     207.00772                    -821.04940
                    3584.20316                     280.29733                    -843.87314
                    3851.04603                     353.48165                    -850.79903
                    3999.31761                     399.41931                    -831.74692
                    3906.17556                     401.35745                    -767.02003
                    2849.91404                     294.18126                    -537.86162
                    1260.65096                     112.15357                    -120.28419
        </DataArray>
        <DataArray type="Float32" Name="Moment" NumberOfComponents="3" format="ascii">
                       0.00000                       0.00000                       0.00000
                       0.00000                       0.00000                       0.00000
                       0.00000                       0.00000                       0.00000
                       0.00000                       0.00000                       0.00000
                      14.12719                     263.23818                      34.89480
                      24.62007                     501.65448                      66.77672
                      27.61176                     636.47595                      85.16015
                      31.63478                     870.54117                     117.21699
                      32.09163                    1161.75538                     157.64903
                      21.78790                    1286.93393                     176.29440
                       5.18985                    1337.66378                     185.34797
                     -15.61026                    1402.16157                     196.82217
                     -34.83487                    1265.42208                     180.12873
                     -55.70405                    1259.83078                     181.86687
                     -72.60866                    1220.53598                     178.44139
                     -80.28249                    1159.77458                     170.91879
                     -75.72347                    1027.38314                     151.96307
                     -38.65750                     513.56063                      76.05925
                     -31.90229                     426.28027                      63.11053
        </DataArray>
        <DataArray type="Float32" Name="TranslationalVelocity" NumberOfComponents="3" format="ascii">
                      -0.79856                       0.20041                      -1.41181
                      -0.94530                       0.37653                      -2.65449
                      -1.23594                       0.81591                      -5.12720
                      -1.52598                       1.29809                      -7.59300
                      -1.88943                       1.92877                     -10.66971
                      -2.33355                       2.56065                     -14.37709
                      -2.78652                       3.08096                     -18.09709
                      -3.24482                       3.60653                     -21.81298
                      -3.70850                       4.13595                     -25.52497
                      -4.17688                       4.67098                     -29.23281
                      -4.64835                       5.21394                     -32.93646
                      -5.12172                       5.76363                     -36.63547
                      -5.59485                       6.31906                     -40.32946
                      -6.06548                       6.87906                     -44.01800
                      -6.53150                       7.44245                     -47.70076
                      -6.91544                       7.91363                     -50.76582
                      -7.21959                       8.28411                     -53.21697
                      -7.52282                       8.60505                     -55.67572
                      -7.67256                       8.80341                     -56.89920
        </DataArray>
        <DataArray type="Float32" Name="RotationalVelocity" NumberOfComponents="3" format="ascii">
                       0.91819                      -0.01683                      -0.11068
                       0.91809                      -0.01681                      -0.11079
                       0.91782                      -0.01676                      -0.11108
                       0.91747                      -0.01668                      -0.11147
                       0.91692                      -0.01656                      -0.11214
                       0.91614                      -0.01638                      -0.11318
                       0.91531                      -0.01616                      -0.11443
                       0.91449                      -0.01594                      -0.11575
                       0.91372                      -0.01573                      -0.11702
                       0.91305                      -0.01554                      -0.11810
                       0.91253                      -0.01542                      -0.11881
                       0.91214                      -0.01536                      -0.11910
                       0.91188                      -0.01537                      -0.11889
                       0.91175                      -0.01545                      -0.11819
                       0.91172                      -0.01560                      -0.11708
                       0.91176                      -0.01575                      -0.11595
                       0.91183                      -0.01587                      -0.11504
                       0.91192                      -0.01599                      -0.11416
                       0.91197                      -0.01605                      -0.11375
        </DataArray>
        <DataArray type="Float32" Name="TranslationalAcceleration" NumberOfComponents="3" format="ascii">
                       0.26783                       0.96528                       0.12326
                       0.33699                       2.11680                       0.31132
                       0.48596                       4.40583                       0.76345
                       0.64052                       6.68906                       1.24405
                       0.83841                       9.54113                       1.85143
                       1.06648                      12.98610                       2.43501
                       1.28890                      16.44823                       2.87787
                       1.51326                      19.91014                       3.28799
                       1.71909                      23.37207                       3.67061
                       1.87134                      26.83307                       4.03771
                       1.93599                      30.29103                       4.40363
                       1.85014                      33.74162                       4.77785
                       1.55502                      37.17708                       5.16993
                       1.00036                      40.58695                       5.58605
                       0.15851                      43.96030                       6.02851
                      -0.75049                      46.74066                       6.41540
                      -1.59932                      48.94648                       6.72850
                      -2.51900                      51.14916                       7.00190
                      -2.98171                      52.24618                       7.17425
        </DataArray>
        <DataArray type="Float32" Name="OrientationX" NumberOfComponents="3" format="ascii">
                       0.93725                      -0.01055                      -0.34849
                       0.93728                      -0.01005                      -0.34842
                       0.93737                      -0.00864                      -0.34824
                       0.93748                      -0.00672                      -0.34798
                       0.93766                      -0.00352                      -0.34755
                       0.94838                      -0.00332                      -0.31711
                       0.95561                      -0.00078                      -0.29462
                       0.96156                       0.00348                      -0.27456
                       0.96741                       0.00917                      -0.25304
                       0.97292                       0.01667                      -0.23053
                       0.97762                       0.02660                      -0.20868
                       0.98169                       0.03842                      -0.18659
                       0.98475                       0.05181                      -0.16606
                       0.98651                       0.06608                      -0.14976
                       0.98785                       0.07892                      -0.13386
                       0.98886                       0.08662                      -0.12102
                       0.98967                       0.08964                      -0.11189
                       0.99012                       0.09044                      -0.10712
                       0.99016                       0.09001                      -0.10719
        </DataArray>
        <DataArray type="Float32" Name="OrientationY" NumberOfComponents="3" format="ascii">
                       0.34351                      -0.14300                       0.92820
                       0.34350                      -0.14314                       0.92818
                       0.34348                      -0.14348                       0.92813
                       0.34346                      -0.14390                       0.92808
                       0.34343                      -0.14453                       0.92799
                       0.31329                      -0.14528                       0.93848
                       0.29135                      -0.14615                       0.94539
                       0.27206                      -0.14709                       0.95097
                       0.25158                      -0.14811                       0.95644
                       0.23040                      -0.14924                       0.96158
                       0.21029                      -0.15044                       0.96599
                       0.19030                      -0.15179                       0.96992
                       0.17215                      -0.15324                       0.97308
                       0.15840                      -0.15460                       0.97520
                       0.14487                      -0.15603                       0.97707
                       0.13352                      -0.15725                       0.97849
                       0.12506                      -0.15814                       0.97947
                       0.12051                      -0.15862                       0.97996
                       0.12051                      -0.15862                       0.97996
        </DataArray>
        <DataArray type="Float32" Name="OrientationZ" NumberOfComponents="3" format="ascii">
                      -0.05962                      -0.98967                      -0.13041
                      -0.05920                      -0.98965                      -0.13071
                      -0.05799                      -0.98962                      -0.13153
                      -0.05631                      -0.98957                      -0.13260
                      -0.05350                      -0.98949                      -0.13431
                      -0.04919                      -0.98938                      -0.13674
                      -0.04380                      -0.98926                      -0.13944
                      -0.03708                      -0.98912                      -0.14239
                      -0.02871                      -0.98893                      -0.14560
                      -0.01838                      -0.98866                      -0.14904
                      -0.00570                      -0.98826                      -0.15267
                       0.00894                      -0.98767                      -0.15632
                       0.02497                      -0.98683                      -0.15982
                       0.04129                      -0.98576                      -0.16298
                       0.05622                      -0.98459                      -0.16557
                       0.06573                      -0.98375                      -0.16706
                       0.07010                      -0.98334                      -0.16772
                       0.07163                      -0.98319                      -0.16795
                       0.07121                      -0.98323                      -0.16790
        </DataArray>
      </PointData>
      <Lines>
        <DataArray type="Int32" Name="connectivity" format="ascii">
      0      1
      1      2
      2      3
      3      4
      4      5
      5      6
      6      7
      7      8
      8      9
      9     10
     10     11
     11     12
     12     13
     13     14
     14     15
     15     16
     16     17
     17     18
        </DataArray>
        <DataArray type="Int32" Name="offsets" format="ascii">
      2
      4
      6
      8
     10
     12
     14
     16
     18
     20
     22
     24
     26
     28
     30
     32
     34
     36
        </DataArray>
      </Lines>
    </Piece>
  </PolyData>
</VTKFile>
