<?xml version="1.0"?>
<VTKFile type="PolyData" version="0.1" byte_order="LittleEndian">
  <PolyData>
    <Piece NumberOfPoints="     19" NumberOfVerts="  0" NumberOfLines="     18"
           NumberOfStrips="  0" NumberOfPolys="      0">
      <Points>
        <DataArray type="Float32" NumberOfComponents="3" format="ascii">
                       2.71726                      -1.48543                      89.83906
                       2.62430                      -2.82102                      89.56443
                       2.40629                      -5.47162                      88.92531
                       2.17636                      -8.11220                      88.24149
                       1.88749                     -11.40650                      87.35667
                       1.62392                     -15.39015                      86.41903
                       1.41894                     -19.40066                      85.59425
                       1.23675                     -23.41052                      84.76084
                       1.08637                     -27.42001                      83.91912
                       0.97467                     -31.42848                      83.06628
                       0.90341                     -35.43493                      82.19955
                       0.88684                     -39.43889                      81.31841
                       0.93223                     -43.43955                      80.42307
                       1.04345                     -47.43601                      79.51454
                       1.22069                     -51.42752                      78.59436
                       1.41077                     -54.75022                      77.82084
                       1.58469                     -57.40817                      77.20667
                       1.76962                     -60.07813                      76.64501
                       1.85675                     -61.40367                      76.32391
        </DataArray>
      </Points>
      <PointData>
        <DataArray type="Float32" Name="Force" NumberOfComponents="3" format="ascii">
                       0.73959                      -1.30832                       6.20025
                      89.24712                     -11.23971                      25.21939
                     114.47269                     -20.37319                      62.40471
                     105.32539                     -23.62271                      82.29175
                     796.75552                      40.08368                    -441.66476
                    1024.82830                      43.33966                    -503.35820
                    1198.27022                      42.63141                    -514.11707
                    1550.26149                      52.24324                    -595.30993
                    1706.60044                      58.04915                    -582.77241
                    1984.32748                      77.09875                    -617.58473
                    2456.74287                     114.42124                    -696.19786
                    2829.69537                     162.48387                    -738.75821
                    3294.85165                     235.43999                    -814.93365
                    3620.46166                     308.63788                    -837.20394
                    3911.78945                     382.50756                    -846.12245
                    4085.24444                     429.03256                    -830.97583
                    4008.22841                     429.59776                    -769.97189
                    2930.29787                     314.07013                    -541.03219
                    1263.75418                     108.25534                    -111.61570
        </DataArray>
        <DataArray type="Float32" Name="Moment" NumberOfComponents="3" format="ascii">
                       0.00000                       0.00000                       0.00000
                       0.00000                       0.00000                       0.00000
                       0.00000                       0.00000                       0.00000
                       0.00000                       0.00000                       0.00000
                      16.02679                     256.32071                      52.17467
                      28.31281                     488.52616                      99.70697
                      32.47285                     621.12299                     127.19010
                      38.48114                     850.28517                     174.82907
                      41.32422                    1130.53437                     233.62551
                      32.49950                    1256.78413                     261.31821
                      16.64356                    1301.29218                     272.60125
                      -3.08734                    1365.31086                     288.46346
                     -23.23976                    1241.81337                     264.80803
                     -44.00338                    1240.40253                     266.98710
                     -61.06903                    1201.43569                     260.80035
                     -69.34022                    1143.70868                     249.60595
                     -66.39412                    1019.07467                     222.95542
                     -34.17082                     511.91888                     112.09639
                     -27.96764                     421.66730                      92.31241
        </DataArray>
        <DataArray type="Float32" Name="TranslationalVelocity" NumberOfComponents="3" format="ascii">
                      -0.76688                       0.27272                      -1.39209
                      -0.90924                       0.53547                      -2.62169
                      -1.19048                       1.14705                      -5.06222
                      -1.47052                       1.80087                      -7.49299
                      -1.82063                       2.64561                     -10.52417
                      -2.24822                       3.53558                     -14.18606
                      -2.68366                       4.31495                     -17.86882
                      -3.12317                       5.09924                     -21.54745
                      -3.56833                       5.88707                     -25.22181
                      -4.02109                       6.68011                     -28.89091
                      -4.48254                       7.48057                     -32.55401
                      -4.95608                       8.28693                     -36.20996
                      -5.44401                       9.09769                     -39.85796
                      -5.94789                       9.91098                     -43.49743
                      -6.46781                      10.72491                     -47.12821
                      -6.91168                      11.40261                     -50.14815
                      -7.27262                      11.93700                     -52.56273
                      -7.63772                      12.42196                     -54.98783
                      -7.81876                      12.70178                     -56.19182
        </DataArray>
        <DataArray type="Float32" Name="RotationalVelocity" NumberOfComponents="3" format="ascii">
                       0.91966                      -0.01534                      -0.10969
                       0.91957                      -0.01532                      -0.10974
                       0.91933                      -0.01527                      -0.10991
                       0.91902                      -0.01520                      -0.11016
                       0.91854                      -0.01508                      -0.11058
                       0.91787                      -0.01490                      -0.11123
                       0.91713                      -0.01467                      -0.11209
                       0.91632                      -0.01438                      -0.11324
                       0.91545                      -0.01401                      -0.11479
                       0.91451                      -0.01353                      -0.11685
                       0.91352                      -0.01291                      -0.11955
                       0.91250                      -0.01218                      -0.12282
                       0.91150                      -0.01136                      -0.12653
                       0.91057                      -0.01050                      -0.13045
                       0.90978                      -0.00969                      -0.13416
                       0.90930                      -0.00916                      -0.13663
                       0.90908                      -0.00889                      -0.13786
                       0.90898                      -0.00877                      -0.13842
                       0.90898                      -0.00877                      -0.13841
        </DataArray>
        <DataArray type="Float32" Name="TranslationalAcceleration" NumberOfComponents="3" format="ascii">
                       0.56259                       0.99680                       0.37798
                       0.60690                       2.15726                       0.54974
                       0.70321                       4.46421                       0.97685
                       0.81028                       6.76087                       1.44985
                       0.96138                       9.61999                       2.07697
                       1.16434                      13.06047                       2.72650
                       1.39734                      16.50848                       3.29087
                       1.66176                      19.94550                       3.88233
                       1.93887                      23.37194                       4.50431
                       2.19579                      26.78702                       5.16493
                       2.39738                      30.19018                       5.86863
                       2.48737                      33.57739                       6.62388
                       2.40986                      36.94338                       7.43304
                       2.11591                      40.28106                       8.29454
                       1.57612                      43.58319                       9.20238
                       0.94528                      46.30690                       9.98647
                       0.33276                      48.47071                      10.62107
                      -0.34347                      50.63999                      11.21789
                      -0.68612                      51.71464                      11.55104
        </DataArray>
        <DataArray type="Float32" Name="OrientationX" NumberOfComponents="3" format="ascii">
                       0.93766                       0.00569                      -0.34750
                       0.93770                       0.00617                      -0.34740
                       0.93779                       0.00754                      -0.34712
                       0.93791                       0.00941                      -0.34674
                       0.93811                       0.01252                      -0.34610
                       0.94879                       0.01045                      -0.31573
                       0.95601                       0.01129                      -0.29313
                       0.96196                       0.01400                      -0.27284
                       0.96782                       0.01804                      -0.25100
                       0.97336                       0.02380                      -0.22805
                       0.97811                       0.03203                      -0.20560
                       0.98225                       0.04213                      -0.18278
                       0.98541                       0.05392                      -0.16141
                       0.98728                       0.06690                      -0.14420
                       0.98873                       0.07851                      -0.12748
                       0.98980                       0.08526                      -0.11415
                       0.99062                       0.08762                      -0.10484
                       0.99108                       0.08810                      -0.10003
                       0.99110                       0.08770                      -0.10012
        </DataArray>
        <DataArray type="Float32" Name="OrientationY" NumberOfComponents="3" format="ascii">
                       0.34092                      -0.20939                       0.91648
                       0.34091                      -0.20952                       0.91645
                       0.34089                      -0.20985                       0.91638
                       0.34086                      -0.21025                       0.91630
                       0.34082                      -0.21086                       0.91618
                       0.31067                      -0.21205                       0.92656
                       0.28871                      -0.21318                       0.93338
                       0.26941                      -0.21432                       0.93888
                       0.24891                      -0.21551                       0.94425
                       0.22771                      -0.21678                       0.94929
                       0.20759                      -0.21808                       0.95360
                       0.18758                      -0.21949                       0.95741
                       0.16941                      -0.22097                       0.96045
                       0.15565                      -0.22233                       0.96247
                       0.14209                      -0.22375                       0.96423
                       0.13073                      -0.22495                       0.96556
                       0.12226                      -0.22582                       0.96647
                       0.11771                      -0.22629                       0.96692
                       0.11770                      -0.22629                       0.96692
        </DataArray>
        <DataArray type="Float32" Name="OrientationZ" NumberOfComponents="3" format="ascii">
                      -0.06755                      -0.97782                      -0.19827
                      -0.06713                      -0.97779                      -0.19857
                      -0.06594                      -0.97770                      -0.19936
                      -0.06428                      -0.97760                      -0.20041
                      -0.06151                      -0.97744                      -0.20208
                      -0.05726                      -0.97720                      -0.20444
                      -0.05195                      -0.97695                      -0.20707
                      -0.04533                      -0.97666                      -0.20994
                      -0.03706                      -0.97633                      -0.21306
                      -0.02685                      -0.97593                      -0.21643
                      -0.01429                      -0.97541                      -0.21996
                       0.00022                      -0.97470                      -0.22350
                       0.01612                      -0.97379                      -0.22688
                       0.03233                      -0.97267                      -0.22992
                       0.04718                      -0.97148                      -0.23239
                       0.05664                      -0.97063                      -0.23380
                       0.06101                      -0.97022                      -0.23442
                       0.06255                      -0.97007                      -0.23464
                       0.06214                      -0.97011                      -0.23459
        </DataArray>
      </PointData>
      <Lines>
        <DataArray type="Int32" Name="connectivity" format="ascii">
      0      1
      1      2
      2      3
      3      4
      4      5
      5      6
      6      7
      7      8
      8      9
      9     10
     10     11
     11     12
     12     13
     13     14
     14     15
     15     16
     16     17
     17     18
        </DataArray>
        <DataArray type="Int32" Name="offsets" format="ascii">
      2
      4
      6
      8
     10
     12
     14
     16
     18
     20
     22
     24
     26
     28
     30
     32
     34
     36
        </DataArray>
      </Lines>
    </Piece>
  </PolyData>
</VTKFile>
