<?xml version="1.0"?>
<VTKFile type="PolyData" version="0.1" byte_order="LittleEndian">
  <PolyData>
    <Piece NumberOfPoints="     19" NumberOfVerts="  0" NumberOfLines="     18"
           NumberOfStrips="  0" NumberOfPolys="      0">
      <Points>
        <DataArray type="Float32" NumberOfComponents="3" format="ascii">
                       2.54986                      -1.38325                      89.50224
                       2.42302                      -2.61731                      88.92875
                       2.13833                      -5.04396                      87.69910
                       1.84216                      -7.45044                      86.42851
                       1.47059                     -10.44562                      84.81298
                       1.10570                     -14.10062                      82.98902
                       0.79725                     -17.80963                      81.26983
                       0.51066                     -21.51710                      79.54352
                       0.25447                     -25.22368                      77.81040
                       0.03501                     -28.92829                      76.06795
                      -0.14633                     -32.62938                      74.31361
                      -0.27630                     -36.32688                      72.54709
                      -0.34831                     -40.02034                      70.76874
                      -0.35900                     -43.70934                      68.97959
                      -0.30824                     -47.39354                      67.18112
                      -0.22663                     -50.46050                      65.67718
                      -0.14118                     -52.91583                      64.47880
                      -0.04601                     -55.39515                      63.32894
                      -0.00330                     -56.61635                      62.71693
        </DataArray>
      </Points>
      <PointData>
        <DataArray type="Float32" Name="Force" NumberOfComponents="3" format="ascii">
                       0.59275                      -2.41905                       5.11133
                      81.60641                     -18.10322                      21.24667
                     108.93932                     -37.17235                      56.84810
                     100.56467                     -44.25918                      74.39230
                     789.68652                     117.93179                    -418.00457
                    1028.45352                     132.03224                    -486.58588
                    1200.44101                     128.31514                    -496.20902
                    1548.30759                     145.10235                    -570.72623
                    1691.84999                     141.10657                    -552.25102
                    1960.94030                     156.84496                    -578.06190
                    2430.21090                     194.26424                    -644.81757
                    2804.67431                     236.21119                    -675.94565
                    3285.47189                     307.87494                    -738.95839
                    3627.22875                     372.23059                    -751.46238
                    3938.26651                     436.46982                    -753.08578
                    4123.94983                     471.93776                    -733.14214
                    4041.56089                     459.65882                    -673.70282
                    2930.37008                     324.84870                    -461.18732
                    1289.27518                      88.32536                     -89.81135
        </DataArray>
        <DataArray type="Float32" Name="Moment" NumberOfComponents="3" format="ascii">
                       0.00000                       0.00000                       0.00000
                       0.00000                       0.00000                       0.00000
                       0.00000                       0.00000                       0.00000
                       0.00000                       0.00000                       0.00000
                      20.64093                     216.53073                     100.08437
                      38.38105                     423.78183                     196.11334
                      46.86378                     553.41796                     256.48285
                      59.32395                     766.18384                     355.73413
                      70.00717                    1022.17242                     475.64760
                      66.05313                    1147.49806                     535.41935
                      52.87662                    1194.25698                     559.07713
                      36.55073                    1259.06613                     591.64283
                      14.22818                    1146.02552                     540.73252
                      -5.10509                    1143.40629                     541.73497
                     -21.92508                    1102.51340                     524.33208
                     -31.04201                    1045.56031                     498.43502
                     -31.79958                     930.33847                     443.99153
                     -16.82477                     471.02647                     224.87510
                     -13.94761                     395.62491                     188.85594
        </DataArray>
        <DataArray type="Float32" Name="TranslationalVelocity" NumberOfComponents="3" format="ascii">
                      -0.54331                       0.55404                      -1.29080
                      -0.67093                       1.10116                      -2.43990
                      -0.92109                       2.27550                      -4.69952
                      -1.16959                       3.48861                      -6.93936
                      -1.48060                       5.02950                      -9.72503
                      -1.86547                       6.76161                     -13.11984
                      -2.26271                       8.38856                     -16.55958
                      -2.66606                      10.01793                     -19.99288
                      -3.07610                      11.64845                     -23.42034
                      -3.49279                      13.28176                     -26.84124
                      -3.91495                      14.92025                     -30.25498
                      -4.34251                      16.56252                     -33.66155
                      -4.77425                      18.20756                     -37.06111
                      -5.20854                      19.85416                     -40.45389
                      -5.64349                      21.50114                     -43.84024
                      -6.00511                      22.87334                     -46.65819
                      -6.29349                      23.96419                     -48.91376
                      -6.58294                      25.00942                     -51.19136
                      -6.72489                      25.56671                     -52.31324
        </DataArray>
        <DataArray type="Float32" Name="RotationalVelocity" NumberOfComponents="3" format="ascii">
                       0.93021                      -0.01078                      -0.10830
                       0.93005                      -0.01072                      -0.10840
                       0.92965                      -0.01055                      -0.10867
                       0.92914                      -0.01033                      -0.10904
                       0.92833                      -0.00995                      -0.10968
                       0.92720                      -0.00937                      -0.11069
                       0.92599                      -0.00867                      -0.11194
                       0.92477                      -0.00790                      -0.11334
                       0.92359                      -0.00710                      -0.11481
                       0.92250                      -0.00632                      -0.11626
                       0.92153                      -0.00561                      -0.11758
                       0.92070                      -0.00501                      -0.11869
                       0.92001                      -0.00457                      -0.11950
                       0.91948                      -0.00431                      -0.11994
                       0.91911                      -0.00426                      -0.11998
                       0.91894                      -0.00438                      -0.11966
                       0.91891                      -0.00460                      -0.11920
                       0.91894                      -0.00488                      -0.11858
                       0.91898                      -0.00506                      -0.11822
        </DataArray>
        <DataArray type="Float32" Name="TranslationalAcceleration" NumberOfComponents="3" format="ascii">
                       1.25075                       1.25264                       0.73340
                       1.29738                       2.36557                       1.18105
                       1.39426                       4.55885                       2.15494
                       1.49421                       6.73428                       3.16655
                       1.62340                       9.43937                       4.45410
                       1.77850                      12.72536                       5.88195
                       1.93600                      16.04440                       7.20557
                       2.10416                      19.35399                       8.52899
                       2.29039                      22.65554                       9.84871
                       2.50628                      25.94980                      11.16356
                       2.76119                      29.23802                      12.47407
                       3.07515                      32.52232                      13.77548
                       3.46484                      35.80558                      15.06534
                       3.94349                      39.09090                      16.34249
                       4.51655                      42.38110                      17.60743
                       5.05980                      45.12762                      18.65401
                       5.53067                      47.33037                      19.48139
                       6.01620                      49.55251                      20.26381
                       6.26246                      50.64975                      20.68805
        </DataArray>
        <DataArray type="Float32" Name="OrientationX" NumberOfComponents="3" format="ascii">
                       0.93966                       0.05945                      -0.33689
                       0.93971                       0.05988                      -0.33670
                       0.93983                       0.06108                      -0.33614
                       0.93999                       0.06273                      -0.33538
                       0.94026                       0.06547                      -0.33410
                       0.95067                       0.05603                      -0.30510
                       0.95774                       0.05124                      -0.28303
                       0.96362                       0.04876                      -0.26280
                       0.96942                       0.04712                      -0.24083
                       0.97495                       0.04679                      -0.21743
                       0.97978                       0.04884                      -0.19404
                       0.98405                       0.05251                      -0.16994
                       0.98744                       0.05806                      -0.14692
                       0.98963                       0.06572                      -0.12772
                       0.99138                       0.07222                      -0.10927
                       0.99263                       0.07510                      -0.09507
                       0.99350                       0.07495                      -0.08562
                       0.99396                       0.07417                      -0.08090
                       0.99397                       0.07379                      -0.08108
        </DataArray>
        <DataArray type="Float32" Name="OrientationY" NumberOfComponents="3" format="ascii">
                       0.32939                      -0.42313                       0.84407
                       0.32938                      -0.42322                       0.84403
                       0.32936                      -0.42346                       0.84392
                       0.32933                      -0.42374                       0.84379
                       0.32929                      -0.42417                       0.84359
                       0.29907                      -0.42669                       0.85352
                       0.27707                      -0.42855                       0.85999
                       0.25772                      -0.43017                       0.86518
                       0.23717                      -0.43179                       0.87024
                       0.21593                      -0.43339                       0.87496
                       0.19575                      -0.43488                       0.87896
                       0.17568                      -0.43637                       0.88245
                       0.15744                      -0.43781                       0.88517
                       0.14362                      -0.43904                       0.88691
                       0.12999                      -0.44029                       0.88840
                       0.11858                      -0.44132                       0.88948
                       0.11007                      -0.44206                       0.89020
                       0.10550                      -0.44245                       0.89057
                       0.10549                      -0.44245                       0.89057
        </DataArray>
        <DataArray type="Float32" Name="OrientationZ" NumberOfComponents="3" format="ascii">
                      -0.09237                      -0.90412                      -0.41718
                      -0.09196                      -0.90404                      -0.41743
                      -0.09079                      -0.90385                      -0.41810
                      -0.08918                      -0.90361                      -0.41898
                      -0.08648                      -0.90321                      -0.42039
                      -0.08236                      -0.90266                      -0.42240
                      -0.07723                      -0.90207                      -0.42463
                      -0.07087                      -0.90143                      -0.42708
                      -0.06298                      -0.90074                      -0.42976
                      -0.05329                      -0.89999                      -0.43263
                      -0.04146                      -0.89916                      -0.43564
                      -0.02782                      -0.89823                      -0.43864
                      -0.01293                      -0.89719                      -0.44145
                       0.00221                      -0.89606                      -0.44393
                       0.01605                      -0.89495                      -0.44588
                       0.02485                      -0.89420                      -0.44698
                       0.02888                      -0.89385                      -0.44744
                       0.03025                      -0.89372                      -0.44760
                       0.02984                      -0.89375                      -0.44757
        </DataArray>
      </PointData>
      <Lines>
        <DataArray type="Int32" Name="connectivity" format="ascii">
      0      1
      1      2
      2      3
      3      4
      4      5
      5      6
      6      7
      7      8
      8      9
      9     10
     10     11
     11     12
     12     13
     13     14
     14     15
     15     16
     16     17
     17     18
        </DataArray>
        <DataArray type="Int32" Name="offsets" format="ascii">
      2
      4
      6
      8
     10
     12
     14
     16
     18
     20
     22
     24
     26
     28
     30
     32
     34
     36
        </DataArray>
      </Lines>
    </Piece>
  </PolyData>
</VTKFile>
