<?xml version="1.0"?>
<VTKFile type="PolyData" version="0.1" byte_order="LittleEndian">
  <PolyData>
    <Piece NumberOfPoints="     17" NumberOfVerts="  0" NumberOfLines="      0"
           NumberOfStrips="  0" NumberOfPolys="      0">
      <Points>
        <DataArray type="Float32" NumberOfComponents="3" format="ascii">
                       3.25736                       2.81263                      91.84296
                       3.33907                       5.92241                      93.68956
                       3.42800                       9.03289                      95.53466
                       3.52689                      12.14415                      97.37792
                       3.63799                      15.25626                      99.21905
                       3.76361                      18.36925                     101.05775
                       3.90653                      21.48305                     102.89380
                       4.07021                      24.59750                     104.72701
                       4.25875                      27.71239                     106.55706
                       4.47666                      30.82746                     108.38353
                       4.72854                      33.94242                     110.20579
                       5.01841                      37.05695                     112.02312
                       5.34901                      40.17072                     113.83479
                       5.72078                      43.28344                     115.64031
                       6.13076                      46.39492                     117.43971
                       6.57123                      49.50530                     119.23390
                       7.02823                      52.61504                     121.02510
        </DataArray>
      </Points>
      <PointData>
        <DataArray type="Float32" Name="Force" NumberOfComponents="3" format="ascii">
                     163.97513                      33.75887                     -63.87696
                     516.88974                     116.55729                    -221.03743
                    2005.72844                    -281.74884                     367.69885
                    3470.63923                    -547.47623                     718.49106
                    2099.56263                    -298.41933                     367.25137
                    4446.28979                    -541.53413                     592.95728
                    5276.99165                    -549.28650                     490.73595
                    5790.08450                    -526.32162                     333.54747
                    6187.87834                    -519.80150                     189.11319
                    7831.94761                    -632.00650                      55.54327
                    9072.91836                    -738.33370                    -115.80619
                   10508.26236                    -912.29908                    -280.50811
                    6114.19864                    -560.23640                    -223.55980
                   12409.13283                   -1196.91726                    -576.44576
                   12257.60038                   -1244.76686                    -705.14477
                   17795.16146                   -1836.44978                   -1253.02062
                    7269.55405                    -694.77555                    -651.04345
        </DataArray>
        <DataArray type="Float32" Name="Moment" NumberOfComponents="3" format="ascii">
                     -19.72719                      12.97324                     -12.30677
                      75.58634                     227.67851                    -268.20867
                     604.87848                    1322.37286                   -1627.97828
                     710.36784                    1983.84563                   -2068.66501
                      31.87613                     364.98858                     -32.82410
                    -476.11691                    -856.60267                    2008.79286
                    -308.73676                    -912.87726                    1144.63224
                    -163.82584                    -866.92960                    -370.94085
                    -107.42286                    -619.11461                   -1074.89234
                     -85.37128                    -137.79471                   -1764.34412
                     -15.51331                    1102.89716                   -3621.34951
                      81.55938                    3150.33457                   -6011.80033
                     -15.39291                    -196.95881                     314.37093
                     -96.33304                   -4056.65644                    7156.42415
                     -23.32889                   -3744.96120                    6872.45557
                     -61.51634                    -211.53911                    1091.37626
                    -128.44621                      26.24453                    -112.44618
        </DataArray>
      </PointData>
    </Piece>
  </PolyData>
</VTKFile>
