<?xml version="1.0"?>
<VTKFile type="PolyData" version="0.1" byte_order="LittleEndian">
  <PolyData>
    <Piece NumberOfPoints="     19" NumberOfVerts="  0" NumberOfLines="     18"
           NumberOfStrips="  0" NumberOfPolys="      0">
      <Points>
        <DataArray type="Float32" NumberOfComponents="3" format="ascii">
                       2.85408                       1.38265                      89.55175
                       2.73161                       2.64447                      89.04117
                       2.47521                       5.20349                      88.10974
                       2.21395                       7.77927                      87.22045
                       1.88545                      11.00909                      86.13352
                       1.53020                      14.83178                      84.68980
                       1.18767                      18.60514                      83.12232
                       0.84649                      22.37718                      81.55135
                       0.50960                      26.14731                      79.97487
                       0.17722                      29.91630                      78.39472
                      -0.15134                      33.68558                      76.81456
                      -0.47406                      37.45462                      75.23271
                      -0.79087                      41.22345                      73.64921
                      -1.10217                      44.99206                      72.06419
                      -1.40662                      48.76058                      70.47765
                      -1.65614                      51.90095                      69.15458
                      -1.85484                      54.41009                      68.08849
                      -2.06046                      56.89791                      66.97207
                      -2.15935                      58.15786                      66.45213
        </DataArray>
      </Points>
      <PointData>
        <DataArray type="Float32" Name="Force" NumberOfComponents="3" format="ascii">
                      -0.03189                      -0.11064                      -0.26386
                      64.66750                      -3.05351                     -22.85035
                      77.04064                     -13.40759                     -51.14072
                      66.70962                     -21.16823                     -67.67063
                     714.72185                     131.49649                     154.78504
                     990.50463                     180.52483                     212.23957
                    1113.78598                     171.93710                     165.09878
                    1392.53469                     187.48648                     142.88098
                    1473.78308                     172.25199                      91.85488
                    1652.68919                     171.18922                      55.44914
                    1964.34299                     178.36421                      13.12697
                    2143.48212                     171.17368                     -32.51448
                    2401.16704                     173.52136                     -68.43648
                    2439.72831                     152.71832                    -114.48246
                    2410.61162                     127.28736                    -159.54871
                    2337.82824                     104.07317                    -195.29697
                    2126.60456                      79.79694                    -211.31974
                    1382.44142                      39.83592                    -166.31999
                    1199.15589                      23.03039                    -172.66624
        </DataArray>
        <DataArray type="Float32" Name="Moment" NumberOfComponents="3" format="ascii">
                       0.00000                       0.00000                       0.00000
                       0.00000                       0.00000                       0.00000
                       0.00000                       0.00000                       0.00000
                       0.00000                       0.00000                       0.00000
                      18.35923                    -191.88166                      78.23767
                      30.73741                    -324.00748                     132.14241
                      43.47488                    -462.99200                     188.87958
                      60.10734                    -647.95536                     264.42508
                      79.30623                    -867.37250                     354.10695
                      87.06742                    -968.72142                     395.66483
                      88.08639                   -1000.18574                     408.73473
                      89.38336                   -1038.61216                     424.69026
                      73.15718                    -871.67610                     356.65456
                      68.85043                    -841.61031                     344.56837
                      63.06898                    -789.19446                     323.28898
                      58.85331                    -747.34767                     306.25200
                      51.11909                    -653.28460                     267.74584
                      26.76502                    -342.59006                     140.41417
                      29.14614                    -372.61925                     152.71771
        </DataArray>
        <DataArray type="Float32" Name="TranslationalVelocity" NumberOfComponents="3" format="ascii">
                       0.19957                       0.51842                       1.28838
                       0.34049                       1.00344                       2.45320
                       0.62927                       1.89186                       4.81425
                       0.92979                       2.74184                       7.18666
                       1.32662                       3.78209                      10.15428
                       1.83218                       5.15369                      13.65545
                       2.38012                       6.63597                      17.09754
                       2.98437                       8.11995                      20.52327
                       3.65388                       9.60731                      23.93154
                       4.39824                      11.09670                      27.32248
                       5.21786                      12.58525                      30.69851
                       6.12910                      14.07425                      34.05676
                       7.13770                      15.56357                      37.39662
                       8.24410                      17.05291                      40.71807
                       9.44038                      18.54151                      44.02263
                      10.49114                      19.78123                      46.76604
                      11.35573                      20.77904                      48.95293
                      12.21977                      21.82283                      51.11962
                      12.65263                      22.30984                      52.21746
        </DataArray>
        <DataArray type="Float32" Name="RotationalVelocity" NumberOfComponents="3" format="ascii">
                       0.92353                       0.00180                      -0.11118
                       0.92301                       0.00132                      -0.11222
                       0.92177                       0.00003                      -0.11510
                       0.92029                      -0.00170                      -0.11900
                       0.91811                      -0.00455                      -0.12546
                       0.91510                      -0.00880                      -0.13517
                       0.91175                      -0.01383                      -0.14671
                       0.90821                      -0.01963                      -0.16011
                       0.90458                      -0.02626                      -0.17550
                       0.90085                      -0.03373                      -0.19296
                       0.89698                      -0.04211                      -0.21260
                       0.89296                      -0.05112                      -0.23374
                       0.88885                      -0.06039                      -0.25550
                       0.88484                      -0.06932                      -0.27647
                       0.88128                      -0.07704                      -0.29455
                       0.87907                      -0.08155                      -0.30509
                       0.87812                      -0.08325                      -0.30903
                       0.87788                      -0.08331                      -0.30914
                       0.87807                      -0.08267                      -0.30762
        </DataArray>
        <DataArray type="Float32" Name="TranslationalAcceleration" NumberOfComponents="3" format="ascii">
                       0.54093                      -1.38920                       0.68773
                       0.54752                      -2.55798                       0.95472
                       0.57424                      -4.90997                       1.40644
                       0.65494                      -7.26111                       1.81247
                       0.86756                     -10.18761                       2.28533
                       1.33145                     -13.65194                       2.95306
                       2.08022                     -17.06729                       3.70307
                       3.15154                     -20.45595                       4.42254
                       4.57966                     -23.82180                       5.10965
                       6.38906                     -27.17084                       5.75972
                       8.55243                     -30.51114                       6.37174
                      11.11155                     -33.85034                       6.94039
                      14.05150                     -37.19783                       7.46497
                      17.33493                     -40.56189                       7.94755
                      20.89563                     -43.94970                       8.39447
                      24.00166                     -46.79070                       8.74756
                      26.52967                     -49.07128                       9.02904
                      29.02976                     -51.34254                       9.35741
                      30.25923                     -52.48511                       9.48938
        </DataArray>
        <DataArray type="Float32" Name="OrientationX" NumberOfComponents="3" format="ascii">
                       0.98874                       0.12765                       0.07814
                       0.98874                       0.12759                       0.07816
                       0.98876                       0.12740                       0.07824
                       0.98878                       0.12715                       0.07834
                       0.98883                       0.12673                       0.07851
                       0.99221                       0.11437                       0.04929
                       0.99406                       0.10506                       0.02832
                       0.99527                       0.09663                       0.01010
                       0.99612                       0.08755                      -0.00911
                       0.99654                       0.07800                      -0.02878
                       0.99652                       0.06862                      -0.04725
                       0.99610                       0.05910                      -0.06547
                       0.99538                       0.05017                      -0.08183
                       0.99464                       0.04296                      -0.09405
                       0.99370                       0.03601                      -0.10611
                       0.99274                       0.03055                      -0.11632
                       0.99192                       0.02680                      -0.12404
                       0.99143                       0.02491                      -0.12822
                       0.99143                       0.02499                      -0.12825
        </DataArray>
        <DataArray type="Float32" Name="OrientationY" NumberOfComponents="3" format="ascii">
                       0.12006                      -0.36472                      -0.92335
                       0.12006                      -0.36477                      -0.92332
                       0.12007                      -0.36491                      -0.92327
                       0.12009                      -0.36508                      -0.92320
                       0.12012                      -0.36533                      -0.92309
                       0.08854                      -0.36953                      -0.92499
                       0.06573                      -0.37242                      -0.92573
                       0.04578                      -0.37482                      -0.92597
                       0.02468                      -0.37713                      -0.92583
                       0.00296                      -0.37928                      -0.92528
                      -0.01759                      -0.38111                      -0.92436
                      -0.03796                      -0.38270                      -0.92309
                      -0.05642                      -0.38397                      -0.92162
                      -0.07040                      -0.38484                      -0.92029
                      -0.08414                      -0.38556                      -0.91884
                      -0.09563                      -0.38605                      -0.91751
                      -0.10416                      -0.38634                      -0.91646
                      -0.10873                      -0.38648                      -0.91587
                      -0.10873                      -0.38648                      -0.91587
        </DataArray>
        <DataArray type="Float32" Name="OrientationZ" NumberOfComponents="3" format="ascii">
                      -0.08937                       0.92233                      -0.37593
                      -0.08929                       0.92231                      -0.37598
                      -0.08908                       0.92229                      -0.37610
                      -0.08878                       0.92225                      -0.37625
                      -0.08830                       0.92221                      -0.37647
                      -0.08758                       0.92215                      -0.37678
                      -0.08671                       0.92210                      -0.37711
                      -0.08570                       0.92205                      -0.37747
                      -0.08449                       0.92201                      -0.37783
                      -0.08309                       0.92199                      -0.37820
                      -0.08144                       0.92198                      -0.37858
                      -0.07961                       0.92198                      -0.37897
                      -0.07766                       0.92198                      -0.37937
                      -0.07573                       0.92198                      -0.37976
                      -0.07400                       0.92198                      -0.38011
                      -0.07294                       0.92197                      -0.38033
                      -0.07248                       0.92197                      -0.38043
                      -0.07237                       0.92196                      -0.38046
                      -0.07245                       0.92196                      -0.38045
        </DataArray>
      </PointData>
      <Lines>
        <DataArray type="Int32" Name="connectivity" format="ascii">
      0      1
      1      2
      2      3
      3      4
      4      5
      5      6
      6      7
      7      8
      8      9
      9     10
     10     11
     11     12
     12     13
     13     14
     14     15
     15     16
     16     17
     17     18
        </DataArray>
        <DataArray type="Int32" Name="offsets" format="ascii">
      2
      4
      6
      8
     10
     12
     14
     16
     18
     20
     22
     24
     26
     28
     30
     32
     34
     36
        </DataArray>
      </Lines>
    </Piece>
  </PolyData>
</VTKFile>
