<?xml version="1.0"?>
<VTKFile type="PolyData" version="0.1" byte_order="LittleEndian">
  <PolyData>
    <Piece NumberOfPoints="     19" NumberOfVerts="  0" NumberOfLines="     18"
           NumberOfStrips="  0" NumberOfPolys="      0">
      <Points>
        <DataArray type="Float32" NumberOfComponents="3" format="ascii">
                       2.60189                      -1.42706                      89.61752
                       2.48643                      -2.70472                      89.14618
                       2.22409                      -5.22568                      88.11777
                       1.95012                      -7.72992                      87.04684
                       1.60631                     -10.84951                      85.67973
                       1.27568                     -14.64341                      84.15800
                       1.00249                     -18.48200                      82.74457
                       0.75165                     -22.31931                      81.32347
                       0.53179                     -26.15585                      79.89504
                       0.34931                     -29.99069                      78.45668
                       0.20561                     -33.82248                      77.00577
                       0.11406                     -37.65103                      75.54199
                       0.08127                     -41.47578                      74.06568
                       0.11058                     -45.29616                      72.57789
                       0.20204                     -49.11175                      71.08013
                       0.31795                     -52.28813                      69.82636
                       0.43102                     -54.83036                      68.82818
                       0.55406                     -57.39250                      67.88025
                       0.61049                     -58.65820                      67.36786
        </DataArray>
      </Points>
      <PointData>
        <DataArray type="Float32" Name="Force" NumberOfComponents="3" format="ascii">
                       0.64921                      -2.08651                       5.54434
                      85.00370                     -15.91625                      22.74960
                     111.63848                     -31.63202                      59.58650
                     102.76019                     -37.38707                      77.91590
                     796.27161                      91.82794                    -430.85147
                    1031.36660                     101.81744                    -497.38404
                    1204.13444                      99.33310                    -507.46791
                    1553.47948                     114.00577                    -584.67651
                    1699.94785                     113.71214                    -567.64550
                    1968.96496                     130.76215                    -595.65022
                    2435.85894                     168.20210                    -665.82289
                    2807.72558                     212.10929                    -700.43947
                    3284.24525                     284.04732                    -768.65674
                    3629.68534                     352.12992                    -787.71641
                    3951.13300                     421.64135                    -797.70138
                    4150.92690                     463.30848                    -784.83724
                    4083.70847                     457.55085                    -728.96322
                    2975.36339                     328.71287                    -507.20686
                    1277.04084                      94.34812                     -96.82876
        </DataArray>
        <DataArray type="Float32" Name="Moment" NumberOfComponents="3" format="ascii">
                       0.00000                       0.00000                       0.00000
                       0.00000                       0.00000                       0.00000
                       0.00000                       0.00000                       0.00000
                       0.00000                       0.00000                       0.00000
                      19.31066                     232.53616                      85.24944
                      35.16391                     448.84257                     164.79596
                      42.02374                     579.41584                     213.13151
                      52.15529                     797.84821                     294.14807
                      59.96726                    1060.21941                     391.97180
                      54.28053                    1184.82713                     439.53145
                      40.30872                    1230.20132                     458.24319
                      23.07749                    1295.21654                     484.72813
                       1.82910                    1181.85223                     444.55366
                     -17.63559                    1178.68651                     445.64151
                     -34.20303                    1139.11255                     432.68854
                     -42.79850                    1081.19612                     411.89927
                     -42.25640                     961.52402                     366.79945
                     -22.04158                     485.29564                     185.21282
                     -18.26539                     406.37847                     155.07166
        </DataArray>
        <DataArray type="Float32" Name="TranslationalVelocity" NumberOfComponents="3" format="ascii">
                      -0.64249                       0.44889                      -1.33824
                      -0.77568                       0.89808                      -2.52324
                      -1.03733                       1.87915                      -4.86148
                      -1.29712                       2.90038                      -7.18323
                      -1.62148                       4.20245                     -10.07340
                      -2.01989                       5.64465                     -13.58363
                      -2.42776                       6.97894                     -17.12991
                      -2.83979                       8.31634                     -20.66985
                      -3.25775                       9.65549                     -24.20357
                      -3.68378                      10.99798                     -27.72990
                      -4.11904                      12.34607                     -31.24806
                      -4.56723                      13.69813                     -34.75718
                      -5.03085                      15.05272                     -38.25694
                      -5.51160                      16.40813                     -41.74730
                      -6.00957                      17.76269                     -45.22868
                      -6.43592                      18.89006                     -48.12419
                      -6.78331                      19.78411                     -50.44042
                      -7.13560                      20.63079                     -52.77441
                      -7.30971                      21.08984                     -53.92737
        </DataArray>
        <DataArray type="Float32" Name="RotationalVelocity" NumberOfComponents="3" format="ascii">
                       0.92645                      -0.01316                      -0.10905
                       0.92629                      -0.01313                      -0.10909
                       0.92589                      -0.01304                      -0.10923
                       0.92539                      -0.01292                      -0.10944
                       0.92460                      -0.01272                      -0.10980
                       0.92352                      -0.01241                      -0.11039
                       0.92233                      -0.01200                      -0.11120
                       0.92108                      -0.01148                      -0.11232
                       0.91977                      -0.01080                      -0.11387
                       0.91841                      -0.00991                      -0.11595
                       0.91702                      -0.00879                      -0.11868
                       0.91564                      -0.00745                      -0.12200
                       0.91432                      -0.00595                      -0.12578
                       0.91312                      -0.00438                      -0.12976
                       0.91212                      -0.00292                      -0.13353
                       0.91152                      -0.00195                      -0.13602
                       0.91125                      -0.00148                      -0.13725
                       0.91113                      -0.00127                      -0.13779
                       0.91113                      -0.00128                      -0.13777
        </DataArray>
        <DataArray type="Float32" Name="TranslationalAcceleration" NumberOfComponents="3" format="ascii">
                       0.99074                       1.14395                       0.34524
                       1.06947                       2.26726                       0.72592
                       1.23262                       4.48621                       1.56409
                       1.39010                       6.69169                       2.43799
                       1.57036                       9.43993                       3.55158
                       1.73755                      12.77606                       4.77215
                       1.84556                      16.14374                       5.88759
                       1.90907                      19.50654                       6.99916
                       1.94421                      22.86473                       8.10027
                       1.98222                      26.21832                       9.18473
                       2.05927                      29.56821                      10.24925
                       2.22853                      32.91730                      11.28190
                       2.54577                      36.27071                      12.27552
                       3.06100                      39.63551                      13.22642
                       3.80648                      43.01923                      14.13556
                       4.60033                      45.85639                      14.86619
                       5.33892                      48.13943                      15.43038
                       6.13230                      50.44174                      15.94316
                       6.54223                      51.58326                      16.23226
        </DataArray>
        <DataArray type="Float32" Name="OrientationX" NumberOfComponents="3" format="ascii">
                       0.93882                       0.04081                      -0.34199
                       0.93886                       0.04126                      -0.34183
                       0.93897                       0.04254                      -0.34136
                       0.93912                       0.04429                      -0.34071
                       0.93937                       0.04720                      -0.33964
                       0.94990                       0.04034                      -0.30995
                       0.95704                       0.03754                      -0.28752
                       0.96296                       0.03690                      -0.26711
                       0.96880                       0.03727                      -0.24502
                       0.97435                       0.03905                      -0.22161
                       0.97917                       0.04322                      -0.19840
                       0.98342                       0.04905                      -0.17460
                       0.98675                       0.05667                      -0.15203
                       0.98885                       0.06604                      -0.13344
                       0.99053                       0.07417                      -0.11552
                       0.99174                       0.07827                      -0.10157
                       0.99262                       0.07891                      -0.09213
                       0.99308                       0.07849                      -0.08737
                       0.99310                       0.07808                      -0.08753
        </DataArray>
        <DataArray type="Float32" Name="OrientationY" NumberOfComponents="3" format="ascii">
                       0.33401                      -0.35013                       0.87513
                       0.33400                      -0.35024                       0.87509
                       0.33398                      -0.35050                       0.87499
                       0.33395                      -0.35083                       0.87487
                       0.33391                      -0.35131                       0.87469
                       0.30371                      -0.35337                       0.88481
                       0.28173                      -0.35497                       0.89142
                       0.26240                      -0.35642                       0.89672
                       0.24187                      -0.35789                       0.90189
                       0.22064                      -0.35938                       0.90673
                       0.20048                      -0.36080                       0.91084
                       0.18043                      -0.36227                       0.91444
                       0.16221                      -0.36372                       0.91728
                       0.14841                      -0.36499                       0.91911
                       0.13480                      -0.36629                       0.92068
                       0.12340                      -0.36738                       0.92185
                       0.11490                      -0.36816                       0.92263
                       0.11034                      -0.36857                       0.92303
                       0.11033                      -0.36857                       0.92303
        </DataArray>
        <DataArray type="Float32" Name="OrientationZ" NumberOfComponents="3" format="ascii">
                      -0.08403                      -0.93581                      -0.34234
                      -0.08362                      -0.93575                      -0.34260
                      -0.08242                      -0.93560                      -0.34332
                      -0.08078                      -0.93539                      -0.34426
                      -0.07804                      -0.93507                      -0.34577
                      -0.07383                      -0.93461                      -0.34791
                      -0.06860                      -0.93412                      -0.35030
                      -0.06211                      -0.93360                      -0.35290
                      -0.05408                      -0.93302                      -0.35574
                      -0.04423                      -0.93238                      -0.35878
                      -0.03221                      -0.93164                      -0.36195
                      -0.01840                      -0.93078                      -0.36511
                      -0.00332                      -0.92978                      -0.36809
                       0.01200                      -0.92867                      -0.37072
                       0.02597                      -0.92754                      -0.37282
                       0.03484                      -0.92677                      -0.37400
                       0.03888                      -0.92641                      -0.37451
                       0.04024                      -0.92628                      -0.37468
                       0.03981                      -0.92631                      -0.37464
        </DataArray>
      </PointData>
      <Lines>
        <DataArray type="Int32" Name="connectivity" format="ascii">
      0      1
      1      2
      2      3
      3      4
      4      5
      5      6
      6      7
      7      8
      8      9
      9     10
     10     11
     11     12
     12     13
     13     14
     14     15
     15     16
     16     17
     17     18
        </DataArray>
        <DataArray type="Int32" Name="offsets" format="ascii">
      2
      4
      6
      8
     10
     12
     14
     16
     18
     20
     22
     24
     26
     28
     30
     32
     34
     36
        </DataArray>
      </Lines>
    </Piece>
  </PolyData>
</VTKFile>
