<?xml version="1.0"?>
<VTKFile type="PolyData" version="0.1" byte_order="LittleEndian">
  <PolyData>
    <Piece NumberOfPoints="     17" NumberOfVerts="  0" NumberOfLines="      0"
           NumberOfStrips="  0" NumberOfPolys="      0">
      <Points>
        <DataArray type="Float32" NumberOfComponents="3" format="ascii">
                       2.33854                       2.99922                      88.83668
                       2.02386                       6.31618                      87.42739
                       1.71722                       9.63346                      86.01707
                       1.42167                      12.95123                      84.60555
                       1.13975                      16.26957                      83.19260
                       0.87418                      19.58855                      81.77796
                       0.62843                      22.90824                      80.36146
                       0.40689                      26.22877                      78.94294
                       0.21492                      29.55016                      77.52215
                       0.05855                      32.87228                      76.09876
                      -0.05600                      36.19479                      74.67233
                      -0.12312                      39.51707                      73.24236
                      -0.13878                      42.83827                      71.80841
                      -0.10181                      46.15752                      70.37029
                      -0.01545                      49.47416                      68.92814
                       0.11091                      52.78812                      67.48261
                       0.25971                      56.10035                      66.03510
        </DataArray>
      </Points>
      <PointData>
        <DataArray type="Float32" Name="Force" NumberOfComponents="3" format="ascii">
                     160.98847                     -13.60214                     -68.25582
                     540.66962                     -45.24832                    -224.15347
                    2242.00070                     419.73672                     516.00894
                    3829.38911                     708.56687                     891.63349
                    2322.61927                     384.29234                     453.75964
                    4957.76854                     714.89777                     773.89204
                    5900.16341                     713.90389                     692.27011
                    6486.72277                     640.10432                     550.95240
                    6905.12009                     540.87361                     421.45773
                    8665.29655                     505.83166                     367.39013
                    9939.12419                     381.14354                     287.42193
                   11324.38657                     223.03873                     253.36904
                    6489.57614                      35.45035                     118.18865
                   12926.68773                    -116.71952                     176.67766
                   12430.12536                    -315.95658                      96.56568
                   17524.92604                    -717.22662                     -37.77904
                    7145.14425                    -379.98970                    -141.31064
        </DataArray>
        <DataArray type="Float32" Name="Moment" NumberOfComponents="3" format="ascii">
                     -19.14959                      -4.45218                     -17.45637
                     103.92063                     -93.89209                    -399.99073
                     741.19972                    -524.69793                   -2304.41510
                     731.96494                    -343.94379                   -3184.61079
                      -1.51939                     320.72639                    -400.30243
                    -638.61228                    1448.33789                    2006.82326
                    -381.54802                     737.22604                    1448.76301
                    -113.19256                    -475.79168                     367.82968
                     -16.90271                   -1001.78607                    -266.67429
                      12.87857                   -1330.85454                   -1102.83930
                      98.39968                   -2234.93686                   -3326.11515
                     150.67230                   -3094.02641                   -6463.38586
                     -22.94469                     123.57474                     413.40762
                    -146.91000                    3380.85759                    8014.90766
                     -39.60523                    3146.36163                    7405.94074
                    -138.44530                     396.26307                    1234.05540
                    -119.69540                    -243.48956                     -87.54918
        </DataArray>
      </PointData>
    </Piece>
  </PolyData>
</VTKFile>
