<?xml version="1.0"?>
<VTKFile type="PolyData" version="0.1" byte_order="LittleEndian">
  <PolyData>
    <Piece NumberOfPoints="     19" NumberOfVerts="  0" NumberOfLines="     18"
           NumberOfStrips="  0" NumberOfPolys="      0">
      <Points>
        <DataArray type="Float32" NumberOfComponents="3" format="ascii">
                       3.04285                       1.47658                      90.26364
                       2.99784                       2.83701                      90.38648
                       2.89839                       5.54916                      90.72782
                       2.79797                       8.25772                      91.11281
                       2.67775                      11.64216                      91.61796
                       2.58281                      15.71848                      92.07078
                       2.51540                      19.80714                      92.38512
                       2.46960                      23.89680                      92.68969
                       2.45385                      27.98750                      92.98223
                       2.47565                      32.07877                      93.26452
                       2.53806                      36.16988                      93.54080
                       2.65552                      40.26027                      93.80798
                       2.83608                      44.34889                      94.06518
                       3.08437                      48.43451                      94.31171
                       3.40135                      52.51594                      94.54740
                       3.71015                      55.91379                      94.73651
                       3.97877                      58.63061                      94.87615
                       4.24667                      61.35088                      94.96020
                       4.38551                      62.70792                      95.04348
        </DataArray>
      </Points>
      <PointData>
        <DataArray type="Float32" Name="Force" NumberOfComponents="3" format="ascii">
                      -0.03321                       0.02241                      -0.26729
                      62.26851                       4.02287                     -22.55456
                      72.61761                       6.96580                     -53.39347
                      61.52698                       7.98033                     -70.39002
                     688.21159                       2.86710                     177.14260
                     970.04319                       0.25357                     245.21021
                    1093.98978                       1.48943                     196.07565
                    1367.63698                      -0.83981                     172.90477
                    1440.30670                      -6.65586                     111.84439
                    1616.44505                     -19.01035                      67.06688
                    1944.00561                     -41.87924                      12.41990
                    2157.47867                     -73.46564                     -49.03213
                    2497.98695                    -122.89597                     -99.73838
                    2664.30112                    -172.42999                    -160.28337
                    2841.66731                    -225.18515                    -223.63105
                    2985.15826                    -265.03750                    -269.46207
                    3062.02547                    -286.39253                    -287.77678
                    2470.20845                    -237.83870                    -208.61852
                    1349.76332                    -123.67320                    -198.57494
        </DataArray>
        <DataArray type="Float32" Name="Moment" NumberOfComponents="3" format="ascii">
                       0.00000                       0.00000                       0.00000
                       0.00000                       0.00000                       0.00000
                       0.00000                       0.00000                       0.00000
                       0.00000                       0.00000                       0.00000
                       4.87380                    -183.26246                     -15.96891
                       7.38404                    -333.38860                     -28.86627
                       8.33112                    -497.08344                     -42.70693
                       7.33217                    -722.81476                     -61.50653
                       1.93219                   -1013.13000                     -85.17362
                      -9.69679                   -1164.74456                     -96.43919
                     -26.90276                   -1279.63057                    -103.93285
                     -49.88485                   -1391.27013                    -110.43676
                     -63.97975                   -1223.65239                     -94.63382
                     -86.50771                   -1249.30831                     -93.98589
                    -104.84513                   -1233.32279                     -90.36765
                    -113.11765                   -1187.16440                     -85.47034
                    -106.02523                   -1057.72573                     -75.50024
                     -53.64654                    -524.45732                     -37.30204
                     -45.73607                    -447.98337                     -31.87376
        </DataArray>
        <DataArray type="Float32" Name="TranslationalVelocity" NumberOfComponents="3" format="ascii">
                       0.49585                      -0.13012                       1.42610
                       0.65241                      -0.23810                       2.67935
                       0.96581                      -0.54161                       5.18060
                       1.28003                      -0.88692                       7.68717
                       1.67463                      -1.34460                      10.83454
                       2.15194                      -1.76106                      14.64987
                       2.63499                      -2.05389                      18.50721
                       3.12459                      -2.34214                      22.39674
                       3.61920                      -2.62440                      26.31771
                       4.11502                      -2.90296                      30.26810
                       4.60721                      -3.18173                      34.24268
                       5.08859                      -3.45920                      38.24182
                       5.55125                      -3.73459                      42.26263
                       5.98784                      -4.00650                      46.30199
                       6.39323                      -4.27336                      50.35626
                       6.70718                      -4.49118                      53.74332
                       6.94354                      -4.65448                      56.45760
                       7.17052                      -4.76119                      59.17797
                       7.28291                      -4.85607                      60.53528
        </DataArray>
        <DataArray type="Float32" Name="RotationalVelocity" NumberOfComponents="3" format="ascii">
                       0.91972                       0.01073                      -0.11402
                       0.92086                       0.01077                      -0.11411
                       0.92368                       0.01089                      -0.11434
                       0.92713                       0.01103                      -0.11467
                       0.93239                       0.01126                      -0.11530
                       0.93955                       0.01160                      -0.11648
                       0.94708                       0.01199                      -0.11799
                       0.95461                       0.01236                      -0.11942
                       0.96188                       0.01268                      -0.12028
                       0.96876                       0.01289                      -0.12010
                       0.97514                       0.01294                      -0.11826
                       0.98108                       0.01282                      -0.11465
                       0.98656                       0.01253                      -0.10929
                       0.99151                       0.01210                      -0.10251
                       0.99573                       0.01158                      -0.09501
                       0.99841                       0.01115                      -0.08909
                       0.99980                       0.01086                      -0.08530
                       1.00053                       0.01064                      -0.08247
                       1.00063                       0.01056                      -0.08149
        </DataArray>
        <DataArray type="Float32" Name="TranslationalAcceleration" NumberOfComponents="3" format="ascii">
                       0.18309                      -1.17606                       0.00549
                       0.17644                      -2.33459                      -0.24707
                       0.15090                      -4.64280                      -0.81255
                       0.09645                      -6.97294                      -1.35567
                      -0.02655                      -9.93784                      -1.95221
                      -0.25972                     -13.59450                      -2.37342
                      -0.60498                     -17.34277                      -2.46202
                      -1.08416                     -21.16786                      -2.31953
                      -1.71857                     -25.06305                      -1.94634
                      -2.53479                     -29.01835                      -1.35182
                      -3.53954                     -33.01692                      -0.56970
                      -4.78245                     -37.04924                       0.41267
                      -6.28903                     -41.09700                       1.58465
                      -8.07166                     -45.14124                       2.93345
                     -10.11924                     -49.16453                       4.43985
                     -11.99270                     -52.49557                       5.79232
                     -13.57296                     -55.14404                       6.93040
                     -15.17208                     -57.77102                       8.14172
                     -15.97228                     -59.09829                       8.70538
        </DataArray>
        <DataArray type="Float32" Name="OrientationX" NumberOfComponents="3" format="ascii">
                       0.99352                       0.02324                       0.11128
                       0.99353                       0.02282                       0.11124
                       0.99357                       0.02162                       0.11113
                       0.99362                       0.01998                       0.11099
                       0.99370                       0.01725                       0.11076
                       0.99677                       0.01588                       0.07876
                       0.99838                       0.01271                       0.05547
                       0.99936                       0.00799                       0.03495
                       0.99991                       0.00163                       0.01315
                       0.99993                      -0.00677                      -0.00942
                       0.99936                      -0.01782                      -0.03098
                       0.99814                      -0.03106                      -0.05250
                       0.99633                      -0.04607                      -0.07217
                       0.99425                      -0.06193                      -0.08736
                       0.99181                      -0.07659                      -0.10218
                       0.98972                      -0.08593                      -0.11433
                       0.98828                      -0.09021                      -0.12317
                       0.98752                      -0.09190                      -0.12787
                       0.98754                      -0.09171                      -0.12785
        </DataArray>
        <DataArray type="Float32" Name="OrientationY" NumberOfComponents="3" format="ascii">
                       0.10875                       0.09069                      -0.98992
                       0.10876                       0.09038                      -0.98995
                       0.10879                       0.08960                      -0.99002
                       0.10882                       0.08864                      -0.99010
                       0.10886                       0.08718                      -0.99023
                       0.07715                       0.08467                      -0.99342
                       0.05424                       0.08224                      -0.99513
                       0.03420                       0.07993                      -0.99621
                       0.01298                       0.07778                      -0.99689
                      -0.00887                       0.07590                      -0.99708
                      -0.02957                       0.07435                      -0.99679
                      -0.05011                       0.07321                      -0.99606
                      -0.06872                       0.07249                      -0.99500
                      -0.08285                       0.07203                      -0.99396
                      -0.09671                       0.07203                      -0.99270
                      -0.10825                       0.07242                      -0.99148
                      -0.11679                       0.07294                      -0.99047
                      -0.12136                       0.07326                      -0.98990
                      -0.12135                       0.07327                      -0.98990
        </DataArray>
        <DataArray type="Float32" Name="OrientationZ" NumberOfComponents="3" format="ascii">
                      -0.03310                       0.99561                       0.08758
                      -0.03265                       0.99565                       0.08731
                      -0.03137                       0.99574                       0.08667
                      -0.02962                       0.99586                       0.08590
                      -0.02674                       0.99604                       0.08475
                      -0.02244                       0.99628                       0.08317
                      -0.01721                       0.99653                       0.08142
                      -0.01075                       0.99677                       0.07960
                      -0.00265                       0.99697                       0.07775
                       0.00747                       0.99709                       0.07583
                       0.02006                       0.99707                       0.07377
                       0.03478                       0.99683                       0.07152
                       0.05107                       0.99630                       0.06906
                       0.06785                       0.99548                       0.06648
                       0.08339                       0.99446                       0.06403
                       0.09348                       0.99367                       0.06237
                       0.09834                       0.99325                       0.06155
                       0.10034                       0.99307                       0.06119
                       0.10015                       0.99309                       0.06122
        </DataArray>
      </PointData>
      <Lines>
        <DataArray type="Int32" Name="connectivity" format="ascii">
      0      1
      1      2
      2      3
      3      4
      4      5
      5      6
      6      7
      7      8
      8      9
      9     10
     10     11
     11     12
     12     13
     13     14
     14     15
     15     16
     16     17
     17     18
        </DataArray>
        <DataArray type="Int32" Name="offsets" format="ascii">
      2
      4
      6
      8
     10
     12
     14
     16
     18
     20
     22
     24
     26
     28
     30
     32
     34
     36
        </DataArray>
      </Lines>
    </Piece>
  </PolyData>
</VTKFile>
