<?xml version="1.0"?>
<VTKFile type="PolyData" version="0.1" byte_order="LittleEndian">
  <PolyData>
    <Piece NumberOfPoints="     19" NumberOfVerts="  0" NumberOfLines="     18"
           NumberOfStrips="  0" NumberOfPolys="      0">
      <Points>
        <DataArray type="Float32" NumberOfComponents="3" format="ascii">
                       2.83442                       1.31511                      89.41076
                       2.69618                       2.51497                      88.77113
                       2.40753                       4.95912                      87.57756
                       2.11313                       7.42435                      86.42451
                       1.74173                      10.51856                      85.00736
                       1.33339                      14.16498                      83.17466
                       0.93526                      17.74995                      81.22522
                       0.53471                      21.33358                      79.27379
                       0.13399                      24.91508                      77.31845
                      -0.26751                      28.49536                      75.36099
                      -0.67069                      32.07611                      73.40479
                      -1.07493                      35.65666                      71.44842
                      -1.48082                      39.23698                      69.49200
                      -1.88905                      42.81708                      67.53566
                      -2.29788                      46.39708                      65.57929
                      -2.63899                      49.38040                      63.94895
                      -2.91314                      51.76318                      62.63787
                      -3.19435                      54.11953                      61.27903
                      -3.33123                      55.31762                      60.63605
        </DataArray>
      </Points>
      <PointData>
        <DataArray type="Float32" Name="Force" NumberOfComponents="3" format="ascii">
                      -0.03562                      -0.16204                      -0.29445
                      63.29359                      -4.55904                     -22.06922
                      77.27422                     -17.85083                     -49.84460
                      67.70733                     -27.90832                     -66.54169
                     732.10526                     160.81866                     142.89856
                    1022.36189                     223.26636                     197.16035
                    1157.62846                     213.47994                     150.00435
                    1459.32321                     234.81809                     125.26791
                    1566.26278                     219.60043                      74.14354
                    1789.83619                     224.61837                      35.84574
                    2185.33128                     245.07158                     -10.33087
                    2482.60568                     252.50330                     -59.63457
                    2902.44655                     278.85658                     -99.68827
                    3158.85936                     281.21846                    -149.44776
                    3379.20664                     278.59455                    -200.76826
                    3495.58681                     267.54561                    -245.78643
                    3416.48546                     244.14899                    -272.37501
                    2493.18698                     170.03983                    -213.86661
                    1246.92778                      39.28387                    -192.25687
        </DataArray>
        <DataArray type="Float32" Name="Moment" NumberOfComponents="3" format="ascii">
                       0.00000                       0.00000                       0.00000
                       0.00000                       0.00000                       0.00000
                       0.00000                       0.00000                       0.00000
                       0.00000                       0.00000                       0.00000
                      21.29223                    -185.20679                      99.34704
                      36.55247                    -318.02337                     170.59247
                      52.93633                    -460.70527                     247.13103
                      75.02137                    -653.14110                     350.36045
                     101.67203                    -885.54309                     475.03169
                     115.33314                   -1005.05401                     539.14821
                     121.61104                   -1060.43919                     568.86827
                     129.04588                   -1126.10218                     604.10445
                     114.39305                    -999.04801                     535.95672
                     113.91956                    -995.74376                     534.19561
                     110.21325                    -964.09233                     517.22558
                     104.62521                    -915.66876                     491.25317
                      93.08479                    -814.86196                     437.17335
                      46.89948                    -410.59544                     220.28494
                      42.11875                    -368.73611                     197.82729
        </DataArray>
        <DataArray type="Float32" Name="TranslationalVelocity" NumberOfComponents="3" format="ascii">
                       0.15450                       0.67813                       1.22452
                       0.29186                       1.29264                       2.34758
                       0.57201                       2.44272                       4.63481
                       0.85627                       3.55511                       6.94024
                       1.21661                       4.92282                       9.83112
                       1.64798                       6.68214                      13.23370
                       2.08109                       8.54750                      16.57379
                       2.52424                      10.41315                      19.90720
                       2.97953                      12.28078                      23.23314
                       3.44975                      14.14905                      26.55240
                       3.93609                      16.01532                      29.86708
                       4.44317                      17.88100                      33.17585
                       4.97362                      19.74634                      36.47856
                       5.52890                      21.61147                      39.77519
                       6.10831                      23.47638                      43.06626
                       6.60657                      25.03036                      45.80532
                       7.01245                      26.27987                      47.99123
                       7.41752                      27.57437                      50.15213
                       7.62227                      28.18749                      51.25099
        </DataArray>
        <DataArray type="Float32" Name="RotationalVelocity" NumberOfComponents="3" format="ascii">
                       0.93638                      -0.00143                      -0.11349
                       0.93617                      -0.00154                      -0.11366
                       0.93568                      -0.00186                      -0.11414
                       0.93508                      -0.00228                      -0.11480
                       0.93419                      -0.00296                      -0.11588
                       0.93296                      -0.00396                      -0.11748
                       0.93164                      -0.00514                      -0.11940
                       0.93028                      -0.00654                      -0.12170
                       0.92894                      -0.00819                      -0.12450
                       0.92762                      -0.01016                      -0.12790
                       0.92632                      -0.01252                      -0.13200
                       0.92502                      -0.01518                      -0.13670
                       0.92373                      -0.01808                      -0.14182
                       0.92249                      -0.02101                      -0.14702
                       0.92138                      -0.02369                      -0.15177
                       0.92067                      -0.02540                      -0.15480
                       0.92033                      -0.02618                      -0.15620
                       0.92020                      -0.02646                      -0.15669
                       0.92022                      -0.02639                      -0.15655
        </DataArray>
        <DataArray type="Float32" Name="TranslationalAcceleration" NumberOfComponents="3" format="ascii">
                       0.30269                      -1.18875                       0.40938
                       0.41728                      -2.25540                       0.97547
                       0.65204                      -4.43170                       2.01572
                       0.94609                      -6.63800                       2.96444
                       1.44355                      -9.42235                       4.02913
                       2.29410                     -12.74859                       5.26760
                       3.47882                     -16.08749                       6.42377
                       5.04719                     -19.48247                       7.38246
                       7.09388                     -22.92701                       8.14271
                       9.74014                     -26.41064                       8.70086
                      13.04131                     -29.91934                       9.07129
                      17.20869                     -33.44450                       9.22724
                      22.37229                     -36.97601                       9.15964
                      28.61154                     -40.50627                       8.86353
                      35.91294                     -44.03419                       8.34947
                      42.68700                     -46.97270                       7.78068
                      48.46059                     -49.32236                       7.26011
                      54.35600                     -51.66562                       6.76588
                      57.29997                     -52.84009                       6.47858
        </DataArray>
        <DataArray type="Float32" Name="OrientationX" NumberOfComponents="3" format="ascii">
                       0.98700                       0.14761                       0.06357
                       0.98700                       0.14761                       0.06357
                       0.98700                       0.14760                       0.06357
                       0.98700                       0.14760                       0.06358
                       0.98700                       0.14758                       0.06358
                       0.99050                       0.13289                       0.03548
                       0.99239                       0.12219                       0.01520
                       0.99362                       0.11279                      -0.00251
                       0.99447                       0.10281                      -0.02122
                       0.99489                       0.09248                      -0.04045
                       0.99485                       0.08266                      -0.05861
                       0.99440                       0.07288                      -0.07659
                       0.99362                       0.06397                      -0.09284
                       0.99281                       0.05718                      -0.10514
                       0.99182                       0.05050                      -0.11722
                       0.99085                       0.04492                      -0.12731
                       0.99003                       0.04077                      -0.13480
                       0.98957                       0.03856                      -0.13882
                       0.98957                       0.03856                      -0.13882
        </DataArray>
        <DataArray type="Float32" Name="OrientationY" NumberOfComponents="3" format="ascii">
                       0.12515                      -0.45776                      -0.88022
                       0.12515                      -0.45777                      -0.88022
                       0.12515                      -0.45777                      -0.88022
                       0.12515                      -0.45778                      -0.88021
                       0.12515                      -0.45779                      -0.88021
                       0.09361                      -0.46228                      -0.88178
                       0.07080                      -0.46523                      -0.88235
                       0.05086                      -0.46761                      -0.88247
                       0.02976                      -0.46991                      -0.88221
                       0.00804                      -0.47206                      -0.88153
                      -0.01250                      -0.47388                      -0.88050
                      -0.03286                      -0.47549                      -0.87911
                      -0.05130                      -0.47677                      -0.87753
                      -0.06527                      -0.47763                      -0.87613
                      -0.07901                      -0.47838                      -0.87459
                      -0.09048                      -0.47894                      -0.87317
                      -0.09900                      -0.47931                      -0.87204
                      -0.10356                      -0.47950                      -0.87141
                      -0.10356                      -0.47950                      -0.87141
        </DataArray>
        <DataArray type="Float32" Name="OrientationZ" NumberOfComponents="3" format="ascii">
                      -0.10083                       0.87673                      -0.47029
                      -0.10083                       0.87673                      -0.47029
                      -0.10082                       0.87673                      -0.47029
                      -0.10081                       0.87673                      -0.47030
                      -0.10080                       0.87672                      -0.47031
                      -0.10077                       0.87672                      -0.47033
                      -0.10075                       0.87671                      -0.47034
                      -0.10071                       0.87671                      -0.47036
                      -0.10067                       0.87670                      -0.47038
                      -0.10062                       0.87670                      -0.47039
                      -0.10056                       0.87670                      -0.47041
                      -0.10048                       0.87670                      -0.47043
                      -0.10040                       0.87670                      -0.47045
                      -0.10032                       0.87670                      -0.47047
                      -0.10024                       0.87670                      -0.47048
                      -0.10019                       0.87670                      -0.47049
                      -0.10017                       0.87670                      -0.47050
                      -0.10016                       0.87670                      -0.47050
                      -0.10016                       0.87670                      -0.47050
        </DataArray>
      </PointData>
      <Lines>
        <DataArray type="Int32" Name="connectivity" format="ascii">
      0      1
      1      2
      2      3
      3      4
      4      5
      5      6
      6      7
      7      8
      8      9
      9     10
     10     11
     11     12
     12     13
     13     14
     14     15
     15     16
     16     17
     17     18
        </DataArray>
        <DataArray type="Int32" Name="offsets" format="ascii">
      2
      4
      6
      8
     10
     12
     14
     16
     18
     20
     22
     24
     26
     28
     30
     32
     34
     36
        </DataArray>
      </Lines>
    </Piece>
  </PolyData>
</VTKFile>
