<?xml version="1.0"?>
<VTKFile type="PolyData" version="0.1" byte_order="LittleEndian">
  <PolyData>
    <Piece NumberOfPoints="     17" NumberOfVerts="  0" NumberOfLines="      0"
           NumberOfStrips="  0" NumberOfPolys="      0">
      <Points>
        <DataArray type="Float32" NumberOfComponents="3" format="ascii">
                       3.07596                       1.15600                      93.22382
                       3.32802                       2.43899                      96.59691
                       3.58925                       3.71983                      99.97012
                       3.86320                       4.99775                     103.34343
                       4.15289                       6.27233                     106.71668
                       4.46154                       7.54332                     110.08959
                       4.79311                       8.81047                     113.46178
                       5.15250                      10.07345                     116.83266
                       5.54553                      11.33197                     120.20144
                       5.97869                      12.58582                     123.56702
                       6.45856                      13.83494                     126.92801
                       6.99097                      15.07938                     130.28280
                       7.57992                      16.31941                     133.62978
                       8.22624                      17.55542                     136.96769
                       8.92597                      18.78801                     140.29615
                       9.66851                      20.01813                     143.61635
                      10.43451                      21.24699                     146.93175
        </DataArray>
      </Points>
      <PointData>
        <DataArray type="Float32" Name="Force" NumberOfComponents="3" format="ascii">
                     196.53183                      67.56794                     -40.25794
                     636.79825                     212.17618                    -130.03063
                    2461.53831                    -782.33070                      98.93052
                    4221.55044                   -1488.78665                     209.64859
                    2560.44872                    -827.83802                      87.90545
                    5453.10529                   -1536.41877                      72.39568
                    6504.70369                   -1577.88116                     -60.63054
                    7202.16972                   -1518.45951                    -223.87546
                    7673.79846                   -1437.27171                    -395.14636
                    9579.27217                   -1613.46222                    -690.99029
                   10915.43995                   -1683.41501                   -1020.50164
                   12325.15573                   -1806.82975                   -1405.91501
                    7009.68391                    -990.23930                    -910.97119
                   13849.15483                   -1872.45289                   -2024.79858
                   13178.42349                   -1674.88922                   -2169.94640
                   18331.38107                   -2093.04309                   -3334.63512
                    7428.33007                    -705.07640                   -1442.24934
        </DataArray>
        <DataArray type="Float32" Name="Moment" NumberOfComponents="3" format="ascii">
                     -20.31239                      22.84505                      -1.65141
                     141.18894                     424.13304                    -104.80564
                     957.68085                    2465.34149                    -671.49782
                    1218.93724                    3463.18205                    -417.68378
                      90.98149                     416.94714                     361.85215
                    -785.73963                   -2248.84599                    1599.74675
                    -511.09188                   -1590.24708                     836.82162
                    -223.25463                    -334.40259                    -410.64848
                    -100.57011                     377.81610                    -926.12723
                       4.28035                    1303.41077                   -1227.06368
                     284.63882                    3782.37767                   -2147.31361
                     643.89220                    7203.00634                   -3014.72745
                     -66.15535                    -481.12852                     156.99866
                    -803.43845                   -8957.50959                    3385.61068
                    -621.87787                   -8235.35251                    3068.62318
                    -306.99868                   -1542.63678                     370.66396
                    -152.91718                     101.11412                    -272.76790
        </DataArray>
      </PointData>
    </Piece>
  </PolyData>
</VTKFile>
