<?xml version="1.0"?>
<VTKFile type="PolyData" version="0.1" byte_order="LittleEndian">
  <PolyData>
    <Piece NumberOfPoints="     19" NumberOfVerts="  0" NumberOfLines="     18"
           NumberOfStrips="  0" NumberOfPolys="      0">
      <Points>
        <DataArray type="Float32" NumberOfComponents="3" format="ascii">
                       3.20576                      -0.99535                      91.27451
                       3.27515                      -1.88841                      92.30675
                       3.38497                      -3.74601                      94.31149
                       3.48414                      -5.63871                      96.28659
                       3.60707                      -8.02748                      98.73559
                       3.83209                     -10.79160                     101.75678
                       4.11007                     -13.46379                     104.85343
                       4.40899                     -16.14009                     107.94459
                       4.73693                     -18.81942                     111.03027
                       5.09967                     -21.50316                     114.10826
                       5.49824                     -24.19318                     117.17637
                       5.94478                     -26.88830                     120.23345
                       6.44502                     -29.58741                     123.27873
                       7.00161                     -32.28914                     126.31196
                       7.61445                     -34.99208                     129.33335
                       8.16088                     -37.24463                     131.84372
                       8.61610                     -39.04053                     133.85357
                       9.07918                     -40.79540                     135.89907
                       9.30663                     -41.70393                     136.89433
        </DataArray>
      </Points>
      <PointData>
        <DataArray type="Float32" Name="Force" NumberOfComponents="3" format="ascii">
                       0.34321                       3.20476                       2.73422
                      70.65116                      20.07683                      12.46042
                      90.51300                      46.60586                      33.80009
                      82.47123                      60.66223                      46.29466
                     645.89054                    -219.27705                    -237.60465
                     842.28915                    -246.31805                    -280.49416
                     953.19414                    -223.83105                    -276.74960
                    1205.46991                    -231.54154                    -315.85317
                    1282.27895                    -192.49307                    -302.93493
                    1459.86665                    -173.89491                    -324.30923
                    1800.41220                    -158.04208                    -378.75861
                    2041.96978                    -125.29837                    -418.62518
                    2414.19109                    -108.42624                    -506.53083
                    2647.34252                     -65.34484                    -560.09343
                    2894.69737                     -24.85392                    -622.90880
                    3061.26771                       7.40771                    -663.54130
                    3128.85185                      24.56070                    -679.16842
                    2460.45705                      13.54075                    -543.19841
                    1282.61314                      74.17161                    -223.50762
        </DataArray>
        <DataArray type="Float32" Name="Moment" NumberOfComponents="3" format="ascii">
                       0.00000                       0.00000                       0.00000
                       0.00000                       0.00000                       0.00000
                       0.00000                       0.00000                       0.00000
                       0.00000                       0.00000                       0.00000
                     -10.15553                     115.88109                    -134.54880
                     -25.31679                     269.44920                    -312.64202
                     -36.80464                     361.63209                    -419.24706
                     -57.28738                     514.38975                    -595.72240
                     -87.67322                     712.01087                    -823.53886
                    -110.42398                     803.48444                    -927.89877
                    -134.84023                     871.56281                   -1004.62824
                    -162.06801                     929.07015                   -1068.61457
                    -156.17518                     797.41591                    -915.04308
                    -173.72480                     798.66820                    -914.30801
                    -184.11235                     776.09655                    -886.54804
                    -184.19732                     737.72641                    -841.56396
                    -167.05236                     654.29789                    -745.92995
                     -84.66813                     329.26565                    -375.30261
                     -73.41644                     286.26041                    -326.30876
        </DataArray>
        <DataArray type="Float32" Name="TranslationalVelocity" NumberOfComponents="3" format="ascii">
                       0.21324                      -1.05618                      -0.83599
                       0.12262                      -2.00536                      -1.65109
                      -0.06798                      -3.84668                      -3.34695
                      -0.26468                      -5.66217                      -5.07725
                      -0.51676                      -7.91743                      -7.26558
                      -0.81210                     -10.71524                      -9.80560
                      -1.10276                     -13.59784                     -12.26950
                      -1.40123                     -16.48773                     -14.74510
                      -1.70824                     -19.38571                     -17.23104
                      -2.02520                     -22.29001                     -19.72797
                      -2.35265                     -25.19733                     -22.23617
                      -2.69309                     -28.10839                     -24.75429
                      -3.04791                     -31.02264                     -27.28020
                      -3.41789                     -33.93959                     -29.81145
                      -3.80262                     -36.85868                     -32.34560
                      -4.13279                     -39.29259                     -34.45814
                      -4.40111                     -41.24538                     -36.14252
                      -4.66607                     -43.23340                     -37.78825
                      -4.80258                     -44.20104                     -38.64041
        </DataArray>
        <DataArray type="Float32" Name="RotationalVelocity" NumberOfComponents="3" format="ascii">
                       0.91140                       0.01113                      -0.11401
                       0.91186                       0.01099                      -0.11417
                       0.91298                       0.01060                      -0.11458
                       0.91435                       0.01010                      -0.11510
                       0.91641                       0.00932                      -0.11592
                       0.91923                       0.00824                      -0.11703
                       0.92222                       0.00707                      -0.11824
                       0.92520                       0.00577                      -0.11956
                       0.92805                       0.00428                      -0.12103
                       0.93069                       0.00255                      -0.12270
                       0.93306                       0.00050                      -0.12463
                       0.93515                      -0.00185                      -0.12679
                       0.93698                      -0.00443                      -0.12913
                       0.93851                      -0.00709                      -0.13153
                       0.93971                      -0.00958                      -0.13375
                       0.94042                      -0.01123                      -0.13521
                       0.94074                      -0.01205                      -0.13594
                       0.94087                      -0.01243                      -0.13628
                       0.94087                      -0.01244                      -0.13629
        </DataArray>
        <DataArray type="Float32" Name="TranslationalAcceleration" NumberOfComponents="3" format="ascii">
                      -0.63687                       0.76940                      -1.22806
                      -0.82620                       1.47685                      -2.12767
                      -1.19456                       2.96332                      -3.87301
                      -1.55004                       4.50742                      -5.57612
                      -1.97563                       6.50435                      -7.65499
                      -2.47207                       8.89035                     -10.17113
                      -2.95171                      11.29854                     -12.69984
                      -3.40839                      13.81523                     -15.16945
                      -3.84929                      16.43878                     -17.58065
                      -4.28419                      19.16644                     -19.93280
                      -4.72343                      21.98441                     -22.23083
                      -5.17957                      24.89396                     -24.47081
                      -5.66524                      27.88467                     -26.65525
                      -6.19079                      30.94415                     -28.78810
                      -6.76182                      34.05803                     -30.87534
                      -7.27079                      36.68246                     -32.58748
                      -7.69801                      38.79104                     -33.95014
                      -8.14154                      40.87584                     -35.35136
                      -8.35904                      41.93992                     -36.01954
        </DataArray>
        <DataArray type="Float32" Name="OrientationX" NumberOfComponents="3" format="ascii">
                       0.94996                      -0.20214                      -0.23814
                       0.94994                      -0.20184                      -0.23849
                       0.94987                      -0.20100                      -0.23946
                       0.94978                      -0.19986                      -0.24079
                       0.94962                      -0.19795                      -0.24300
                       0.95870                      -0.17167                      -0.22675
                       0.96450                      -0.15118                      -0.21652
                       0.96899                      -0.13203                      -0.20885
                       0.97319                      -0.11106                      -0.20141
                       0.97686                      -0.08851                      -0.19469
                       0.97959                      -0.06553                      -0.19003
                       0.98156                      -0.04163                      -0.18655
                       0.98257                      -0.01843                      -0.18499
                       0.98248                       0.00149                      -0.18635
                       0.98218                       0.02037                      -0.18681
                       0.98210                       0.03439                      -0.18520
                       0.98230                       0.04324                      -0.18223
                       0.98251                       0.04746                      -0.18006
                       0.98258                       0.04717                      -0.17974
        </DataArray>
        <DataArray type="Float32" Name="OrientationY" NumberOfComponents="3" format="ascii">
                       0.30814                       0.73134                       0.60843
                       0.30815                       0.73127                       0.60852
                       0.30816                       0.73108                       0.60874
                       0.30818                       0.73084                       0.60901
                       0.30821                       0.73049                       0.60941
                       0.27781                       0.73591                       0.61746
                       0.25574                       0.73911                       0.62315
                       0.23638                       0.74144                       0.62800
                       0.21584                       0.74352                       0.63292
                       0.19463                       0.74522                       0.63778
                       0.17452                       0.74638                       0.64223
                       0.15455                       0.74709                       0.64651
                       0.13646                       0.74729                       0.65034
                       0.12277                       0.74710                       0.65328
                       0.10931                       0.74670                       0.65612
                       0.09803                       0.74623                       0.65843
                       0.08963                       0.74582                       0.66009
                       0.08512                       0.74558                       0.66096
                       0.08511                       0.74558                       0.66096
        </DataArray>
        <DataArray type="Float32" Name="OrientationZ" NumberOfComponents="3" format="ascii">
                       0.05118                      -0.65136                       0.75704
                       0.05157                      -0.65154                       0.75686
                       0.05271                      -0.65202                       0.75637
                       0.05426                      -0.65263                       0.75573
                       0.05687                      -0.65360                       0.75470
                       0.06087                      -0.65496                       0.75321
                       0.06582                      -0.65640                       0.75154
                       0.07194                      -0.65790                       0.74966
                       0.07946                      -0.65943                       0.74756
                       0.08864                      -0.66092                       0.74520
                       0.09975                      -0.66228                       0.74258
                       0.11246                      -0.66342                       0.73975
                       0.12625                      -0.66424                       0.73678
                       0.14019                      -0.66471                       0.73383
                       0.15286                      -0.66485                       0.73117
                       0.16084                      -0.66480                       0.72950
                       0.16445                      -0.66474                       0.72875
                       0.16562                      -0.66473                       0.72849
                       0.16519                      -0.66475                       0.72858
        </DataArray>
      </PointData>
      <Lines>
        <DataArray type="Int32" Name="connectivity" format="ascii">
      0      1
      1      2
      2      3
      3      4
      4      5
      5      6
      6      7
      7      8
      8      9
      9     10
     10     11
     11     12
     12     13
     13     14
     14     15
     15     16
     16     17
     17     18
        </DataArray>
        <DataArray type="Int32" Name="offsets" format="ascii">
      2
      4
      6
      8
     10
     12
     14
     16
     18
     20
     22
     24
     26
     28
     30
     32
     34
     36
        </DataArray>
      </Lines>
    </Piece>
  </PolyData>
</VTKFile>
