<?xml version="1.0"?>
<VTKFile type="PolyData" version="0.1" byte_order="LittleEndian">
  <PolyData>
    <Piece NumberOfPoints="     19" NumberOfVerts="  0" NumberOfLines="     18"
           NumberOfStrips="  0" NumberOfPolys="      0">
      <Points>
        <DataArray type="Float32" NumberOfComponents="3" format="ascii">
                       2.93311                      -0.08153                      88.67527
                       2.70057                      -0.12609                      87.32923
                       2.21404                      -0.12047                      84.63755
                       1.72050                      -0.06971                      81.94541
                       1.10475                       0.02135                      78.57885
                       0.43190                      -0.01096                      74.53287
                      -0.19842                      -0.17139                      70.48443
                      -0.80833                      -0.33230                      66.43290
                      -1.38956                      -0.49504                      62.37722
                      -1.93548                      -0.65722                      58.31663
                      -2.44389                      -0.81522                      54.25106
                      -2.90126                      -0.97014                      50.17934
                      -3.30028                      -1.12229                      46.10141
                      -3.63679                      -1.27222                      42.01777
                      -3.90988                      -1.42055                      37.92934
                      -4.09632                      -1.54353                      34.51973
                      -4.22475                      -1.64967                      31.79127
                      -4.34778                      -1.81082                      29.06414
                      -4.40981                      -1.84973                      27.69946
        </DataArray>
      </Points>
      <PointData>
        <DataArray type="Float32" Name="Force" NumberOfComponents="3" format="ascii">
                       0.00952                      -2.09089                       0.07298
                      54.10022                     -21.50153                      -8.54600
                      70.58957                     -53.67233                     -10.15096
                      65.23968                     -72.59767                      -8.45349
                     584.53736                     237.34893                    -105.80601
                     801.20977                     274.61433                    -139.90346
                     985.69738                     282.69246                    -165.14390
                    1338.20248                     331.05253                    -213.91207
                    1523.73616                     321.37286                    -229.64392
                    1843.30699                     347.03452                    -258.39933
                    2366.74251                     398.65657                    -301.67941
                    2834.48873                     440.37206                    -320.45231
                    3420.50228                     513.94068                    -333.58444
                    3907.65641                     557.60252                    -318.58716
                    4375.75521                     599.56823                    -292.38431
                    4719.27991                     622.46569                    -270.26464
                    4765.32164                     601.35821                    -250.71554
                    3549.26134                     425.58221                    -179.68561
                    1348.43137                     -13.37060                     -62.44982
        </DataArray>
        <DataArray type="Float32" Name="Moment" NumberOfComponents="3" format="ascii">
                       0.00000                       0.00000                       0.00000
                       0.00000                       0.00000                       0.00000
                       0.00000                       0.00000                       0.00000
                       0.00000                       0.00000                       0.00000
                      29.60341                       6.33965                     177.76878
                      63.18901                      13.86884                     389.09854
                      81.97489                      18.56025                     521.05632
                     112.85026                      26.59167                     747.12819
                     147.66709                      36.66230                    1031.10919
                     154.94137                      41.21652                    1160.63797
                     146.20424                      42.66897                    1203.39021
                     136.08540                      44.78219                    1265.25331
                     107.58266                      41.20969                    1166.61934
                      89.84226                      41.40156                    1174.42998
                      70.39379                      39.95148                    1135.42213
                      56.85203                      37.96109                    1080.16402
                      46.79188                      34.11153                     971.18678
                      23.24141                      17.58319                     500.72425
                      21.04313                      15.83682                     450.97766
        </DataArray>
        <DataArray type="Float32" Name="TranslationalVelocity" NumberOfComponents="3" format="ascii">
                      -0.01441                       1.34520                      -0.03421
                      -0.01957                       2.61694                      -0.07542
                      -0.01876                       5.16422                      -0.07013
                      -0.01321                       7.71791                      -0.02258
                      -0.00417                      10.92034                       0.06355
                      -0.01129                      14.77609                       0.03621
                      -0.03511                      18.64736                      -0.11092
                      -0.06326                      22.53734                      -0.25871
                      -0.10367                      26.44453                      -0.40743
                      -0.16902                      30.36647                      -0.55330
                      -0.27073                      34.29933                      -0.69175
                      -0.43198                      38.24151                      -0.82221
                      -0.67358                      42.19029                      -0.94470
                      -1.01304                      46.14332                      -1.06084
                      -1.45941                      50.09855                      -1.17363
                      -1.90777                      53.39532                      -1.26732
                      -2.31129                      56.03268                      -1.35041
                      -2.74393                      58.66869                      -1.48619
                      -2.95767                      59.98787                      -1.51389
        </DataArray>
        <DataArray type="Float32" Name="RotationalVelocity" NumberOfComponents="3" format="ascii">
                       0.92364                      -0.00013                      -0.11847
                       0.92432                      -0.00010                      -0.11859
                       0.92595                       0.00011                      -0.11888
                       0.92795                       0.00038                      -0.11924
                       0.93100                       0.00074                      -0.11978
                       0.93519                       0.00104                      -0.12051
                       0.93956                       0.00160                      -0.12128
                       0.94375                       0.00335                      -0.12207
                       0.94748                       0.00743                      -0.12286
                       0.95063                       0.01498                      -0.12367
                       0.95310                       0.02741                      -0.12454
                       0.95507                       0.04467                      -0.12550
                       0.95669                       0.06632                      -0.12655
                       0.95804                       0.09100                      -0.12766
                       0.95917                       0.11616                      -0.12876
                       0.95992                       0.13445                      -0.12954
                       0.96029                       0.14502                      -0.12998
                       0.96044                       0.15173                      -0.13024
                       0.96042                       0.15340                      -0.13030
        </DataArray>
        <DataArray type="Float32" Name="TranslationalAcceleration" NumberOfComponents="3" format="ascii">
                      -1.11965                       0.02909                       1.13247
                      -0.91114                       0.10064                       2.29692
                      -0.48933                       0.16599                       4.63172
                      -0.05099                       0.20716                       6.97628
                       0.53114                       0.26220                       9.92249
                       1.29116                       0.50004                      13.47410
                       2.13572                       0.91160                      17.03959
                       3.08081                       1.38612                      20.62465
                       4.13824                       1.92387                      24.22688
                       5.31610                       2.51967                      27.84398
                       6.60598                       3.16144                      31.47368
                       8.01990                       3.85283                      35.11928
                       9.55190                       4.59227                      38.78599
                      11.18871                       5.37968                      42.48177
                      12.90788                       6.21478                      46.21502
                      14.37939                       6.94393                      49.35632
                      15.56411                       7.55212                      51.88690
                      16.72314                       8.21913                      54.41741
                      17.30528                       8.51465                      55.69063
        </DataArray>
        <DataArray type="Float32" Name="OrientationX" NumberOfComponents="3" format="ascii">
                       0.95793                       0.22863                      -0.17348
                       0.95800                       0.22865                      -0.17307
                       0.95820                       0.22869                      -0.17192
                       0.95847                       0.22875                      -0.17034
                       0.95891                       0.22884                      -0.16771
                       0.96646                       0.19783                      -0.16380
                       0.97160                       0.17541                      -0.15884
                       0.97592                       0.15581                      -0.15263
                       0.98020                       0.13508                      -0.14481
                       0.98429                       0.11374                      -0.13504
                       0.98799                       0.09359                      -0.12295
                       0.99133                       0.07363                      -0.10886
                       0.99408                       0.05559                      -0.09332
                       0.99611                       0.04203                      -0.07743
                       0.99762                       0.02865                      -0.06269
                       0.99844                       0.01738                      -0.05306
                       0.99879                       0.00892                      -0.04839
                       0.99891                       0.00437                      -0.04651
                       0.99890                       0.00436                      -0.04675
        </DataArray>
        <DataArray type="Float32" Name="OrientationY" NumberOfComponents="3" format="ascii">
                       0.23126                      -0.97288                      -0.00519
                       0.23127                      -0.97288                      -0.00512
                       0.23130                      -0.97287                      -0.00495
                       0.23134                      -0.97286                      -0.00474
                       0.23139                      -0.97285                      -0.00442
                       0.20075                      -0.97964                       0.00131
                       0.17853                      -0.98392                       0.00547
                       0.15904                      -0.98723                       0.00907
                       0.13835                      -0.99030                       0.01268
                       0.11696                      -0.99301                       0.01615
                       0.09666                      -0.99513                       0.01923
                       0.07645                      -0.99683                       0.02198
                       0.05808                      -0.99802                       0.02419
                       0.04413                      -0.99870                       0.02565
                       0.03038                      -0.99918                       0.02682
                       0.01886                      -0.99944                       0.02759
                       0.01028                      -0.99955                       0.02806
                       0.00569                      -0.99958                       0.02829
                       0.00569                      -0.99958                       0.02829
        </DataArray>
        <DataArray type="Float32" Name="OrientationZ" NumberOfComponents="3" format="ascii">
                      -0.16996                      -0.03515                      -0.98482
                      -0.16955                      -0.03512                      -0.98490
                      -0.16839                      -0.03502                      -0.98510
                      -0.16680                      -0.03486                      -0.98537
                      -0.16417                      -0.03457                      -0.98583
                      -0.16020                      -0.03414                      -0.98649
                      -0.15532                      -0.03368                      -0.98729
                      -0.14927                      -0.03312                      -0.98824
                      -0.14169                      -0.03246                      -0.98938
                      -0.13226                      -0.03169                      -0.99071
                      -0.12055                      -0.03088                      -0.99223
                      -0.10689                      -0.03012                      -0.99381
                      -0.09179                      -0.02946                      -0.99534
                      -0.07625                      -0.02897                      -0.99667
                      -0.06187                      -0.02866                      -0.99767
                      -0.05255                      -0.02855                      -0.99821
                      -0.04812                      -0.02852                      -0.99843
                      -0.04636                      -0.02852                      -0.99852
                      -0.04661                      -0.02852                      -0.99851
        </DataArray>
      </PointData>
      <Lines>
        <DataArray type="Int32" Name="connectivity" format="ascii">
      0      1
      1      2
      2      3
      3      4
      4      5
      5      6
      6      7
      7      8
      8      9
      9     10
     10     11
     11     12
     12     13
     13     14
     14     15
     15     16
     16     17
     17     18
        </DataArray>
        <DataArray type="Int32" Name="offsets" format="ascii">
      2
      4
      6
      8
     10
     12
     14
     16
     18
     20
     22
     24
     26
     28
     30
     32
     34
     36
        </DataArray>
      </Lines>
    </Piece>
  </PolyData>
</VTKFile>
