<?xml version="1.0"?>
<VTKFile type="PolyData" version="0.1" byte_order="LittleEndian">
  <PolyData>
    <Piece NumberOfPoints="     17" NumberOfVerts="  0" NumberOfLines="      0"
           NumberOfStrips="  0" NumberOfPolys="      0">
      <Points>
        <DataArray type="Float32" NumberOfComponents="3" format="ascii">
                       3.11834                      -3.19033                      91.15395
                       3.10314                      -6.63974                      92.24423
                       3.09558                     -10.09063                      93.32988
                       3.09875                     -13.54345                      94.40939
                       3.11536                     -16.99845                      95.48176
                       3.14833                     -20.45576                      96.54629
                       3.20106                     -23.91542                      97.60232
                       3.27761                     -27.37742                      98.64914
                       3.38271                     -30.84164                      99.68608
                       3.52155                     -34.30779                     100.71252
                       3.69927                     -37.77538                     101.72801
                       3.92038                     -41.24371                     102.73233
                       4.18782                     -44.71196                     103.72567
                       4.50191                     -48.17926                     104.70864
                       4.85906                     -51.64500                     105.68256
                       5.25023                     -55.10904                     106.64966
                       5.65922                     -58.57202                     107.61328
        </DataArray>
      </Points>
      <PointData>
        <DataArray type="Float32" Name="Force" NumberOfComponents="3" format="ascii">
                     208.85203                      24.24404                      79.78143
                     661.93487                      70.84136                     228.33685
                    2056.81699                    -296.73245                    -945.45224
                    3380.94245                    -485.88184                   -1586.69677
                    2048.28545                    -258.09788                    -872.09758
                    4435.58338                    -482.43731                   -1714.31156
                    5380.67766                    -483.70632                   -1875.88179
                    5982.39620                    -423.13582                   -1884.75997
                    6452.25237                    -344.33282                   -1880.85191
                    8184.24216                    -291.98625                   -2221.76004
                    9426.22164                    -166.49626                   -2416.32231
                   10893.90003                      -9.94716                   -2714.49048
                    6262.15085                      75.03152                   -1524.13597
                   12429.26636                     314.36058                   -2934.78128
                   11871.69471                     477.64015                   -2688.77624
                   16614.83857                     892.57747                   -3535.03746
                    6954.29725                     434.95498                   -1352.68555
        </DataArray>
        <DataArray type="Float32" Name="Moment" NumberOfComponents="3" format="ascii">
                     -17.14106                       3.21086                      26.00591
                     185.39609                      43.12506                     359.26157
                    1156.05940                     314.84586                    2064.49314
                    1221.90064                     408.61729                    2660.65185
                      72.02523                     -44.92644                     236.63086
                    -949.51131                    -589.01914                   -2041.10239
                    -646.97201                     118.31543                   -1572.01088
                    -188.48541                    1309.50663                    -538.08434
                      27.59238                    1673.33472                     124.23854
                     212.75449                    1946.71309                     908.82169
                     769.50065                    2543.70602                    3114.05974
                    1548.15423                    2769.52588                    6380.49950
                    -140.79970                     117.91386                    -510.04476
                   -1974.49932                   -2002.95716                   -8265.83849
                   -1720.44848                   -1838.04202                   -7619.23866
                    -479.61064                     246.21087                   -1447.65717
                     -68.93047                     447.51947                     248.41898
        </DataArray>
      </PointData>
    </Piece>
  </PolyData>
</VTKFile>
