<?xml version="1.0"?>
<VTKFile type="PolyData" version="0.1" byte_order="LittleEndian">
  <PolyData>
    <Piece NumberOfPoints="     17" NumberOfVerts="  0" NumberOfLines="      0"
           NumberOfStrips="  0" NumberOfPolys="      0">
      <Points>
        <DataArray type="Float32" NumberOfComponents="3" format="ascii">
                       2.59272                      -1.21745                      87.09794
                       2.02483                      -2.52824                      83.77428
                       1.46747                      -3.83740                      80.44821
                       0.92470                      -5.14425                      77.11882
                       0.40000                      -6.44841                      73.78548
                      -0.10304                      -7.74968                      70.44769
                      -0.58023                      -9.04781                      67.10489
                      -1.02654                     -10.34245                      63.75648
                      -1.43605                     -11.63329                      60.40194
                      -1.80230                     -12.92009                      57.04085
                      -2.11878                     -14.20272                      53.67315
                      -2.37977                     -15.48119                      50.29911
                      -2.58149                     -16.75569                      46.91949
                      -2.72343                     -18.02654                      43.53541
                      -2.81010                     -19.29429                      40.14821
                      -2.85297                     -20.55978                      36.75921
                      -2.87273                     -21.82420                      33.36950
        </DataArray>
      </Points>
      <PointData>
        <DataArray type="Float32" Name="Force" NumberOfComponents="3" format="ascii">
                     137.11986                     -78.81920                       7.56104
                     507.25016                    -259.59060                      17.36850
                    1863.87635                     596.28359                    -539.64125
                    3128.84511                    1018.67687                    -898.07529
                    1911.43466                     544.99542                    -508.31622
                    4146.81559                    1031.01290                   -1017.14122
                    5007.86628                    1061.26663                   -1111.08220
                    5536.28227                     990.37224                   -1095.11747
                    5947.19118                     924.40653                   -1045.45380
                    7564.59683                    1030.06269                   -1162.03064
                    8750.25894                    1072.04197                   -1149.87807
                    9936.75637                    1171.18461                   -1105.62085
                    5713.30102                     654.46717                    -547.21327
                   11518.63968                    1287.19280                    -929.17837
                   11418.25205                    1267.84794                    -744.74914
                   17419.43565                    1951.36012                    -938.65437
                    7787.17706                     863.11489                    -384.12360
        </DataArray>
        <DataArray type="Float32" Name="Moment" NumberOfComponents="3" format="ascii">
                     -19.34586                     -19.16816                       7.23606
                     121.29551                    -358.21913                      61.06795
                     841.44221                   -1956.93108                     272.43371
                     862.48403                   -2543.57369                     394.43059
                      34.31830                    -240.96524                     -51.52900
                    -716.70682                    1912.22448                    -612.52950
                    -406.25083                    1521.88444                     100.07228
                      31.44891                     643.94864                    1299.06828
                     199.36848                      59.31123                    1736.47353
                     316.20070                    -640.39201                    2142.71136
                     626.31592                   -2594.61898                    2869.63577
                     969.39417                   -5419.35901                    3297.65417
                     -41.07414                     549.57607                     353.53332
                   -1024.39297                    7553.63989                   -1785.97645
                    -918.12112                    7015.15456                   -1813.10710
                     -22.02772                     531.11877                     475.08640
                     -54.98361                    -155.54003                     247.14102
        </DataArray>
      </PointData>
    </Piece>
  </PolyData>
</VTKFile>
