<?xml version="1.0"?>
<VTKFile type="PolyData" version="0.1" byte_order="LittleEndian">
  <PolyData>
    <Piece NumberOfPoints="     17" NumberOfVerts="  0" NumberOfLines="      0"
           NumberOfStrips="  0" NumberOfPolys="      0">
      <Points>
        <DataArray type="Float32" NumberOfComponents="3" format="ascii">
                       3.12360                       1.40090                      93.12291
                       3.36663                       2.95360                      96.38135
                       3.61886                       4.50489                      99.63975
                       3.88386                       6.05421                     102.89808
                       4.16459                       7.60124                     106.15618
                       4.46422                       9.14581                     109.41375
                       4.78654                      10.68768                     112.67043
                       5.13621                      12.22655                     115.92570
                       5.51876                      13.76211                     119.17882
                       5.94030                      15.29412                     122.42877
                       6.40698                      16.82241                     125.67428
                       6.92423                      18.34698                     128.91387
                       7.49572                      19.86791                     132.14605
                       8.12205                      21.38545                     135.36969
                       8.79927                      22.90004                     138.58449
                       9.51713                      24.41245                     141.79158
                      10.25701                      25.92375                     144.99426
        </DataArray>
      </Points>
      <PointData>
        <DataArray type="Float32" Name="Force" NumberOfComponents="3" format="ascii">
                     195.42577                      63.82497                     -44.84352
                     630.01214                     203.46841                    -145.70156
                    2436.07844                    -736.97613                     154.26642
                    4180.19650                   -1398.89804                     312.33711
                    2536.36421                    -776.90753                     144.37004
                    5402.56252                   -1442.40287                     177.21684
                    6439.06069                   -1481.29581                      47.34438
                    7112.13133                   -1421.50553                    -119.82574
                    7561.58174                   -1342.49893                    -295.15275
                    9429.69444                   -1504.79698                    -575.99533
                   10727.48252                   -1567.35096                    -894.83542
                   12114.75805                   -1686.30915                   -1263.24549
                    6882.70206                    -925.57056                    -827.55037
                   13561.68270                   -1750.35551                   -1852.22908
                   12840.70203                   -1562.34539                   -1993.48018
                   17687.36553                   -1930.13364                   -3065.68208
                    7162.83983                    -643.67822                   -1341.55107
        </DataArray>
        <DataArray type="Float32" Name="Moment" NumberOfComponents="3" format="ascii">
                     -20.44192                      22.28790                      -3.38255
                     133.72898                     409.87871                    -134.78939
                     918.99050                    2383.95133                    -849.18511
                    1157.14969                    3377.29943                    -710.12845
                      84.43362                     432.62237                     303.04946
                    -747.35586                   -2108.29053                    1717.42821
                    -490.02923                   -1527.99753                     900.05724
                    -229.33513                    -409.24057                    -465.87824
                    -122.75954                     242.54104                   -1054.98033
                     -41.14321                    1110.82100                   -1458.63025
                     187.82001                    3451.67246                   -2582.40219
                     487.47806                    6757.18844                   -3669.95067
                     -68.62674                    -483.55046                     128.89534
                    -655.95856                   -8528.48724                    3907.18511
                    -483.13961                   -7812.38908                    3536.56593
                    -315.02063                   -1623.35276                     379.90413
                    -160.69521                     126.83511                    -368.14461
        </DataArray>
      </PointData>
    </Piece>
  </PolyData>
</VTKFile>
