<?xml version="1.0"?>
<VTKFile type="PolyData" version="0.1" byte_order="LittleEndian">
  <PolyData>
    <Piece NumberOfPoints="     17" NumberOfVerts="  0" NumberOfLines="      0"
           NumberOfStrips="  0" NumberOfPolys="      0">
      <Points>
        <DataArray type="Float32" NumberOfComponents="3" format="ascii">
                       3.08288                       1.19158                      93.21068
                       3.33386                       2.51359                      96.56876
                       3.59400                       3.83353                      99.92695
                       3.86686                       5.15065                     103.28523
                       4.15545                       6.46455                     106.64345
                       4.46300                       7.77499                     110.00134
                       4.79344                       9.08171                     113.35850
                       5.15164                      10.38439                     116.71437
                       5.54340                      11.68273                     120.06815
                       5.97520                      12.97654                     123.41875
                       6.45356                      14.26570                     126.76480
                       6.98428                      15.55030                     130.10469
                       7.57135                      16.83055                     133.43682
                       8.21556                      18.10683                     136.75995
                       8.91297                      19.37973                     140.07370
                       9.65301                      20.65018                     143.37923
                      10.41639                      21.91937                     146.68001
        </DataArray>
      </Points>
      <PointData>
        <DataArray type="Float32" Name="Force" NumberOfComponents="3" format="ascii">
                     196.47221                      66.99406                     -40.92776
                     636.00293                     210.82090                    -132.27210
                    2457.39911                    -776.06692                     107.12078
                    4214.23604                   -1476.05512                     224.85552
                    2556.06967                    -820.55656                      96.27823
                    5444.08496                   -1522.94273                      87.94089
                    6494.01724                   -1564.09484                     -44.63740
                    7189.52071                   -1504.78065                    -208.53703
                    7659.95505                   -1424.13381                    -380.60733
                    9562.88865                   -1598.74638                    -674.65548
                   10896.06712                   -1668.05316                   -1003.18460
                   12303.62284                   -1791.10408                   -1386.82858
                    6995.49744                    -981.70047                    -899.97137
                   13812.35903                   -1855.59927                   -2002.12616
                   13128.07865                   -1657.78968                   -2146.48864
                   18221.58896                   -2064.64582                   -3297.20565
                    7381.47040                    -693.68403                   -1428.21042
        </DataArray>
        <DataArray type="Float32" Name="Moment" NumberOfComponents="3" format="ascii">
                     -20.32386                      22.78546                      -1.90317
                     140.12567                     422.08393                    -109.15071
                     951.92935                    2453.55442                    -697.94453
                    1209.58175                    3450.55056                    -461.09712
                      89.93477                     419.08745                     352.59891
                    -780.13518                   -2228.96250                    1614.99671
                    -508.11427                   -1581.45668                     843.76543
                    -224.34683                    -344.43214                    -421.43806
                    -104.02261                     359.96189                    -947.64498
                      -2.52806                    1278.71438                   -1263.53989
                     270.41079                    3740.64023                   -2213.69292
                     621.15819                    7147.66490                   -3112.29561
                     -66.64156                    -481.90421                     153.08497
                    -782.36365                   -8904.82938                    3462.67322
                    -601.69347                   -8180.53031                    3134.66256
                    -311.50781                   -1565.35810                     365.78590
                    -154.38125                     106.36715                    -289.69066
        </DataArray>
      </PointData>
    </Piece>
  </PolyData>
</VTKFile>
