<?xml version="1.0"?>
<VTKFile type="PolyData" version="0.1" byte_order="LittleEndian">
  <PolyData>
    <Piece NumberOfPoints="     17" NumberOfVerts="  0" NumberOfLines="      0"
           NumberOfStrips="  0" NumberOfPolys="      0">
      <Points>
        <DataArray type="Float32" NumberOfComponents="3" format="ascii">
                       3.29901                      -2.57939                      92.24468
                       3.43668                      -5.37594                      94.53547
                       3.58136                      -8.17487                      96.82291
                       3.73587                     -10.97692                      99.10588
                       3.90265                     -13.78252                     101.38362
                       4.08437                     -16.59188                     103.65557
                       4.28415                     -19.40514                     105.92117
                       4.50578                     -22.22238                     108.17977
                       4.75368                     -25.04355                     110.43069
                       5.03271                     -27.86845                     112.67327
                       5.34775                     -30.69665                     114.90689
                       5.70306                     -33.52750                     117.13108
                       6.10149                     -36.36013                     119.34568
                       6.54343                     -39.19364                     121.55090
                       7.02562                     -42.02720                     123.74766
                       7.53975                     -44.86030                     125.93784
                       8.07084                     -47.69299                     128.12456
        </DataArray>
      </Points>
      <PointData>
        <DataArray type="Float32" Name="Force" NumberOfComponents="3" format="ascii">
                     180.69327                      54.59175                      55.85034
                     584.18098                     167.42021                     167.33380
                    1892.27295                    -480.66759                    -714.39710
                    3133.58207                    -811.71629                   -1217.41274
                    1885.06820                    -426.89555                    -667.35877
                    4030.53182                    -783.04595                   -1294.90473
                    4827.21456                    -779.22526                   -1402.56683
                    5307.77339                    -692.95591                   -1404.34676
                    5696.82581                    -602.61104                   -1413.01534
                    7243.16469                    -598.13489                   -1705.62513
                    8390.07350                    -517.83486                   -1916.99558
                    9793.35516                    -450.41954                   -2248.57188
                    5673.34654                    -194.52077                   -1309.98762
                   11422.75639                    -251.63699                   -2646.00205
                   11236.47927                     -94.66923                   -2606.70502
                   16357.12229                      83.54848                   -3739.97173
                    6944.57743                     127.94422                   -1506.49182
        </DataArray>
        <DataArray type="Float32" Name="Moment" NumberOfComponents="3" format="ascii">
                     -17.02254                      10.54860                      20.57742
                     158.15459                     165.12317                     294.57363
                    1027.02695                     958.46374                    1683.39419
                    1092.78601                    1246.22609                    2174.80976
                      62.53437                      26.48876                     224.04333
                    -823.66893                   -1210.03101                   -1537.91063
                    -579.78811                    -365.21447                   -1434.61401
                    -239.10989                    1065.97799                   -1037.92968
                     -70.38856                    1635.12042                    -624.17516
                      70.24730                    2172.35629                     -81.43922
                     510.09031                    3418.67369                    1562.27147
                    1177.26080                    4685.64004                    4300.58339
                    -125.44346                     -10.94690                    -501.29703
                   -1595.43938                   -4458.32422                   -6282.30476
                   -1439.29622                   -4304.38689                   -5877.38691
                    -328.88252                    -275.34179                    -965.31182
                     -86.43459                     370.02118                      74.24027
        </DataArray>
      </PointData>
    </Piece>
  </PolyData>
</VTKFile>
