<?xml version="1.0"?>
<VTKFile type="PolyData" version="0.1" byte_order="LittleEndian">
  <PolyData>
    <Piece NumberOfPoints="     17" NumberOfVerts="  0" NumberOfLines="      0"
           NumberOfStrips="  0" NumberOfPolys="      0">
      <Points>
        <DataArray type="Float32" NumberOfComponents="3" format="ascii">
                       2.61856                       0.19606                      86.90130
                       2.00974                       0.44852                      83.34420
                       1.40853                       0.70297                      79.78595
                       0.81788                       0.96013                      76.22613
                       0.24032                       1.22040                      72.66438
                      -0.32152                       1.48396                      69.10037
                      -0.86460                       1.75101                      65.53372
                      -1.38531                       2.02174                      61.96402
                      -1.87940                       2.29626                      58.39083
                      -2.34227                       2.57456                      54.81377
                      -2.76933                       2.85645                      51.23254
                      -3.15656                       3.14158                      47.64705
                      -3.50134                       3.42939                      44.05744
                      -3.80343                       3.71926                      40.46413
                      -4.06617                       4.01050                      36.86782
                      -4.29781                       4.30247                      33.26938
                      -4.51315                       4.59468                      29.66993
        </DataArray>
      </Points>
      <PointData>
        <DataArray type="Float32" Name="Force" NumberOfComponents="3" format="ascii">
                     133.91006                     -62.33724                     -27.40709
                     451.64200                    -213.55930                     -91.46368
                    1629.94701                     571.32951                    -230.44712
                    2792.54299                     990.24506                    -385.21249
                    1751.70198                     548.73637                    -240.72927
                    3926.62092                    1085.95676                    -533.29738
                    4933.43439                    1182.85023                    -653.32352
                    5648.55799                    1165.86329                    -719.34247
                    6265.35858                    1139.97167                    -754.91332
                    8174.29522                    1315.15997                    -916.83729
                    9747.80712                    1408.52863                    -993.69258
                   11601.67903                    1568.35159                   -1047.04139
                    6850.63660                     883.55656                    -556.36329
                   14103.80137                    1726.20836                   -1018.83515
                   14198.58160                    1631.58630                    -889.62752
                   21047.28668                    2231.14107                   -1167.15011
                    8772.13944                     746.81939                    -475.01419
        </DataArray>
        <DataArray type="Float32" Name="Moment" NumberOfComponents="3" format="ascii">
                     -17.44962                     -17.14751                      -1.73281
                      82.02839                    -292.15461                     -81.57272
                     633.55897                   -1663.11739                    -440.91582
                     651.03494                   -2244.00683                    -577.79693
                      26.29428                    -192.89748                    -126.17403
                    -550.55318                    1813.07860                     189.62593
                    -315.62330                    1239.90754                     527.21580
                      57.69214                     -63.97055                    1068.45028
                     194.92495                    -796.70474                    1083.87984
                     284.64082                   -1680.24940                     870.97988
                     582.16985                   -4098.40046                     456.76012
                     947.04848                   -7539.38672                    -471.00483
                     -63.61923                     428.80042                       2.99963
                   -1128.00020                    9248.18170                     641.76550
                   -1040.23830                    8986.01985                     449.91144
                    -256.37341                    1057.39826                    -510.94968
                    -142.79755                    -122.44771                       0.56686
        </DataArray>
      </PointData>
    </Piece>
  </PolyData>
</VTKFile>
