<?xml version="1.0"?>
<VTKFile type="PolyData" version="0.1" byte_order="LittleEndian">
  <PolyData>
    <Piece NumberOfPoints="     17" NumberOfVerts="  0" NumberOfLines="      0"
           NumberOfStrips="  0" NumberOfPolys="      0">
      <Points>
        <DataArray type="Float32" NumberOfComponents="3" format="ascii">
                       3.20769                      -3.03844                      91.54201
                       3.24766                      -6.32327                      93.05714
                       3.29528                      -9.60951                      94.56900
                       3.35360                     -12.89762                      96.07640
                       3.42522                     -16.18784                      97.57859
                       3.51290                     -19.48032                      99.07500
                       3.61977                     -22.77511                     100.56503
                       3.74953                     -26.07223                     102.04804
                       3.90647                     -29.37162                     103.52336
                       4.09521                     -32.67303                     104.99036
                       4.32035                     -35.97608                     106.44853
                       4.58584                     -39.28014                     107.89755
                       4.89420                     -42.58448                     109.33742
                       5.24552                     -45.88835                     110.76856
                       5.63631                     -49.19115                     112.19199
                       6.05810                     -52.49270                     113.60958
                       6.49589                     -55.79347                     115.02422
        </DataArray>
      </Points>
      <PointData>
        <DataArray type="Float32" Name="Force" NumberOfComponents="3" format="ascii">
                     199.50988                      36.02396                      73.00992
                     634.64408                     107.49804                     213.08611
                    1976.33740                    -363.09418                    -863.60573
                    3258.01135                    -602.61181                   -1458.42841
                    1969.30625                    -318.81460                    -800.05432
                    4246.03445                    -592.60537                   -1564.28394
                    5129.10409                    -595.11151                   -1704.68351
                    5677.09214                    -527.83096                   -1707.69967
                    6110.50052                    -447.34575                   -1705.97773
                    7755.29469                    -416.92714                   -2025.45359
                    8956.98973                    -313.13613                   -2225.04238
                   10422.23048                    -196.29348                   -2542.92291
                    6027.18840                     -39.32506                   -1449.78717
                   12052.68076                      75.53381                   -2843.30872
                   11636.53662                     239.98375                   -2671.86202
                   16413.66389                     562.72109                   -3593.50580
                    6843.41518                     310.53612                   -1375.39196
        </DataArray>
        <DataArray type="Float32" Name="Moment" NumberOfComponents="3" format="ascii">
                     -17.05151                       5.99190                      24.51661
                     174.10835                      85.82480                     337.73929
                    1102.89097                     547.96730                    1933.44367
                    1169.14121                     721.15887                    2496.16681
                      68.52039                      -9.22748                     228.41589
                    -897.18105                    -789.68303                   -1878.96816
                    -617.82321                     -17.76209                   -1533.34843
                    -203.82721                    1285.04647                    -717.98557
                      -5.42455                    1728.86677                    -137.00537
                     164.17541                    2107.93291                     570.10914
                     680.37575                    2951.32243                    2594.25427
                    1426.13985                    3550.59930                    5721.66125
                    -130.67143                      77.91861                    -491.30689
                   -1839.34031                   -2963.45932                   -7614.59947
                   -1625.35493                   -2809.76226                   -7077.46909
                    -444.69015                     -49.78989                   -1351.53601
                     -73.52276                     439.72835                     195.99669
        </DataArray>
      </PointData>
    </Piece>
  </PolyData>
</VTKFile>
