<?xml version="1.0"?>
<VTKFile type="PolyData" version="0.1" byte_order="LittleEndian">
  <PolyData>
    <Piece NumberOfPoints="     17" NumberOfVerts="  0" NumberOfLines="      0"
           NumberOfStrips="  0" NumberOfPolys="      0">
      <Points>
        <DataArray type="Float32" NumberOfComponents="3" format="ascii">
                       3.29667                      -2.11555                      92.69048
                       3.49245                      -4.41041                      95.48023
                       3.69574                      -6.70810                      98.26710
                       3.90953                      -9.00950                     101.05011
                       4.13644                     -11.31512                     103.82859
                       4.37924                     -13.62522                     106.60199
                       4.64121                     -15.93996                     109.36977
                       4.92627                     -18.25944                     112.13128
                       5.23901                     -20.58365                     114.88580
                       5.58442                     -22.91236                     117.63259
                       5.96752                     -25.24513                     120.37091
                       6.39267                     -27.58125                     123.10015
                       6.86274                     -29.91982                     125.81991
                       7.37804                     -32.25985                     128.53023
                       7.93511                     -34.60041                     131.23186
                       8.52525                     -36.94085                     133.92664
                       9.13283                     -39.28105                     136.61779
        </DataArray>
      </Points>
      <PointData>
        <DataArray type="Float32" Name="Force" NumberOfComponents="3" format="ascii">
                     170.60855                      63.02856                      39.93629
                     553.30489                     195.80483                     120.63923
                    1842.94127                    -549.79132                    -593.29574
                    3059.06681                    -934.27417                   -1015.38869
                    1835.78306                    -489.62726                    -559.26519
                    3903.59614                    -887.88552                   -1085.12051
                    4629.37558                    -866.18686                   -1170.58331
                    5020.25027                    -748.40280                   -1162.79994
                    5316.18994                    -630.43233                   -1160.43488
                    6686.26845                    -602.94307                   -1393.36135
                    7633.23222                    -495.33017                   -1552.12491
                    8785.22653                    -408.13248                   -1805.40689
                    5058.33395                    -164.09797                   -1048.46213
                   10137.16133                    -185.03849                   -2118.17528
                    9917.33960                     -39.35725                   -2098.90278
                   14677.41772                     107.17984                   -3136.37236
                    6683.66469                      95.38896                   -1416.23689
        </DataArray>
        <DataArray type="Float32" Name="Moment" NumberOfComponents="3" format="ascii">
                     -16.82768                      13.17536                      17.27078
                     147.65971                     215.48415                     249.71726
                     970.24418                    1237.77488                    1433.64723
                    1035.01055                    1593.96199                    1864.19910
                      59.40864                      56.13708                     220.62697
                    -771.00417                   -1462.90542                   -1231.25400
                    -558.57493                    -597.82990                   -1344.81289
                    -285.18101                     883.66157                   -1330.95262
                    -157.73078                    1552.47843                   -1131.12715
                     -77.95218                    2224.94382                    -863.35565
                     223.79783                    3696.91346                     258.49217
                     705.17581                    5288.08304                    2417.00041
                    -159.35370                     139.30766                    -729.09381
                   -1236.73962                   -4525.55601                   -5302.24727
                   -1087.92097                   -4318.30692                   -4900.81646
                    -278.77572                     384.20711                   -1155.14957
                     -70.74997                     602.35931                      16.44900
        </DataArray>
      </PointData>
    </Piece>
  </PolyData>
</VTKFile>
