<?xml version="1.0"?>
<VTKFile type="PolyData" version="0.1" byte_order="LittleEndian">
  <PolyData>
    <Piece NumberOfPoints="     17" NumberOfVerts="  0" NumberOfLines="      0"
           NumberOfStrips="  0" NumberOfPolys="      0">
      <Points>
        <DataArray type="Float32" NumberOfComponents="3" format="ascii">
                       2.31927                      -2.87751                      88.47287
                       1.95680                      -5.98885                      86.66301
                       1.60183                      -9.09879                      84.84928
                       1.25737                     -12.20688                      83.03038
                       0.92602                     -15.31288                      81.20547
                       0.61063                     -18.41664                      79.37395
                       0.31463                     -21.51804                      77.53520
                       0.04221                     -24.61691                      75.68860
                      -0.20164                     -27.71310                      73.83352
                      -0.41141                     -30.80639                      71.96951
                      -0.58147                     -33.89657                      70.09633
                      -0.70682                     -36.98338                      68.21411
                      -0.78403                     -40.06659                      66.32339
                      -0.81234                     -43.14603                      64.42516
                      -0.79515                     -46.22182                      62.52080
                      -0.74156                     -49.29461                      60.61215
                      -0.66831                     -52.36573                      58.70139
        </DataArray>
      </Points>
      <PointData>
        <DataArray type="Float32" Name="Force" NumberOfComponents="3" format="ascii">
                     191.10990                     -60.21404                      65.14076
                     655.58643                    -181.44838                     183.60862
                    2221.91616                     349.73751                   -1023.90614
                    3708.09082                     614.45743                   -1737.26776
                    2262.49975                     331.84799                    -969.62853
                    4912.74970                     634.79531                   -1914.39995
                    5958.26929                     675.42132                   -2083.08144
                    6631.98160                     671.30480                   -2073.84059
                    7164.06964                     681.02500                   -2029.61136
                    9121.19802                     843.99090                   -2345.70738
                   10590.93618                     995.71721                   -2480.45668
                   12221.77485                    1223.98748                   -2648.35536
                    7068.36252                     744.29788                   -1440.61707
                   14214.18664                    1566.25297                   -2708.75865
                   13841.81442                    1591.98976                   -2427.05863
                   19798.58622                    2291.87149                   -3133.46702
                    8090.48568                     865.66349                   -1106.23345
        </DataArray>
        <DataArray type="Float32" Name="Moment" NumberOfComponents="3" format="ascii">
                     -20.00660                     -15.46110                      21.57205
                     193.52479                    -282.46680                     302.23745
                    1191.41493                   -1618.94134                    1672.40500
                    1278.02595                   -2219.13100                    2121.81226
                      52.38246                    -400.88660                      43.10368
                   -1078.26263                     962.21783                   -2168.91047
                    -689.94451                     969.00811                   -1312.94759
                    -104.59381                     840.39733                     341.62685
                     159.15750                     546.91450                    1127.79335
                     378.18983                     -59.25676                    1874.72106
                     997.62339                   -1531.82899                    3985.15995
                    1789.02356                   -3882.11393                    6691.65107
                    -125.30789                     249.78229                    -417.07507
                   -2166.87240                    4981.63424                   -8151.20940
                   -1935.57432                    4619.38656                   -7660.36439
                    -446.75440                     655.23438                   -1243.17909
                    -107.32054                      57.90729                     216.42296
        </DataArray>
      </PointData>
    </Piece>
  </PolyData>
</VTKFile>
