<?xml version="1.0"?>
<VTKFile type="PolyData" version="0.1" byte_order="LittleEndian">
  <PolyData>
    <Piece NumberOfPoints="     17" NumberOfVerts="  0" NumberOfLines="      0"
           NumberOfStrips="  0" NumberOfPolys="      0">
      <Points>
        <DataArray type="Float32" NumberOfComponents="3" format="ascii">
                       2.25319                      -2.64205                      88.12178
                       1.84852                      -5.49134                      85.92971
                       1.45124                      -8.33870                      83.73380
                       1.06433                     -11.18353                      81.53275
                       0.69037                     -14.02547                      79.32575
                       0.33218                     -16.86433                      77.11220
                      -0.00683                     -19.69998                      74.89151
                      -0.32250                     -22.53223                      72.66309
                      -0.60993                     -25.36094                      70.42637
                      -0.86366                     -28.18595                      68.18094
                      -1.07816                     -31.00712                      65.92662
                      -1.24851                     -33.82432                      63.66360
                      -1.37135                     -36.63746                      61.39246
                      -1.44595                     -39.44656                      59.11420
                      -1.47569                     -42.25189                      56.83021
                      -1.46958                     -45.05421                      54.54225
                      -1.44416                     -47.85490                      52.25236
        </DataArray>
      </Points>
      <PointData>
        <DataArray type="Float32" Name="Force" NumberOfComponents="3" format="ascii">
                     177.83595                     -68.45879                      56.09678
                     626.24659                    -208.13711                     157.30950
                    2155.70144                     428.46161                    -937.37116
                    3614.13740                     754.18772                   -1598.79014
                    2208.63384                     408.00914                    -895.31796
                    4797.91717                     777.62711                   -1768.92283
                    5820.70693                     819.75298                   -1924.50033
                    6476.95323                     801.40126                   -1912.72701
                    6999.72488                     795.46259                   -1868.06029
                    8907.50822                     957.16624                   -2147.62872
                   10342.04212                    1092.57057                   -2254.30601
                   11968.77830                    1306.80294                   -2390.91254
                    6931.90548                     778.65313                   -1290.81554
                   13955.67363                    1606.77769                   -2404.29647
                   13625.06627                    1603.15453                   -2132.16682
                   19598.74723                    2279.34755                   -2740.49948
                    8090.15656                     855.05323                    -977.07839
        </DataArray>
        <DataArray type="Float32" Name="Moment" NumberOfComponents="3" format="ascii">
                     -19.94545                     -17.29053                      19.20093
                     180.98590                    -313.49115                     258.41270
                    1125.38942                   -1786.38348                    1399.86718
                    1209.78891                   -2433.11541                    1767.15852
                      44.57613                    -393.79658                      -8.80227
                   -1031.32661                    1224.03309                   -1967.39926
                    -653.49715                    1139.23399                   -1128.98144
                     -86.13380                     822.27389                     473.96379
                     162.91898                     442.03056                    1199.23227
                     362.43584                    -220.24699                    1856.00467
                     935.09190                   -1911.18369                    3726.92161
                    1659.68274                   -4576.02712                    6055.93806
                    -116.57792                     327.61028                    -351.48640
                   -1998.81164                    5961.46707                   -7236.89923
                   -1780.35827                    5559.65568                   -6812.18914
                    -401.47103                     839.95647                   -1006.89568
                     -96.81322                      26.40125                     259.78201
        </DataArray>
      </PointData>
    </Piece>
  </PolyData>
</VTKFile>
