<?xml version="1.0"?>
<VTKFile type="PolyData" version="0.1" byte_order="LittleEndian">
  <PolyData>
    <Piece NumberOfPoints="     19" NumberOfVerts="  0" NumberOfLines="     18"
           NumberOfStrips="  0" NumberOfPolys="      0">
      <Points>
        <DataArray type="Float32" NumberOfComponents="3" format="ascii">
                       2.96665                       0.54614                      91.52586
                       3.05881                       1.05739                      92.78998
                       3.22633                       1.99151                      95.35536
                       3.38974                       2.88297                      97.93841
                       3.59809                       3.97042                     101.17790
                       3.91053                       5.40530                     105.00740
                       4.26336                       6.95682                     108.78612
                       4.64140                       8.50619                     112.56329
                       5.05383                      10.05462                     116.33728
                       5.50842                      11.59987                     120.10772
                       6.00768                      13.13881                     123.87508
                       6.56668                      14.67210                     127.63635
                       7.19325                      16.19987                     131.38923
                       7.89148                      17.72249                     135.13158
                       8.66134                      19.24045                     138.86182
                       9.34889                      20.50271                     141.96173
                       9.92139                      21.51864                     144.43411
                      10.49698                      22.58552                     146.88545
                      10.78617                      23.08012                     148.12623
        </DataArray>
      </Points>
      <PointData>
        <DataArray type="Float32" Name="Force" NumberOfComponents="3" format="ascii">
                      -0.04587                       0.94137                      -0.38028
                      82.56113                      21.38910                     -14.78523
                      98.88560                      53.15745                     -29.08617
                      85.25580                      69.96897                     -35.10054
                     862.71213                    -300.08042                      52.91191
                    1166.54217                    -410.23028                      67.37145
                    1326.22756                    -382.67626                      33.98221
                    1670.88532                    -409.88609                       0.11541
                    1822.66581                    -383.01317                     -44.00394
                    2085.84166                    -385.95036                     -97.15977
                    2528.32864                    -415.09671                    -177.27813
                    2863.99733                    -427.91047                    -268.03295
                    3278.22250                    -470.78358                    -377.51669
                    3526.72208                    -478.23274                    -487.30363
                    3714.50694                    -472.90264                    -593.67356
                    3783.15614                    -444.89337                    -664.30609
                    3619.34798                    -386.35427                    -671.77263
                    2616.23957                    -261.00519                    -498.53667
                    1256.54028                     -33.80891                    -276.91794
        </DataArray>
        <DataArray type="Float32" Name="Moment" NumberOfComponents="3" format="ascii">
                       0.00000                       0.00000                       0.00000
                       0.00000                       0.00000                       0.00000
                       0.00000                       0.00000                       0.00000
                       0.00000                       0.00000                       0.00000
                     -22.37650                    -113.31587                    -277.80878
                     -33.05596                    -157.28760                    -385.37049
                     -49.85887                    -220.79631                    -540.55645
                     -75.80945                    -309.24736                    -756.38258
                    -109.52542                    -406.97735                    -994.24171
                    -138.34866                    -463.22604                   -1130.00611
                    -163.88342                    -489.32639                   -1191.53649
                    -196.40781                    -521.21528                   -1266.55308
                    -202.32570                    -478.52963                   -1160.17323
                    -224.04503                    -476.87688                   -1153.46241
                    -236.86216                    -461.66328                   -1114.25607
                    -236.89722                    -438.03102                   -1055.75141
                    -214.43964                    -387.20961                    -932.65423
                    -107.72205                    -192.83153                    -464.35233
                     -90.57901                    -162.43651                    -391.17862
        </DataArray>
        <DataArray type="Float32" Name="TranslationalVelocity" NumberOfComponents="3" format="ascii">
                      -0.59837                      -1.27284                       0.47305
                      -0.56310                      -2.44438                       0.94428
                      -0.50301                      -4.82085                       1.80561
                      -0.44801                      -7.21682                       2.62871
                      -0.38228                     -10.22877                       3.63467
                      -0.28764                     -13.80735                       4.96605
                      -0.17789                     -17.35619                       6.41093
                      -0.06526                     -20.91961                       7.85941
                       0.05334                     -24.49722                       9.31251
                       0.18183                     -28.08941                      10.76760
                       0.32305                     -31.69528                      12.22046
                       0.48383                     -35.31461                      13.67081
                       0.66953                     -38.94546                      15.11694
                       0.88421                     -42.58536                      16.55710
                       1.12921                     -46.23155                      17.98985
                       1.35420                     -49.27290                      19.17825
                       1.54649                     -51.70414                      20.13280
                       1.74990                     -54.11655                      21.13511
                       1.84744                     -55.33739                      21.59915
        </DataArray>
        <DataArray type="Float32" Name="RotationalVelocity" NumberOfComponents="3" format="ascii">
                       0.91819                      -0.01683                      -0.11068
                       0.91869                      -0.01687                      -0.11070
                       0.91992                      -0.01692                      -0.11077
                       0.92144                      -0.01694                      -0.11087
                       0.92375                      -0.01693                      -0.11105
                       0.92691                      -0.01682                      -0.11132
                       0.93026                      -0.01644                      -0.11172
                       0.93367                      -0.01556                      -0.11233
                       0.93704                      -0.01393                      -0.11324
                       0.94029                      -0.01130                      -0.11454
                       0.94331                      -0.00737                      -0.11637
                       0.94604                      -0.00223                      -0.11866
                       0.94842                       0.00395                      -0.12136
                       0.95037                       0.01074                      -0.12426
                       0.95183                       0.01742                      -0.12710
                       0.95263                       0.02208                      -0.12905
                       0.95296                       0.02459                      -0.13010
                       0.95308                       0.02597                      -0.13067
                       0.95307                       0.02618                      -0.13075
        </DataArray>
        <DataArray type="Float32" Name="TranslationalAcceleration" NumberOfComponents="3" format="ascii">
                       0.01338                      -0.74665                      -1.27189
                      -0.14862                      -1.14622                      -2.36087
                      -0.47138                      -1.85881                      -4.57151
                      -0.78853                      -2.50231                      -6.81226
                      -1.17533                      -3.22518                      -9.65039
                      -1.62078                      -4.11781                     -13.07227
                      -2.04900                      -5.01012                     -16.53544
                      -2.47865                      -5.79064                     -20.07451
                      -2.94636                      -6.45820                     -23.68717
                      -3.50929                      -7.00957                     -27.36627
                      -4.21891                      -7.45290                     -31.09470
                      -5.16886                      -7.77757                     -34.85879
                      -6.44152                      -7.98562                     -38.63174
                      -8.10328                      -8.08159                     -42.38271
                     -10.18489                      -8.07434                     -46.08238
                     -12.21591                      -8.00358                     -49.11565
                     -14.00853                      -7.92295                     -51.50871
                     -15.88314                      -7.88617                     -53.88659
                     -16.83127                      -7.82536                     -55.07353
        </DataArray>
        <DataArray type="Float32" Name="OrientationX" NumberOfComponents="3" format="ascii">
                       0.98033                      -0.19718                       0.00882
                       0.98029                      -0.19737                       0.00836
                       0.98019                      -0.19792                       0.00703
                       0.98006                      -0.19866                       0.00520
                       0.97982                      -0.19989                       0.00218
                       0.98486                      -0.17276                      -0.01458
                       0.98764                      -0.15402                      -0.02896
                       0.98942                      -0.13838                      -0.04349
                       0.99067                      -0.12230                      -0.06006
                       0.99120                      -0.10636                      -0.07877
                       0.99076                      -0.09240                      -0.09930
                       0.98940                      -0.07933                      -0.12166
                       0.98711                      -0.06856                      -0.14459
                       0.98416                      -0.06205                      -0.16608
                       0.98099                      -0.05519                      -0.18606
                       0.97865                      -0.04827                      -0.19980
                       0.97736                      -0.04205                      -0.20736
                       0.97680                      -0.03843                      -0.21067
                       0.97688                      -0.03829                      -0.21033
        </DataArray>
        <DataArray type="Float32" Name="OrientationY" NumberOfComponents="3" format="ascii">
                       0.18551                       0.90518                      -0.38242
                       0.18551                       0.90518                      -0.38241
                       0.18551                       0.90519                      -0.38239
                       0.18551                       0.90520                      -0.38236
                       0.18552                       0.90521                      -0.38233
                       0.15418                       0.91117                      -0.38209
                       0.13149                       0.91495                      -0.38154
                       0.11164                       0.91791                      -0.38077
                       0.09064                       0.92069                      -0.37962
                       0.06902                       0.92320                      -0.37806
                       0.04859                       0.92526                      -0.37620
                       0.02836                       0.92703                      -0.37392
                       0.01008                       0.92841                      -0.37143
                      -0.00372                       0.92933                      -0.36923
                      -0.01724                       0.93015                      -0.36677
                      -0.02851                       0.93076                      -0.36452
                      -0.03690                       0.93116                      -0.36275
                      -0.04138                       0.93135                      -0.36177
                      -0.04139                       0.93135                      -0.36177
        </DataArray>
        <DataArray type="Float32" Name="OrientationZ" NumberOfComponents="3" format="ascii">
                       0.06742                       0.37653                       0.92395
                       0.06791                       0.37642                       0.92396
                       0.06932                       0.37612                       0.92398
                       0.07125                       0.37570                       0.92400
                       0.07445                       0.37502                       0.92402
                       0.07930                       0.37406                       0.92401
                       0.08526                       0.37302                       0.92390
                       0.09261                       0.37188                       0.92365
                       0.10173                       0.37064                       0.92319
                       0.11293                       0.36930                       0.92242
                       0.12664                       0.36790                       0.92120
                       0.14244                       0.36651                       0.91945
                       0.15970                       0.36519                       0.91713
                       0.17726                       0.36399                       0.91438
                       0.19331                       0.36300                       0.91151
                       0.20356                       0.36243                       0.90951
                       0.20834                       0.36218                       0.90852
                       0.21011                       0.36210                       0.90815
                       0.20974                       0.36211                       0.90823
        </DataArray>
      </PointData>
      <Lines>
        <DataArray type="Int32" Name="connectivity" format="ascii">
      0      1
      1      2
      2      3
      3      4
      4      5
      5      6
      6      7
      7      8
      8      9
      9     10
     10     11
     11     12
     12     13
     13     14
     14     15
     15     16
     16     17
     17     18
        </DataArray>
        <DataArray type="Int32" Name="offsets" format="ascii">
      2
      4
      6
      8
     10
     12
     14
     16
     18
     20
     22
     24
     26
     28
     30
     32
     34
     36
        </DataArray>
      </Lines>
    </Piece>
  </PolyData>
</VTKFile>
