<?xml version="1.0"?>
<VTKFile type="PolyData" version="0.1" byte_order="LittleEndian">
  <PolyData>
    <Piece NumberOfPoints="     19" NumberOfVerts="  0" NumberOfLines="     18"
           NumberOfStrips="  0" NumberOfPolys="      0">
      <Points>
        <DataArray type="Float32" NumberOfComponents="3" format="ascii">
                       2.81711                       0.17069                      91.61298
                       2.91458                       0.34544                      92.96495
                       3.08983                       0.60086                      95.68266
                       3.25946                       0.81138                      98.40676
                       3.47442                       1.04700                     101.81550
                       3.79840                       1.47013                     105.88243
                       4.16563                       2.02011                     109.92912
                       4.55683                       2.57020                     113.97355
                       4.98105                       3.12165                     118.01446
                       5.44588                       3.67204                     122.05101
                       5.95388                       4.21776                     126.08294
                       6.52006                       4.75979                     130.10759
                       7.15242                       5.29837                     134.12282
                       7.85532                       5.83402                     138.12669
                       8.62912                       6.36733                     142.11781
                       9.31972                       6.81064                     145.43477
                       9.89495                       7.17275                     148.08252
                      10.47521                       7.58940                     150.72228
                      10.76558                       7.75636                     152.04727
        </DataArray>
      </Points>
      <PointData>
        <DataArray type="Float32" Name="Force" NumberOfComponents="3" format="ascii">
                      -0.02806                       1.84555                      -0.24134
                      80.78531                      25.06668                      -9.17771
                      98.60139                      60.17526                     -15.23984
                      86.26269                      78.44358                     -16.89999
                     860.59963                    -333.04687                     -24.08994
                    1193.38970                    -473.11866                     -37.48908
                    1360.33240                    -444.06940                     -63.13498
                    1714.14125                    -474.21034                    -103.05534
                    1873.39535                    -445.58442                    -138.92326
                    2153.76803                    -450.28798                    -191.74641
                    2616.86547                    -484.19907                    -277.17589
                    2996.34177                    -502.43310                    -372.16406
                    3455.83852                    -549.14903                    -494.39908
                    3785.85313                    -566.44841                    -615.35333
                    4072.76571                    -576.89830                    -735.27439
                    4238.91297                    -566.57935                    -816.32157
                    4157.82256                    -519.50135                    -827.23327
                    3039.59948                    -363.07427                    -613.17876
                    1156.04423                      -0.26687                    -251.31930
        </DataArray>
        <DataArray type="Float32" Name="Moment" NumberOfComponents="3" format="ascii">
                       0.00000                       0.00000                       0.00000
                       0.00000                       0.00000                       0.00000
                       0.00000                       0.00000                       0.00000
                       0.00000                       0.00000                       0.00000
                     -21.74894                     -36.30274                    -275.07826
                     -31.97726                     -50.40910                    -381.76035
                     -49.29642                     -72.74151                    -550.52259
                     -76.18885                    -104.18602                    -787.85202
                    -107.82340                    -135.11064                   -1020.65454
                    -134.50382                    -152.71460                   -1152.17006
                    -157.19394                    -159.93052                   -1204.71224
                    -185.99108                    -168.84048                   -1269.49875
                    -192.64602                    -156.31764                   -1172.96304
                    -212.37569                    -155.38859                   -1163.56492
                    -222.03527                    -148.92689                   -1113.02935
                    -220.83422                    -140.55769                   -1049.16981
                    -200.86871                    -124.82850                    -931.20999
                    -101.28254                     -62.36650                    -465.14119
                     -83.88326                     -51.72648                    -385.79987
        </DataArray>
        <DataArray type="Float32" Name="TranslationalVelocity" NumberOfComponents="3" format="ascii">
                      -0.45755                      -1.43070                       0.14657
                      -0.45609                      -2.69439                       0.30980
                      -0.46374                      -5.23041                       0.54878
                      -0.47708                      -7.76535                       0.74599
                      -0.49861                     -10.92612                       0.96717
                      -0.51275                     -14.68573                       1.36209
                      -0.51931                     -18.40866                       1.87168
                      -0.53480                     -22.10859                       2.37930
                      -0.56192                     -25.78551                       2.88661
                      -0.60409                     -29.44028                       3.39221
                      -0.66293                     -33.07627                       3.89383
                      -0.74297                     -36.69193                       4.39380
                      -0.84651                     -40.28807                       4.89390
                      -0.97443                     -43.86562                       5.39606
                      -1.12530                     -47.42605                       5.90180
                      -1.26513                     -50.38234                       6.32631
                      -1.38276                     -52.74114                       6.67449
                      -1.49568                     -55.09243                       7.07036
                      -1.55638                     -56.27247                       7.23225
        </DataArray>
        <DataArray type="Float32" Name="RotationalVelocity" NumberOfComponents="3" format="ascii">
                       0.92769                      -0.01290                      -0.10868
                       0.92687                      -0.01296                      -0.10862
                       0.92483                      -0.01318                      -0.10844
                       0.92230                      -0.01353                      -0.10821
                       0.91845                      -0.01422                      -0.10784
                       0.91317                      -0.01544                      -0.10730
                       0.90757                      -0.01721                      -0.10666
                       0.90191                      -0.01961                      -0.10594
                       0.89637                      -0.02271                      -0.10513
                       0.89109                      -0.02657                      -0.10424
                       0.88622                      -0.03127                      -0.10327
                       0.88180                      -0.03662                      -0.10224
                       0.87791                      -0.04237                      -0.10120
                       0.87462                      -0.04809                      -0.10021
                       0.87204                      -0.05319                      -0.09935
                       0.87057                      -0.05628                      -0.09884
                       0.86989                      -0.05755                      -0.09862
                       0.86961                      -0.05776                      -0.09857
                       0.86962                      -0.05743                      -0.09862
        </DataArray>
        <DataArray type="Float32" Name="TranslationalAcceleration" NumberOfComponents="3" format="ascii">
                       0.92356                      -0.26712                      -1.20956
                       0.81092                      -0.47398                      -2.37558
                       0.58351                      -0.80589                      -4.71729
                       0.34563                      -1.09775                      -7.05334
                       0.02631                      -1.43641                      -9.95560
                      -0.40015                      -1.95597                     -13.38236
                      -0.88460                      -2.57175                     -16.74492
                      -1.42895                      -3.17666                     -20.05945
                      -2.02738                      -3.77371                     -23.32555
                      -2.66392                      -4.36438                     -26.54528
                      -3.31395                      -4.95003                     -29.72693
                      -3.94984                      -5.53563                     -32.87109
                      -4.53636                      -6.12555                     -35.98579
                      -5.03946                      -6.72345                     -39.08151
                      -5.43274                      -7.33157                     -42.17015
                      -5.67077                      -7.84612                     -44.74676
                      -5.80264                      -8.26771                     -46.81263
                      -5.89506                      -8.73242                     -48.87751
                      -5.93275                      -8.93345                     -49.91721
        </DataArray>
        <DataArray type="Float32" Name="OrientationX" NumberOfComponents="3" format="ascii">
                       0.97402                      -0.22272                      -0.04096
                       0.97399                      -0.22278                      -0.04142
                       0.97389                      -0.22296                      -0.04276
                       0.97375                      -0.22320                      -0.04459
                       0.97352                      -0.22360                      -0.04763
                       0.97950                      -0.19327                      -0.05678
                       0.98298                      -0.17158                      -0.06568
                       0.98537                      -0.15283                      -0.07547
                       0.98726                      -0.13313                      -0.08713
                       0.98846                      -0.11302                      -0.10090
                       0.98864                      -0.09435                      -0.11696
                       0.98791                      -0.07608                      -0.13507
                       0.98620                      -0.05987                      -0.15437
                       0.98367                      -0.04814                      -0.17342
                       0.98091                      -0.03645                      -0.19101
                       0.97890                      -0.02629                      -0.20264
                       0.97785                      -0.01837                      -0.20852
                       0.97739                      -0.01404                      -0.21096
                       0.97746                      -0.01401                      -0.21066
        </DataArray>
        <DataArray type="Float32" Name="OrientationY" NumberOfComponents="3" format="ascii">
                       0.21490                       0.96612                      -0.14292
                       0.21490                       0.96611                      -0.14299
                       0.21488                       0.96609                      -0.14318
                       0.21487                       0.96606                      -0.14340
                       0.21484                       0.96601                      -0.14376
                       0.18364                       0.97260                      -0.14257
                       0.16103                       0.97673                      -0.14166
                       0.14121                       0.97992                      -0.14074
                       0.12023                       0.98290                      -0.13951
                       0.09861                       0.98552                      -0.13791
                       0.07815                       0.98761                      -0.13611
                       0.05788                       0.98930                      -0.13394
                       0.03953                       0.99051                      -0.13160
                       0.02566                       0.99124                      -0.12959
                       0.01207                       0.99179                      -0.12729
                       0.00074                       0.99214                      -0.12514
                      -0.00767                       0.99233                      -0.12341
                      -0.01217                       0.99240                      -0.12246
                      -0.01217                       0.99240                      -0.12246
        </DataArray>
        <DataArray type="Float32" Name="OrientationZ" NumberOfComponents="3" format="ascii">
                       0.07140                       0.13040                       0.98889
                       0.07188                       0.13037                       0.98886
                       0.07323                       0.13025                       0.98877
                       0.07509                       0.13006                       0.98866
                       0.07816                       0.12972                       0.98847
                       0.08278                       0.12922                       0.98816
                       0.08845                       0.12867                       0.98774
                       0.09547                       0.12803                       0.98717
                       0.10421                       0.12726                       0.98638
                       0.11502                       0.12637                       0.98529
                       0.12836                       0.12542                       0.98377
                       0.14381                       0.12450                       0.98174
                       0.16078                       0.12368                       0.97921
                       0.17813                       0.12302                       0.97629
                       0.19408                       0.12256                       0.97330
                       0.20434                       0.12235                       0.97122
                       0.20918                       0.12227                       0.97020
                       0.21107                       0.12226                       0.96979
                       0.21078                       0.12226                       0.96986
        </DataArray>
      </PointData>
      <Lines>
        <DataArray type="Int32" Name="connectivity" format="ascii">
      0      1
      1      2
      2      3
      3      4
      4      5
      5      6
      6      7
      7      8
      8      9
      9     10
     10     11
     11     12
     12     13
     13     14
     14     15
     15     16
     16     17
     17     18
        </DataArray>
        <DataArray type="Int32" Name="offsets" format="ascii">
      2
      4
      6
      8
     10
     12
     14
     16
     18
     20
     22
     24
     26
     28
     30
     32
     34
     36
        </DataArray>
      </Lines>
    </Piece>
  </PolyData>
</VTKFile>
