<?xml version="1.0"?>
<VTKFile type="PolyData" version="0.1" byte_order="LittleEndian">
  <PolyData>
    <Piece NumberOfPoints="     19" NumberOfVerts="  0" NumberOfLines="     18"
           NumberOfStrips="  0" NumberOfPolys="      0">
      <Points>
        <DataArray type="Float32" NumberOfComponents="3" format="ascii">
                       2.58289                      -2.43145                      87.90886
                       2.13356                      -5.08545                      85.49189
                       1.68803                      -7.73709                      83.07163
                       1.24793                     -10.38570                      80.64706
                       0.81477                     -13.03089                      78.21752
                       0.38998                     -15.67250                      75.78261
                      -0.02511                     -18.31051                      73.34212
                      -0.42926                     -20.94497                      70.89598
                      -0.82135                     -23.57604                      68.44424
                      -1.20042                     -26.20393                      65.98704
                      -1.56578                     -28.82891                      63.52466
                      -1.91718                     -31.45129                      61.05748
                      -2.25495                     -34.07140                      58.58599
                      -2.58021                     -36.68960                      56.11081
                      -2.89517                     -39.30630                      53.63269
                      -3.20334                     -41.92195                      51.15262
                      -3.50993                     -44.53707                      48.67178
                      -3.66360                     -45.84456                      47.43134
                       2.80828                      -1.10396                      89.11667
        </DataArray>
      </Points>
      <PointData>
        <DataArray type="Float32" Name="TranslationalVelocity" NumberOfComponents="3" format="ascii">
                      -0.17669                       2.05981                      -2.21467
                      -0.46857                       4.34655                      -4.67139
                      -0.73440                       6.64998                      -7.14607
                      -0.96314                       8.97497                      -9.64433
                      -1.14480                      11.32440                     -12.16985
                      -1.26959                      13.69964                     -14.72486
                      -1.32779                      16.10117                     -17.31076
                      -1.30959                      18.52896                     -19.92834
                      -1.20513                      20.98238                     -22.57777
                      -1.00505                      23.46035                     -25.25860
                      -0.70138                      25.96140                     -27.96970
                      -0.28886                      28.48366                     -30.70923
                       0.23347                      31.02488                     -33.47452
                       0.86014                      33.58242                     -36.26211
                       1.57690                      36.15306                     -39.06759
                       2.35792                      38.73275                     -41.88540
                       3.16265                      41.31658                     -44.70863
                       3.56485                      42.60888                     -46.12064
                      -0.02573                       0.91989                      -0.98997
        </DataArray>
        <DataArray type="Float32" Name="RotationalVelocity" NumberOfComponents="3" format="ascii">
                       0.92307                       0.00295                      -0.11104
                       0.92855                      -0.00129                      -0.10741
                       0.93643                      -0.00796                      -0.10154
                       0.94595                      -0.01668                      -0.09374
                       0.95638                      -0.02730                      -0.08401
                       0.96729                      -0.03978                      -0.07232
                       0.97846                      -0.05409                      -0.05867
                       0.98967                      -0.07024                      -0.04300
                       1.00069                      -0.08820                      -0.02532
                       1.01132                      -0.10777                      -0.00578
                       1.02136                      -0.12858                       0.01523
                       1.03058                      -0.14997                       0.03703
                       1.03874                      -0.17093                       0.05856
                       1.04560                      -0.19005                       0.07830
                       1.05081                      -0.20544                       0.09426
                       1.05394                      -0.21464                       0.10379
                       1.05454                      -0.21457                       0.10360
                       1.05415                      -0.21180                       0.10062
                       0.92102                       0.00438                      -0.11224
        </DataArray>
        <DataArray type="Float32" Name="TranslationalAcceleration" NumberOfComponents="3" format="ascii">
                       0.80689                       2.13432                       1.52837
                       1.06566                       4.62733                       3.43871
                       1.30278                       7.07469                       5.46562
                       1.50174                       9.46562                       7.64307
                       1.64440                      11.79427                       9.99339
                       1.72835                      14.06068                      12.52477
                       1.78110                      16.27073                      15.23201
                       1.86727                      18.43516                      18.09827
                       2.08949                      20.56794                      21.09769
                       2.58439                      22.68452                      24.19923
                       3.51284                      24.79999                      27.37080
                       5.04423                      26.92743                      30.58276
                       7.33489                      29.07676                      33.81011
                      10.50057                      31.25389                      37.03294
                      14.58304                      33.45873                      40.23589
                      19.51117                      35.68307                      43.40704
                      25.05644                      37.91093                      46.53614
                      27.94348                      39.02333                      48.08893
                       0.67350                       0.87800                       0.59754
        </DataArray>
        <DataArray type="Float32" Name="RotationalAcceleration" NumberOfComponents="3" format="ascii">
                       0.08676                      -0.02912                      -0.01853
                       0.06006                      -0.02310                      -0.02016
                       0.02327                      -0.01378                      -0.02351
                      -0.02097                       0.00048                      -0.03092
                      -0.06880                       0.01791                      -0.04114
                      -0.11618                       0.03356                      -0.04950
                      -0.15953                       0.04046                      -0.04897
                      -0.19585                       0.03111                      -0.03190
                      -0.22321                      -0.00162                       0.00922
                      -0.24082                      -0.06348                       0.08055
                      -0.24907                      -0.15772                       0.18575
                      -0.24931                      -0.28406                       0.32475
                      -0.24329                      -0.43762                       0.49251
                      -0.23304                      -0.60793                       0.67791
                      -0.22111                      -0.77783                       0.86255
                      -0.21007                      -0.92254                       1.01964
                      -0.20177                      -1.00863                       1.11277
                      -0.19847                      -1.03227                       1.13816
                       0.09735                      -0.03176                      -0.01761
        </DataArray>
        <DataArray type="Float32" Name="OrientationX" NumberOfComponents="3" format="ascii">
                       0.94137                       0.12521                      -0.31329
                       0.94150                       0.12599                      -0.31258
                       0.94170                       0.12720                      -0.31148
                       0.94605                       0.11984                      -0.30105
                       0.95521                       0.10084                      -0.27821
                       0.96019                       0.09100                      -0.26409
                       0.96496                       0.08122                      -0.24952
                       0.96966                       0.07091                      -0.23397
                       0.97407                       0.06057                      -0.21799
                       0.97798                       0.05090                      -0.20239
                       0.98151                       0.04146                      -0.18686
                       0.98456                       0.03263                      -0.17198
                       0.98684                       0.02592                      -0.15958
                       0.98870                       0.01992                      -0.14860
                       0.99032                       0.01332                      -0.13814
                       0.99168                       0.00591                      -0.12856
                       0.99239                       0.00010                      -0.12311
                       0.99255                      -0.00210                      -0.12182
                       0.94132                       0.12494                      -0.31353
        </DataArray>
        <DataArray type="Float32" Name="OrientationY" NumberOfComponents="3" format="ascii">
                       0.31353                      -0.66762                       0.67527
                       0.31345                      -0.66807                       0.67486
                       0.31335                      -0.66868                       0.67430
                       0.30067                      -0.67103                       0.67773
                       0.27108                      -0.67521                       0.68601
                       0.25403                      -0.67768                       0.69008
                       0.23668                      -0.67999                       0.69397
                       0.21827                      -0.68217                       0.69785
                       0.19954                      -0.68414                       0.70153
                       0.18155                      -0.68582                       0.70476
                       0.16377                      -0.68726                       0.70771
                       0.14688                      -0.68845                       0.71026
                       0.13325                      -0.68934                       0.71208
                       0.12116                      -0.69003                       0.71357
                       0.10903                      -0.69056                       0.71501
                       0.09699                      -0.69090                       0.71642
                       0.08906                      -0.69100                       0.71735
                       0.08662                      -0.69100                       0.71765
                       0.31356                      -0.66744                       0.67543
        </DataArray>
        <DataArray type="Float32" Name="OrientationZ" NumberOfComponents="3" format="ascii">
                      -0.12461                      -0.73390                      -0.66773
                      -0.12380                      -0.73336                      -0.66848
                      -0.12251                      -0.73259                      -0.66955
                      -0.12080                      -0.73168                      -0.67086
                      -0.11868                      -0.73070                      -0.67230
                      -0.11617                      -0.72970                      -0.67382
                      -0.11331                      -0.72871                      -0.67539
                      -0.11013                      -0.72774                      -0.67695
                      -0.10665                      -0.72683                      -0.67848
                      -0.10293                      -0.72599                      -0.67996
                      -0.09908                      -0.72523                      -0.68134
                      -0.09522                      -0.72455                      -0.68261
                      -0.09155                      -0.72398                      -0.68372
                      -0.08833                      -0.72350                      -0.68465
                      -0.08587                      -0.72315                      -0.68533
                      -0.08459                      -0.72293                      -0.68573
                      -0.08499                      -0.72285                      -0.68575
                      -0.08569                      -0.72286                      -0.68567
                      -0.12488                      -0.73410                      -0.66746
        </DataArray>
      </PointData>
      <Lines>
        <DataArray type="Int32" Name="connectivity" format="ascii">
      0      1
      1      2
      2      3
      3      4
      4      5
      5      6
      6      7
      7      8
      8      9
      9     10
     10     11
     11     12
     12     13
     13     14
     14     15
     15     16
     16     17
     18      0
        </DataArray>
        <DataArray type="Int32" Name="offsets" format="ascii">
      2
      4
      6
      8
     10
     12
     14
     16
     18
     20
     22
     24
     26
     28
     30
     32
     34
     36
        </DataArray>
      </Lines>
    </Piece>
  </PolyData>
</VTKFile>
