<?xml version="1.0"?>
<VTKFile type="PolyData" version="0.1" byte_order="LittleEndian">
  <PolyData>
    <Piece NumberOfPoints="     19" NumberOfVerts="  0" NumberOfLines="     18"
           NumberOfStrips="  0" NumberOfPolys="      0">
      <Points>
        <DataArray type="Float32" NumberOfComponents="3" format="ascii">
                       3.16685                       3.09776                      91.24956
                       3.16528                       6.50841                      92.45574
                       3.17099                       9.91889                      93.66236
                       3.18677                      13.32912                      94.86960
                       3.21497                      16.73905                      96.07744
                       3.25815                      20.14867                      97.28573
                       3.31957                      23.55790                      98.49430
                       3.40340                      26.96664                      99.70288
                       3.51468                      30.37472                     100.91108
                       3.65912                      33.78191                     102.11825
                       3.84256                      37.18788                     103.32351
                       4.07028                      40.59222                     104.52581
                       4.34608                      43.99444                     105.72402
                       4.67101                      47.39409                     106.91725
                       5.04208                      50.79094                     108.10511
                       5.45054                      54.18525                     109.28811
                       5.88004                      57.57804                     110.46817
                       6.09747                      59.27424                     111.05780
                       3.16906                       1.39242                      90.64655
        </DataArray>
      </Points>
      <PointData>
        <DataArray type="Float32" Name="TranslationalVelocity" NumberOfComponents="3" format="ascii">
                       0.57375                      -1.05583                       2.93524
                       0.98115                      -2.17064                       6.08805
                       1.38401                      -3.28639                       9.23978
                       1.78055                      -4.40343                      12.39005
                       2.16927                      -5.52194                      15.53874
                       2.54863                      -6.64201                      18.68588
                       2.91690                      -7.76374                      21.83152
                       3.27205                      -8.88725                      24.97574
                       3.61175                     -10.01251                      28.11867
                       3.93349                     -11.13926                      31.26053
                       4.23482                     -12.26694                      34.40155
                       4.51362                     -13.39463                      37.54201
                       4.76859                     -14.52116                      40.68216
                       4.99973                     -15.64533                      43.82212
                       5.20902                     -16.76624                      46.96197
                       5.40120                     -17.88380                      50.10174
                       5.58458                     -18.99922                      53.24137
                       5.67537                     -19.55665                      54.81114
                       0.36916                      -0.49860                       1.35861
        </DataArray>
        <DataArray type="Float32" Name="RotationalVelocity" NumberOfComponents="3" format="ascii">
                       0.92451                       0.00903                      -0.11678
                       0.92430                       0.00870                      -0.11586
                       0.92399                       0.00819                      -0.11442
                       0.92363                       0.00754                      -0.11257
                       0.92326                       0.00676                      -0.11035
                       0.92293                       0.00582                      -0.10772
                       0.92262                       0.00472                      -0.10459
                       0.92237                       0.00341                      -0.10091
                       0.92220                       0.00189                      -0.09659
                       0.92213                       0.00013                      -0.09161
                       0.92219                      -0.00185                      -0.08603
                       0.92239                      -0.00398                      -0.07999
                       0.92272                      -0.00619                      -0.07375
                       0.92312                      -0.00831                      -0.06775
                       0.92355                      -0.01014                      -0.06257
                       0.92388                      -0.01140                      -0.05901
                       0.92397                      -0.01172                      -0.05809
                       0.92393                      -0.01160                      -0.05844
                       0.92458                       0.00914                      -0.11708
        </DataArray>
        <DataArray type="Float32" Name="TranslationalAcceleration" NumberOfComponents="3" format="ascii">
                      -1.02068                      -2.84986                      -0.89164
                      -1.04870                      -5.78095                      -2.01269
                      -1.04699                      -8.66930                      -3.24750
                      -1.00579                     -11.50435                      -4.62408
                      -0.91980                     -14.27995                      -6.15936
                      -0.79156                     -16.99321                      -7.86216
                      -0.63193                     -19.64354                      -9.73488
                      -0.46089                     -22.23198                     -11.77493
                      -0.30796                     -24.76058                     -13.97555
                      -0.21069                     -27.23185                     -16.32626
                      -0.21188                     -29.64823                     -18.81285
                      -0.35556                     -32.01164                     -21.41752
                      -0.68169                     -34.32339                     -24.11932
                      -1.21953                     -36.58460                     -26.89512
                      -1.97992                     -38.79798                     -29.72092
                      -2.94616                     -40.97063                     -32.57353
                      -4.06351                     -43.11717                     -35.43284
                      -4.65039                     -44.18632                     -36.86192
                      -1.00054                      -1.37527                      -0.35524
        </DataArray>
        <DataArray type="Float32" Name="RotationalAcceleration" NumberOfComponents="3" format="ascii">
                      -0.01137                       0.00682                      -0.01558
                      -0.03955                       0.00904                      -0.02201
                      -0.07775                       0.01221                      -0.03117
                      -0.12220                       0.01621                      -0.04270
                      -0.17024                       0.02034                      -0.05464
                      -0.21977                       0.02386                      -0.06484
                      -0.26914                       0.02599                      -0.07113
                      -0.31713                       0.02583                      -0.07091
                      -0.36273                       0.02252                      -0.06180
                      -0.40508                       0.01543                      -0.04197
                      -0.44339                       0.00423                      -0.01048
                      -0.47690                      -0.01099                       0.03239
                      -0.50502                      -0.02957                       0.08480
                      -0.52722                      -0.05020                       0.14303
                      -0.54296                      -0.07078                       0.20115
                      -0.55171                      -0.08831                       0.25067
                      -0.55310                      -0.09872                       0.28012
                      -0.55193                      -0.10158                       0.28820
                      -0.00034                       0.00593                      -0.01299
        </DataArray>
        <DataArray type="Float32" Name="OrientationX" NumberOfComponents="3" format="ascii">
                       0.99362                      -0.03645                       0.10671
                       0.99362                      -0.03793                       0.10619
                       0.99362                      -0.04025                       0.10537
                       0.99502                      -0.03877                       0.09185
                       0.99759                      -0.03202                       0.06148
                       0.99860                      -0.03041                       0.04333
                       0.99926                      -0.02967                       0.02462
                       0.99955                      -0.02980                       0.00451
                       0.99938                      -0.03125                      -0.01633
                       0.99872                      -0.03450                      -0.03694
                       0.99755                      -0.03933                      -0.05780
                       0.99589                      -0.04571                      -0.07815
                       0.99396                      -0.05389                      -0.09558
                       0.99181                      -0.06242                      -0.11143
                       0.98949                      -0.06950                      -0.12677
                       0.98729                      -0.07348                      -0.14089
                       0.98605                      -0.07354                      -0.14929
                       0.98580                      -0.07246                      -0.15149
                       0.99362                      -0.03597                       0.10688
        </DataArray>
        <DataArray type="Float32" Name="OrientationY" NumberOfComponents="3" format="ascii">
                       0.11276                       0.33137                      -0.93674
                       0.11276                       0.33130                      -0.93676
                       0.11276                       0.33119                      -0.93680
                       0.09952                       0.33159                      -0.93816
                       0.06864                       0.33255                      -0.94058
                       0.05100                       0.33297                      -0.94156
                       0.03311                       0.33336                      -0.94222
                       0.01420                       0.33379                      -0.94254
                      -0.00495                       0.33425                      -0.94247
                      -0.02328                       0.33473                      -0.94203
                      -0.04131                       0.33528                      -0.94121
                      -0.05835                       0.33590                      -0.94009
                      -0.07204                       0.33650                      -0.93892
                      -0.08413                       0.33713                      -0.93769
                      -0.09621                       0.33788                      -0.93626
                      -0.10817                       0.33872                      -0.93465
                      -0.11603                       0.33930                      -0.93349
                      -0.11845                       0.33948                      -0.93312
                       0.11276                       0.33141                      -0.93673
        </DataArray>
        <DataArray type="Float32" Name="OrientationZ" NumberOfComponents="3" format="ascii">
                      -0.00122                       0.94279                       0.33337
                       0.00035                       0.94276                       0.33346
                       0.00281                       0.94270                       0.33362
                       0.00592                       0.94263                       0.33380
                       0.00967                       0.94254                       0.33395
                       0.01420                       0.94245                       0.33405
                       0.01975                       0.94233                       0.33410
                       0.02658                       0.94218                       0.33406
                       0.03491                       0.94197                       0.33388
                       0.04487                       0.94168                       0.33349
                       0.05640                       0.94130                       0.33283
                       0.06922                       0.94079                       0.33186
                       0.08276                       0.94014                       0.33059
                       0.09610                       0.93938                       0.32912
                       0.10791                       0.93862                       0.32765
                       0.11641                       0.93801                       0.32647
                       0.11931                       0.93780                       0.32604
                       0.11904                       0.93782                       0.32608
                      -0.00173                       0.94280                       0.33335
        </DataArray>
      </PointData>
      <Lines>
        <DataArray type="Int32" Name="connectivity" format="ascii">
      0      1
      1      2
      2      3
      3      4
      4      5
      5      6
      6      7
      7      8
      8      9
      9     10
     10     11
     11     12
     12     13
     13     14
     14     15
     15     16
     16     17
     18      0
        </DataArray>
        <DataArray type="Int32" Name="offsets" format="ascii">
      2
      4
      6
      8
     10
     12
     14
     16
     18
     20
     22
     24
     26
     28
     30
     32
     34
     36
        </DataArray>
      </Lines>
    </Piece>
  </PolyData>
</VTKFile>
