<?xml version="1.0"?>
<VTKFile type="PolyData" version="0.1" byte_order="LittleEndian">
  <PolyData>
    <Piece NumberOfPoints="     17" NumberOfVerts="  0" NumberOfLines="      0"
           NumberOfStrips="  0" NumberOfPolys="      0">
      <Points>
        <DataArray type="Float32" NumberOfComponents="3" format="ascii">
                       2.62418                      -0.48473                      86.92005
                       2.02018                      -0.98885                      83.38899
                       1.42411                      -1.49295                      79.85657
                       0.83893                      -1.99682                      76.32231
                       0.26713                      -2.50037                      72.78582
                      -0.28851                      -3.00351                      69.24669
                      -0.82430                      -3.50598                      65.70442
                      -1.33544                      -4.00735                      62.15836
                      -1.81594                      -4.50717                      58.60781
                      -2.25890                      -5.00506                      55.05213
                      -2.65710                      -5.50081                      51.49089
                      -3.00383                      -5.99440                      47.92397
                      -3.29406                      -6.48601                      44.35175
                      -3.52586                      -6.97598                      40.77500
                      -3.70221                      -7.46473                      37.19486
                      -3.83304                      -7.95278                      33.61258
                      -3.93758                      -8.44057                      30.02933
        </DataArray>
      </Points>
      <PointData>
        <DataArray type="Float32" Name="Force" NumberOfComponents="3" format="ascii">
                     131.92963                     -72.76095                     -12.26946
                     469.65866                    -246.75315                     -44.09780
                    1756.27910                     603.91750                    -377.26953
                    3044.06320                    1062.41655                    -646.13661
                    1923.63204                     591.50810                    -390.02511
                    4335.83326                    1174.26482                    -837.09879
                    5498.40682                    1292.10324                    -997.33018
                    6410.16715                    1309.46358                   -1080.10029
                    7231.54757                    1332.55257                   -1123.73151
                    9567.23922                    1620.90733                   -1349.58276
                   11527.18930                    1847.15338                   -1442.42446
                   13654.64286                    2155.18758                   -1480.71002
                    8050.36906                    1257.31428                    -767.01487
                   16493.04993                    2542.23824                   -1351.78125
                   16371.86322                    2482.45963                   -1100.10312
                   24044.09208                    3514.10120                   -1313.97090
                    9874.72225                    1263.73362                    -466.24783
        </DataArray>
        <DataArray type="Float32" Name="Moment" NumberOfComponents="3" format="ascii">
                     -18.64871                     -18.05237                       2.39481
                      98.02832                    -335.12516                     -21.85174
                     732.49273                   -1871.91648                    -171.12083
                     776.16263                   -2557.70328                    -208.54919
                      28.69967                    -249.24680                    -141.97676
                    -677.51813                    1966.37579                    -311.43865
                    -399.01262                    1401.06003                     158.72829
                      53.13053                      66.90437                     977.11054
                     232.65550                    -767.25064                    1094.16672
                     374.80120                   -1871.01125                     932.51270
                     836.43163                   -4762.46811                     915.60963
                    1459.34076                   -8861.47185                     693.93306
                    -116.40747                     418.32512                    -472.16696
                   -1864.94878                   10665.87881                   -2343.24791
                   -1734.14744                   10164.48562                   -2389.81507
                    -340.69671                     972.06069                   -1611.78795
                    -191.24393                      -4.76522                    -246.71049
        </DataArray>
      </PointData>
    </Piece>
  </PolyData>
</VTKFile>
