<?xml version="1.0"?>
<VTKFile type="PolyData" version="0.1" byte_order="LittleEndian">
  <PolyData>
    <Piece NumberOfPoints="     19" NumberOfVerts="  0" NumberOfLines="     18"
           NumberOfStrips="  0" NumberOfPolys="      0">
      <Points>
        <DataArray type="Float32" NumberOfComponents="3" format="ascii">
                       3.25129                      -1.21652                      93.19336
                       3.50607                      -2.53769                      96.55148
                       3.76724                      -3.86085                      99.90832
                       4.03732                      -5.18666                     103.26341
                       4.31848                      -6.51552                     106.61638
                       4.61287                      -7.84760                     109.96694
                       4.92290                      -9.18302                     113.31475
                       5.25128                     -10.52188                     116.65943
                       5.60105                     -11.86418                     120.00055
                       5.97543                     -13.20980                     123.33767
                       6.37752                     -14.55849                     126.67031
                       6.80986                     -15.90985                     129.99808
                       7.27392                     -17.26334                     133.32071
                       7.76936                     -18.61838                     136.63818
                       8.29325                     -19.97440                     139.95090
                       8.83907                     -21.33087                     143.25990
                       9.39567                     -22.68749                     146.56706
                       9.67495                     -23.36582                     148.22047
                       3.12514                      -0.55634                      91.51405
        </DataArray>
      </Points>
      <PointData>
        <DataArray type="Float32" Name="TranslationalVelocity" NumberOfComponents="3" format="ascii">
                       0.11051                      -2.92517                      -1.08586
                      -0.00574                      -6.07814                      -2.31750
                      -0.11075                      -9.23133                      -3.55222
                      -0.20038                     -12.38499                      -4.79124
                      -0.27118                     -15.53920                      -6.03540
                      -0.31841                     -18.69421                      -7.28562
                      -0.33474                     -21.85063                      -8.54323
                      -0.30953                     -25.00941                      -9.81022
                      -0.22885                     -28.17143                     -11.08912
                      -0.07609                     -31.33729                     -12.38298
                       0.16670                     -34.50697                     -13.69522
                       0.51674                     -37.67966                     -15.02933
                       0.98789                     -40.85386                     -16.38840
                       1.58719                     -44.02770                     -17.77445
                       2.31091                     -47.19944                     -19.18724
                       3.13986                     -50.36820                     -20.62277
                       4.03405                     -53.53481                     -22.07188
                       4.49097                     -55.11784                     -22.79832
                       0.17081                      -1.34868                      -0.47062
        </DataArray>
        <DataArray type="Float32" Name="RotationalVelocity" NumberOfComponents="3" format="ascii">
                       0.93026                       0.00863                      -0.11330
                       0.93044                       0.01093                      -0.11241
                       0.93084                       0.01457                      -0.11101
                       0.93135                       0.01905                      -0.10928
                       0.93194                       0.02450                      -0.10718
                       0.93274                       0.03146                      -0.10451
                       0.93391                       0.04074                      -0.10095
                       0.93558                       0.05322                      -0.09617
                       0.93775                       0.06975                      -0.08984
                       0.94038                       0.09088                      -0.08173
                       0.94332                       0.11674                      -0.07179
                       0.94636                       0.14685                      -0.06019
                       0.94928                       0.17992                      -0.04741
                       0.95191                       0.21371                      -0.03433
                       0.95399                       0.24485                      -0.02225
                       0.95533                       0.26862                      -0.01301
                       0.95584                       0.27886                      -0.00902
                       0.95588                       0.27972                      -0.00869
                       0.93024                       0.00792                      -0.11358
        </DataArray>
        <DataArray type="Float32" Name="TranslationalAcceleration" NumberOfComponents="3" format="ascii">
                       0.67282                       1.42754                      -2.24863
                       0.46213                       2.82168                      -5.10024
                       0.13233                       4.19260                      -7.95348
                      -0.36210                       5.53797                     -10.80619
                      -1.05807                       6.85601                     -13.65570
                      -1.98083                       8.14388                     -16.50045
                      -3.14220                       9.39908                     -19.34051
                      -4.53929                      10.61952                     -22.17799
                      -6.15406                      11.80313                     -25.01739
                      -7.95406                      12.94877                     -27.86573
                      -9.89419                      14.05741                     -30.73256
                     -11.91948                      15.13316                     -33.62988
                     -13.96908                      16.18372                     -36.57166
                     -15.98123                      17.21985                     -39.57234
                     -17.89905                      18.25305                     -42.64330
                     -19.67736                      19.29219                     -45.78727
                     -21.29052                      20.33945                     -48.99199
                     -22.05410                      20.86484                     -50.60688
                       0.75451                       0.72513                      -0.82338
        </DataArray>
        <DataArray type="Float32" Name="RotationalAcceleration" NumberOfComponents="3" format="ascii">
                      -0.07439                       0.06595                      -0.01290
                      -0.06855                       0.04173                      -0.02285
                      -0.06179                       0.00495                      -0.03781
                      -0.05501                      -0.04269                      -0.05703
                      -0.04776                      -0.09849                      -0.07950
                      -0.03978                      -0.15914                      -0.10392
                      -0.03118                      -0.22095                      -0.12885
                      -0.02158                      -0.27998                      -0.15276
                      -0.01068                      -0.33230                      -0.17413
                       0.00157                      -0.37435                      -0.19157
                       0.01501                      -0.40312                      -0.20388
                       0.02923                      -0.41651                      -0.21020
                       0.04357                      -0.41356                      -0.21011
                       0.05722                      -0.39476                      -0.20374
                       0.06915                      -0.36228                      -0.19187
                       0.07810                      -0.32026                      -0.17603
                       0.08270                      -0.27516                      -0.15865
                       0.08375                      -0.25278                      -0.14994
                      -0.07688                       0.07478                      -0.00924
        </DataArray>
        <DataArray type="Float32" Name="OrientationX" NumberOfComponents="3" format="ascii">
                       0.95965                      -0.22961                      -0.16235
                       0.95954                      -0.22908                      -0.16372
                       0.95938                      -0.22824                      -0.16584
                       0.96270                      -0.21514                      -0.16409
                       0.97001                      -0.18570                      -0.15683
                       0.97358                      -0.16805                      -0.15458
                       0.97682                      -0.14988                      -0.15285
                       0.97982                      -0.13043                      -0.15144
                       0.98240                      -0.11037                      -0.15069
                       0.98437                      -0.09071                      -0.15098
                       0.98582                      -0.07096                      -0.15205
                       0.98672                      -0.05187                      -0.15394
                       0.98692                      -0.03578                      -0.15717
                       0.98680                      -0.02129                      -0.16054
                       0.98664                      -0.00725                      -0.16273
                       0.98665                       0.00581                      -0.16273
                       0.98690                       0.01360                      -0.16076
                       0.98711                       0.01565                      -0.15928
                       0.95968                      -0.22979                      -0.16189
        </DataArray>
        <DataArray type="Float32" Name="OrientationY" NumberOfComponents="3" format="ascii">
                       0.27243                       0.90226                       0.33424
                       0.27244                       0.90222                       0.33434
                       0.27245                       0.90216                       0.33449
                       0.25967                       0.90505                       0.33684
                       0.22973                       0.91119                       0.34199
                       0.21257                       0.91424                       0.34492
                       0.19514                       0.91702                       0.34785
                       0.17664                       0.91960                       0.35090
                       0.15786                       0.92184                       0.35395
                       0.13985                       0.92363                       0.35687
                       0.12207                       0.92503                       0.35974
                       0.10523                       0.92603                       0.36248
                       0.09168                       0.92659                       0.36473
                       0.07967                       0.92690                       0.36676
                       0.06764                       0.92704                       0.36882
                       0.05571                       0.92702                       0.37084
                       0.04785                       0.92694                       0.37216
                       0.04542                       0.92690                       0.37255
                       0.27243                       0.90227                       0.33420
        </DataArray>
        <DataArray type="Float32" Name="OrientationZ" NumberOfComponents="3" format="ascii">
                       0.06974                      -0.36498                       0.92840
                       0.07112                      -0.36542                       0.92812
                       0.07327                      -0.36608                       0.92769
                       0.07604                      -0.36689                       0.92715
                       0.07939                      -0.36776                       0.92652
                       0.08336                      -0.36867                       0.92582
                       0.08803                      -0.36961                       0.92501
                       0.09350                      -0.37057                       0.92409
                       0.09985                      -0.37151                       0.92304
                       0.10708                      -0.37240                       0.92187
                       0.11513                      -0.37320                       0.92058
                       0.12376                      -0.37387                       0.91919
                       0.13258                      -0.37437                       0.91775
                       0.14100                      -0.37471                       0.91636
                       0.14818                      -0.37490                       0.91515
                       0.15301                      -0.37496                       0.91433
                       0.15408                      -0.37497                       0.91414
                       0.15347                      -0.37498                       0.91424
                       0.06928                      -0.36483                       0.92849
        </DataArray>
      </PointData>
      <Lines>
        <DataArray type="Int32" Name="connectivity" format="ascii">
      0      1
      1      2
      2      3
      3      4
      4      5
      5      6
      6      7
      7      8
      8      9
      9     10
     10     11
     11     12
     12     13
     13     14
     14     15
     15     16
     16     17
     18      0
        </DataArray>
        <DataArray type="Int32" Name="offsets" format="ascii">
      2
      4
      6
      8
     10
     12
     14
     16
     18
     20
     22
     24
     26
     28
     30
     32
     34
     36
        </DataArray>
      </Lines>
    </Piece>
  </PolyData>
</VTKFile>
