<?xml version="1.0"?>
<VTKFile type="PolyData" version="0.1" byte_order="LittleEndian">
  <PolyData>
    <Piece NumberOfPoints="     19" NumberOfVerts="  0" NumberOfLines="     18"
           NumberOfStrips="  0" NumberOfPolys="      0">
      <Points>
        <DataArray type="Float32" NumberOfComponents="3" format="ascii">
                       2.81020                      -0.99535                      89.00961
                       2.62648                      -1.89302                      87.99555
                       2.23028                      -3.61587                      85.90835
                       1.82311                      -5.30264                      83.79133
                       1.31223                      -7.38695                      81.12445
                       0.77452                      -9.99099                      78.00274
                       0.28729                     -12.68637                      74.95302
                      -0.18183                     -15.37609                      71.89541
                      -0.62628                     -18.06150                      68.83022
                      -1.04267                     -20.74131                      65.75606
                      -1.43181                     -23.41373                      62.67181
                      -1.78578                     -26.07958                      59.57752
                      -2.10229                     -28.73946                      56.47393
                      -2.38133                     -31.39408                      53.36213
                      -2.62406                     -34.04425                      50.24336
                      -2.80446                     -36.25026                      47.64054
                      -2.93844                     -38.02001                      45.56170
                      -3.06854                     -39.83182                      43.51762
                      -3.13784                     -40.70568                      42.46920
        </DataArray>
      </Points>
      <PointData>
        <DataArray type="Float32" Name="Force" NumberOfComponents="3" format="ascii">
                       0.35963                      -3.39422                       2.95693
                      62.72329                     -25.31999                      11.22033
                      90.80549                     -56.66407                      34.17907
                      86.44054                     -70.67670                      47.59029
                     704.32188                     205.60711                    -305.27220
                     898.09214                     217.86520                    -345.10133
                    1024.97958                     203.15452                    -346.78987
                    1280.78181                     212.36803                    -386.63175
                    1317.20244                     175.70859                    -347.88549
                    1410.10613                     155.51365                    -328.92950
                    1599.74621                     137.21943                    -319.59785
                    1600.67447                     103.96306                    -269.86186
                    1628.24248                      83.01346                    -232.91937
                    1449.47369                      47.47538                    -165.56549
                    1185.83303                      17.22132                    -103.36364
                    1502.89117                      28.11463                    -126.80912
                    1730.29061                      35.85159                    -144.79814
                    1390.87060                      28.72463                    -116.12246
                    1364.93828                      24.79173                    -112.18367
        </DataArray>
        <DataArray type="Float32" Name="Moment" NumberOfComponents="3" format="ascii">
                       0.00000                       0.00000                       0.00000
                       0.00000                       0.00000                       0.00000
                       0.00000                       0.00000                       0.00000
                       0.00000                       0.00000                       0.00000
                      27.78411                     142.25776                     159.91683
                      56.39552                     297.38404                     334.50466
                      69.74224                     381.82513                     429.81034
                      92.28971                     529.47493                     596.55352
                     118.14563                     718.25823                     810.11100
                     121.76999                     795.18834                     897.97737
                     118.35848                     844.54568                     955.04901
                     111.47593                     884.78227                    1002.07321
                      77.68084                     698.03331                     791.81653
                      64.82880                     668.22973                     759.16846
                      53.04765                     626.77138                     713.01176
                      48.37453                     625.36336                     711.96388
                      42.56971                     570.78368                     650.01850
                      21.87553                     293.91494                     334.72097
                      22.89904                     303.59129                     345.70387
        </DataArray>
        <DataArray type="Float32" Name="TranslationalVelocity" NumberOfComponents="3" format="ascii">
                       0.06358                       1.01148                      -0.89910
                      -0.04073                       1.97744                      -1.73530
                      -0.23884                       3.96813                      -3.34088
                      -0.42372                       5.98947                      -4.91583
                      -0.63277                       8.53894                      -6.86829
                      -0.86134                      11.52258                      -9.31767
                      -1.05300                      14.44068                     -11.86595
                      -1.18250                      17.37252                     -14.42501
                      -1.22800                      20.31906                     -16.99969
                      -1.15926                      23.28360                     -19.59296
                      -0.95744                      26.26808                     -22.20407
                      -0.57105                      29.27541                     -24.83899
                       0.03670                      32.30660                     -27.49872
                       0.89170                      35.36176                     -30.18179
                       1.99818                      38.43992                     -32.88389
                       3.08828                      41.01944                     -35.14621
                       4.04873                      43.08485                     -36.96694
                       5.03797                      45.11718                     -38.83182
                       5.53845                      46.15922                     -39.73373
        </DataArray>
        <DataArray type="Float32" Name="RotationalVelocity" NumberOfComponents="3" format="ascii">
                       0.93187                       0.00413                      -0.11303
                       0.93221                       0.00336                      -0.11240
                       0.93322                       0.00107                      -0.11054
                       0.93461                      -0.00211                      -0.10797
                       0.93688                      -0.00736                      -0.10370
                       0.94012                      -0.01526                      -0.09725
                       0.94383                      -0.02529                      -0.08900
                       0.94827                      -0.03848                      -0.07806
                       0.95368                      -0.05618                      -0.06328
                       0.96016                      -0.07968                      -0.04353
                       0.96770                      -0.11059                      -0.01738
                       0.97583                      -0.14818                       0.01462
                       0.98405                      -0.19115                       0.05139
                       0.99182                      -0.23669                       0.09053
                       0.99845                      -0.28010                       0.12799
                       1.00245                      -0.30929                       0.15325
                       1.00436                      -0.32416                       0.16614
                       1.00522                      -0.33137                       0.17241
                       1.00526                      -0.33172                       0.17271
        </DataArray>
        <DataArray type="Float32" Name="TranslationalAcceleration" NumberOfComponents="3" format="ascii">
                       0.87557                       0.88691                       1.27524
                       0.90639                       1.69063                       2.17861
                       0.96520                       3.21897                       4.05657
                       1.00422                       4.66388                       6.00936
                       1.00589                       6.35372                       8.55381
                       0.91032                       8.32622                      11.68022
                       0.67967                      10.21478                      14.94106
                       0.29956                      11.92727                      18.41279
                      -0.21462                      13.47614                      22.09077
                      -0.81349                      14.88055                      25.96453
                      -1.42121                      16.17486                      30.00505
                      -1.93888                      17.37721                      34.22081
                      -2.24397                      18.52362                      38.60932
                      -2.21552                      19.65262                      43.17504
                      -1.75909                      20.80010                      47.92078
                      -1.03178                      21.78730                      51.99931
                      -0.22205                      22.61135                      55.32523
                       0.77067                      23.50992                      58.65532
                       1.27196                      23.91549                      60.33043
        </DataArray>
        <DataArray type="Float32" Name="OrientationX" NumberOfComponents="3" format="ascii">
                       0.94292                       0.14500                      -0.29978
                       0.94298                       0.14529                      -0.29946
                       0.94314                       0.14610                      -0.29855
                       0.94336                       0.14719                      -0.29732
                       0.94372                       0.14900                      -0.29527
                       0.95349                       0.12805                      -0.27289
                       0.96015                       0.11415                      -0.25510
                       0.96571                       0.10292                      -0.23834
                       0.97119                       0.09136                      -0.22010
                       0.97640                       0.07990                      -0.20065
                       0.98098                       0.06995                      -0.18109
                       0.98509                       0.06054                      -0.16102
                       0.98848                       0.05276                      -0.14186
                       0.99089                       0.04816                      -0.12573
                       0.99293                       0.04289                      -0.11070
                       0.99433                       0.03714                      -0.09968
                       0.99518                       0.03172                      -0.09281
                       0.99556                       0.02825                      -0.08981
                       0.99553                       0.02782                      -0.09031
        </DataArray>
        <DataArray type="Float32" Name="OrientationY" NumberOfComponents="3" format="ascii">
                       0.30487                      -0.73806                       0.60194
                       0.30484                      -0.73821                       0.60176
                       0.30476                      -0.73861                       0.60132
                       0.30466                      -0.73909                       0.60078
                       0.30452                      -0.73981                       0.59996
                       0.27406                      -0.74521                       0.60791
                       0.25186                      -0.74904                       0.61279
                       0.23233                      -0.75225                       0.61655
                       0.21162                      -0.75532                       0.62025
                       0.19022                      -0.75815                       0.62372
                       0.16991                      -0.76056                       0.62664
                       0.14972                      -0.76268                       0.62921
                       0.13138                      -0.76443                       0.63117
                       0.11745                      -0.76575                       0.63233
                       0.10374                      -0.76686                       0.63337
                       0.09225                      -0.76762                       0.63424
                       0.08369                      -0.76805                       0.63490
                       0.07910                      -0.76825                       0.63525
                       0.07909                      -0.76825                       0.63525
        </DataArray>
        <DataArray type="Float32" Name="OrientationZ" NumberOfComponents="3" format="ascii">
                      -0.13398                      -0.65898                      -0.74014
                      -0.13363                      -0.65873                      -0.74041
                      -0.13266                      -0.65812                      -0.74114
                      -0.13132                      -0.65733                      -0.74207
                      -0.12905                      -0.65611                      -0.74355
                      -0.12552                      -0.65442                      -0.74564
                      -0.12113                      -0.65262                      -0.74794
                      -0.11584                      -0.65079                      -0.75037
                      -0.10958                      -0.64895                      -0.75290
                      -0.10229                      -0.64717                      -0.75545
                      -0.09390                      -0.64549                      -0.75797
                      -0.08472                      -0.64394                      -0.76037
                      -0.07514                      -0.64254                      -0.76256
                      -0.06582                      -0.64133                      -0.76443
                      -0.05772                      -0.64038                      -0.76589
                      -0.05296                      -0.63983                      -0.76669
                      -0.05114                      -0.63960                      -0.76700
                      -0.05105                      -0.63953                      -0.76707
                      -0.05171                      -0.63955                      -0.76701
        </DataArray>
      </PointData>
      <Lines>
        <DataArray type="Int32" Name="connectivity" format="ascii">
      0      1
      1      2
      2      3
      3      4
      4      5
      5      6
      6      7
      7      8
      8      9
      9     10
     10     11
     11     12
     12     13
     13     14
     14     15
     15     16
     16     17
     17     18
        </DataArray>
        <DataArray type="Int32" Name="offsets" format="ascii">
      2
      4
      6
      8
     10
     12
     14
     16
     18
     20
     22
     24
     26
     28
     30
     32
     34
     36
        </DataArray>
      </Lines>
    </Piece>
  </PolyData>
</VTKFile>
