<?xml version="1.0"?>
<VTKFile type="PolyData" version="0.1" byte_order="LittleEndian">
  <PolyData>
    <Piece NumberOfPoints="     19" NumberOfVerts="  0" NumberOfLines="     18"
           NumberOfStrips="  0" NumberOfPolys="      0">
      <Points>
        <DataArray type="Float32" NumberOfComponents="3" format="ascii">
                       3.30357                      -2.34309                      92.49311
                       3.47406                      -4.88530                      95.06127
                       3.65174                      -7.43046                      97.62602
                       3.83952                      -9.97948                     100.18621
                       4.03993                     -12.53287                     102.74108
                       4.25572                     -15.09089                     105.29005
                       4.49011                     -17.65369                     107.83256
                       4.74693                     -20.22136                     110.36797
                       5.03068                     -22.79384                     112.89561
                       5.34627                     -25.37088                     115.41480
                       5.69857                     -27.95201                     117.92491
                       6.09186                     -30.53652                     120.42543
                       6.52894                     -33.12347                     122.91614
                       7.01011                     -35.71189                     125.39721
                       7.53198                     -38.30084                     127.86952
                       8.08604                     -40.88968                     130.33501
                       8.65705                     -43.47830                     132.79691
                       8.94441                     -44.77258                     134.02746
                       3.21971                      -1.07259                      91.20834
        </DataArray>
      </Points>
      <PointData>
        <DataArray type="Float32" Name="TranslationalVelocity" NumberOfComponents="3" format="ascii">
                       0.01878                      -2.19648                      -2.09471
                      -0.25646                      -4.57666                      -4.43257
                      -0.53380                      -6.95431                      -6.77284
                      -0.81402                      -9.32863                      -9.11625
                      -1.09774                     -11.69917                     -11.46316
                      -1.38560                     -14.06572                     -13.81373
                      -1.67827                     -16.42812                     -16.16800
                      -1.97658                     -18.78624                     -18.52589
                      -2.28148                     -21.14001                     -20.88717
                      -2.59396                     -23.48947                     -23.25141
                      -2.91500                     -25.83475                     -25.61796
                      -3.24542                     -28.17610                     -27.98595
                      -3.58568                     -30.51388                     -30.35434
                      -3.93571                     -32.84855                     -32.72213
                      -4.29466                     -35.18068                     -35.08854
                      -4.66059                     -37.51103                     -37.45332
                      -5.03018                     -39.84051                     -39.81709
                      -5.21537                     -41.00515                     -40.99886
                       0.15599                      -1.00587                      -0.92629
        </DataArray>
        <DataArray type="Float32" Name="RotationalVelocity" NumberOfComponents="3" format="ascii">
                       0.91913                       0.00797                      -0.11606
                       0.91905                       0.00771                      -0.11632
                       0.91891                       0.00729                      -0.11672
                       0.91873                       0.00675                      -0.11724
                       0.91853                       0.00611                      -0.11786
                       0.91831                       0.00534                      -0.11860
                       0.91806                       0.00443                      -0.11949
                       0.91777                       0.00334                      -0.12054
                       0.91745                       0.00206                      -0.12179
                       0.91710                       0.00056                      -0.12325
                       0.91673                      -0.00113                      -0.12490
                       0.91637                      -0.00299                      -0.12671
                       0.91603                      -0.00492                      -0.12859
                       0.91573                      -0.00679                      -0.13042
                       0.91549                      -0.00842                      -0.13202
                       0.91533                      -0.00956                      -0.13314
                       0.91530                      -0.00988                      -0.13345
                       0.91531                      -0.00979                      -0.13336
                       0.91916                       0.00806                      -0.11597
        </DataArray>
        <DataArray type="Float32" Name="TranslationalAcceleration" NumberOfComponents="3" format="ascii">
                      -1.01477                       1.53987                      -2.28481
                      -1.37933                       3.46701                      -4.71658
                      -1.72977                       5.46850                      -7.07569
                      -2.06597                       7.56319                      -9.34301
                      -2.39152                       9.76234                     -11.50641
                      -2.71083                      12.07098                     -13.55974
                      -3.02534                      14.48925                     -15.50177
                      -3.33199                      17.01365                     -17.33521
                      -3.62308                      19.63821                     -19.06588
                      -3.88628                      22.35554                     -20.70196
                      -4.10556                      25.15765                     -22.25347
                      -4.26274                      28.03652                     -23.73192
                      -4.33988                      30.98425                     -25.14994
                      -4.32228                      33.99271                     -26.52113
                      -4.20226                      37.05259                     -27.85960
                      -3.98361                      40.15199                     -29.17944
                      -3.68656                      43.27425                     -30.49431
                      -3.52214                      44.83864                     -31.15216
                      -0.82925                       0.59203                      -1.05363
        </DataArray>
        <DataArray type="Float32" Name="RotationalAcceleration" NumberOfComponents="3" format="ascii">
                       0.10931                      -0.01084                      -0.01896
                       0.08586                      -0.00910                      -0.01573
                       0.05381                      -0.00719                      -0.01177
                       0.01612                      -0.00590                      -0.00807
                      -0.02473                      -0.00572                      -0.00525
                      -0.06662                      -0.00632                      -0.00314
                      -0.10790                      -0.00675                      -0.00090
                      -0.14733                      -0.00608                       0.00230
                      -0.18405                      -0.00334                       0.00738
                      -0.21755                       0.00237                       0.01519
                      -0.24753                       0.01168                       0.02632
                      -0.27387                       0.02481                       0.04100
                      -0.29641                       0.04149                       0.05894
                      -0.31490                       0.06076                       0.07917
                      -0.32889                       0.08082                       0.09990
                      -0.33763                       0.09898                       0.11840
                      -0.33989                       0.11147                       0.13089
                      -0.33920                       0.11577                       0.13510
                       0.11848                      -0.01156                      -0.02026
        </DataArray>
        <DataArray type="Float32" Name="OrientationX" NumberOfComponents="3" format="ascii">
                       0.94806                      -0.19307                      -0.25281
                       0.94797                      -0.19182                      -0.25407
                       0.94784                      -0.18986                      -0.25604
                       0.95176                      -0.17824                      -0.24977
                       0.96043                      -0.15390                      -0.23215
                       0.96479                      -0.13809                      -0.22384
                       0.96882                      -0.12142                      -0.21597
                       0.97265                      -0.10318                      -0.20811
                       0.97602                      -0.08382                      -0.20089
                       0.97869                      -0.06404                      -0.19509
                       0.98076                      -0.04353                      -0.19028
                       0.98214                      -0.02297                      -0.18674
                       0.98258                      -0.00442                      -0.18576
                       0.98255                       0.01274                      -0.18555
                       0.98247                       0.02878                      -0.18418
                       0.98263                       0.04245                      -0.18063
                       0.98308                       0.04947                      -0.17637
                       0.98340                       0.05076                      -0.17423
                       0.94808                      -0.19349                      -0.25239
        </DataArray>
        <DataArray type="Float32" Name="OrientationY" NumberOfComponents="3" format="ascii">
                       0.31471                       0.68510                       0.65696
                       0.31473                       0.68477                       0.65729
                       0.31476                       0.68432                       0.65774
                       0.30215                       0.68625                       0.66164
                       0.27257                       0.69084                       0.66967
                       0.25560                       0.69284                       0.67427
                       0.23836                       0.69459                       0.67877
                       0.22006                       0.69616                       0.68333
                       0.20146                       0.69743                       0.68776
                       0.18361                       0.69829                       0.69187
                       0.16601                       0.69880                       0.69578
                       0.14933                       0.69896                       0.69940
                       0.13592                       0.69878                       0.70230
                       0.12405                       0.69842                       0.70485
                       0.11216                       0.69792                       0.70734
                       0.10033                       0.69733                       0.70970
                       0.09253                       0.69690                       0.71118
                       0.09011                       0.69677                       0.71161
                       0.31470                       0.68523                       0.65683
        </DataArray>
        <DataArray type="Float32" Name="OrientationZ" NumberOfComponents="3" format="ascii">
                       0.04636                      -0.70239                       0.71028
                       0.04790                      -0.70306                       0.70952
                       0.05033                      -0.70403                       0.70839
                       0.05348                      -0.70519                       0.70700
                       0.05732                      -0.70644                       0.70545
                       0.06197                      -0.70775                       0.70374
                       0.06759                      -0.70909                       0.70187
                       0.07437                      -0.71043                       0.69982
                       0.08246                      -0.71174                       0.69759
                       0.09192                      -0.71295                       0.69517
                       0.10268                      -0.71399                       0.69259
                       0.11446                      -0.71479                       0.68991
                       0.12670                      -0.71532                       0.68721
                       0.13858                      -0.71557                       0.68465
                       0.14890                      -0.71559                       0.68246
                       0.15608                      -0.71550                       0.68096
                       0.15809                      -0.71546                       0.68053
                       0.15752                      -0.71549                       0.68063
                       0.04585                      -0.70215                       0.71055
        </DataArray>
      </PointData>
      <Lines>
        <DataArray type="Int32" Name="connectivity" format="ascii">
      0      1
      1      2
      2      3
      3      4
      4      5
      5      6
      6      7
      7      8
      8      9
      9     10
     10     11
     11     12
     12     13
     13     14
     14     15
     15     16
     16     17
     18      0
        </DataArray>
        <DataArray type="Int32" Name="offsets" format="ascii">
      2
      4
      6
      8
     10
     12
     14
     16
     18
     20
     22
     24
     26
     28
     30
     32
     34
     36
        </DataArray>
      </Lines>
    </Piece>
  </PolyData>
</VTKFile>
