<?xml version="1.0"?>
<VTKFile type="PolyData" version="0.1" byte_order="LittleEndian">
  <PolyData>
    <Piece NumberOfPoints="     19" NumberOfVerts="  0" NumberOfLines="     18"
           NumberOfStrips="  0" NumberOfPolys="      0">
      <Points>
        <DataArray type="Float32" NumberOfComponents="3" format="ascii">
                       3.23850                      -0.27235                      93.40356
                       3.51444                      -0.56999                      96.99837
                       3.79105                      -0.86772                     100.59312
                       4.06861                      -1.16560                     104.18778
                       4.34733                      -1.46365                     107.78234
                       4.62740                      -1.76188                     111.37678
                       4.90904                      -2.06030                     114.97108
                       5.19243                      -2.35890                     118.56523
                       5.47775                      -2.65769                     122.15921
                       5.76518                      -2.95664                     125.75300
                       6.05487                      -3.25575                     129.34661
                       6.34689                      -3.55499                     132.94001
                       6.64126                      -3.85432                     136.53321
                       6.93782                      -4.15371                     140.12623
                       7.23628                      -4.45313                     143.71909
                       7.53607                      -4.75256                     147.31184
                       7.83634                      -5.05198                     150.90455
                       7.98647                      -5.20169                     152.70090
                       3.10066                      -0.12356                      91.60615
        </DataArray>
      </Points>
      <PointData>
        <DataArray type="Float32" Name="TranslationalVelocity" NumberOfComponents="3" format="ascii">
                      -0.01191                      -3.10058                      -0.26039
                      -0.04243                      -6.48339                      -0.53813
                      -0.05935                      -9.87010                      -0.81733
                      -0.05730                     -13.26207                      -1.09858
                      -0.03170                     -16.66010                      -1.38232
                       0.02179                     -20.06450                      -1.66896
                       0.10752                     -23.47545                      -1.95887
                       0.23000                     -26.89303                      -2.25247
                       0.39391                     -30.31715                      -2.55015
                       0.60383                     -33.74751                      -2.85231
                       0.86382                     -37.18361                      -3.15927
                       1.17674                     -40.62473                      -3.47127
                       1.54349                     -44.06999                      -3.78832
                       1.96190                     -47.51845                      -4.11021
                       2.42554                     -50.96914                      -4.43630
                       2.92232                     -54.42112                      -4.76546
                       3.43285                     -57.87358                      -5.09586
                       3.68860                     -59.59985                      -5.26111
                       0.00600                      -1.40994                      -0.12181
        </DataArray>
        <DataArray type="Float32" Name="RotationalVelocity" NumberOfComponents="3" format="ascii">
                       0.93197                      -0.00066                      -0.11242
                       0.93284                       0.00228                      -0.11225
                       0.93416                       0.00687                      -0.11197
                       0.93580                       0.01279                      -0.11160
                       0.93758                       0.01992                      -0.11115
                       0.93940                       0.02824                      -0.11060
                       0.94129                       0.03777                      -0.10996
                       0.94318                       0.04859                      -0.10921
                       0.94503                       0.06071                      -0.10835
                       0.94677                       0.07406                      -0.10737
                       0.94835                       0.08842                      -0.10631
                       0.94971                       0.10336                      -0.10517
                       0.95081                       0.11820                      -0.10403
                       0.95164                       0.13194                      -0.10296
                       0.95219                       0.14323                      -0.10206
                       0.95246                       0.15028                      -0.10150
                       0.95251                       0.15083                      -0.10146
                       0.95249                       0.14917                      -0.10159
                       0.93167                      -0.00166                      -0.11248
        </DataArray>
        <DataArray type="Float32" Name="TranslationalAcceleration" NumberOfComponents="3" format="ascii">
                       0.23274                       0.50593                      -2.61776
                       0.08328                       1.24192                      -5.75040
                       0.02342                       1.88135                      -8.90534
                       0.09088                       2.39724                     -12.09056
                       0.32002                       2.77353                     -15.31202
                       0.74885                       3.00204                     -18.57462
                       1.42190                       3.07877                     -21.88348
                       2.39215                       3.00251                     -25.24433
                       3.72101                       2.77507                     -28.66335
                       5.47516                       2.40133                     -32.14700
                       7.72081                       1.88937                     -35.70144
                      10.51533                       1.25083                     -39.33164
                      13.89620                       0.50062                     -43.04022
                      17.86727                      -0.34367                     -46.82588
                      22.38267                      -1.26167                     -50.68122
                      27.32795                      -2.23010                     -54.59021
                      32.49851                      -3.22354                     -58.52578
                      35.10817                      -3.72325                     -60.49606
                       0.32464                       0.11790                      -1.05587
        </DataArray>
        <DataArray type="Float32" Name="RotationalAcceleration" NumberOfComponents="3" format="ascii">
                      -0.14061                       0.05206                       0.03049
                      -0.11842                       0.07136                       0.03039
                      -0.08710                       0.10239                       0.03055
                      -0.04993                       0.14281                       0.03105
                      -0.00969                       0.19301                       0.03212
                       0.03203                       0.25452                       0.03402
                       0.07455                       0.32942                       0.03696
                       0.11704                       0.42028                       0.04122
                       0.15869                       0.52916                       0.04705
                       0.19867                       0.65692                       0.05456
                       0.23604                       0.80241                       0.06374
                       0.26980                       0.96186                       0.07435
                       0.29912                       1.12801                       0.08585
                       0.32328                       1.28948                       0.09737
                       0.34132                       1.43007                       0.10762
                       0.35236                       1.52796                       0.11488
                       0.35583                       1.55496                       0.11685
                       0.35563                       1.54680                       0.11619
                      -0.14897                       0.04583                       0.03061
        </DataArray>
        <DataArray type="Float32" Name="OrientationX" NumberOfComponents="3" format="ascii">
                       0.96799                      -0.23291                      -0.09351
                       0.96798                      -0.23289                      -0.09366
                       0.96796                      -0.23287                      -0.09389
                       0.97104                      -0.21993                      -0.09335
                       0.97755                      -0.18968                      -0.09170
                       0.98083                      -0.17232                      -0.09093
                       0.98384                      -0.15469                      -0.09017
                       0.98667                      -0.13599                      -0.08935
                       0.98918                      -0.11700                      -0.08854
                       0.99123                      -0.09877                      -0.08780
                       0.99292                      -0.08078                      -0.08709
                       0.99422                      -0.06372                      -0.08643
                       0.99504                      -0.04996                      -0.08600
                       0.99561                      -0.03775                      -0.08562
                       0.99604                      -0.02553                      -0.08510
                       0.99634                      -0.01343                      -0.08440
                       0.99647                      -0.00548                      -0.08374
                       0.99651                      -0.00304                      -0.08345
                       0.96800                      -0.23291                      -0.09346
        </DataArray>
        <DataArray type="Float32" Name="OrientationY" NumberOfComponents="3" format="ascii">
                       0.23913                       0.96901                       0.06188
                       0.23913                       0.96901                       0.06187
                       0.23913                       0.96902                       0.06185
                       0.22622                       0.97203                       0.06307
                       0.19602                       0.97838                       0.06592
                       0.17871                       0.98158                       0.06751
                       0.16113                       0.98451                       0.06910
                       0.14248                       0.98726                       0.07078
                       0.12354                       0.98969                       0.07246
                       0.10537                       0.99167                       0.07406
                       0.08744                       0.99330                       0.07562
                       0.07044                       0.99453                       0.07709
                       0.05673                       0.99532                       0.07826
                       0.04458                       0.99585                       0.07930
                       0.03240                       0.99624                       0.08033
                       0.02032                       0.99648                       0.08135
                       0.01238                       0.99655                       0.08202
                       0.00993                       0.99656                       0.08223
                       0.23913                       0.96901                       0.06189
        </DataArray>
        <DataArray type="Float32" Name="OrientationZ" NumberOfComponents="3" format="ascii">
                       0.07620                      -0.08226                       0.99369
                       0.07635                      -0.08228                       0.99368
                       0.07658                      -0.08232                       0.99366
                       0.07687                      -0.08236                       0.99363
                       0.07722                      -0.08241                       0.99360
                       0.07762                      -0.08246                       0.99357
                       0.07808                      -0.08251                       0.99353
                       0.07859                      -0.08257                       0.99348
                       0.07915                      -0.08262                       0.99343
                       0.07976                      -0.08266                       0.99338
                       0.08040                      -0.08270                       0.99333
                       0.08105                      -0.08273                       0.99327
                       0.08169                      -0.08275                       0.99322
                       0.08227                      -0.08276                       0.99317
                       0.08273                      -0.08277                       0.99313
                       0.08301                      -0.08277                       0.99311
                       0.08300                      -0.08277                       0.99311
                       0.08291                      -0.08277                       0.99311
                       0.07615                      -0.08226                       0.99370
        </DataArray>
      </PointData>
      <Lines>
        <DataArray type="Int32" Name="connectivity" format="ascii">
      0      1
      1      2
      2      3
      3      4
      4      5
      5      6
      6      7
      7      8
      8      9
      9     10
     10     11
     11     12
     12     13
     13     14
     14     15
     15     16
     16     17
     18      0
        </DataArray>
        <DataArray type="Int32" Name="offsets" format="ascii">
      2
      4
      6
      8
     10
     12
     14
     16
     18
     20
     22
     24
     26
     28
     30
     32
     34
     36
        </DataArray>
      </Lines>
    </Piece>
  </PolyData>
</VTKFile>
