<?xml version="1.0"?>
<VTKFile type="PolyData" version="0.1" byte_order="LittleEndian">
  <PolyData>
    <Piece NumberOfPoints="     19" NumberOfVerts="  0" NumberOfLines="     18"
           NumberOfStrips="  0" NumberOfPolys="      0">
      <Points>
        <DataArray type="Float32" NumberOfComponents="3" format="ascii">
                       3.23894                      -0.54115                      93.37133
                       3.51188                      -1.13157                      96.93002
                       3.78691                      -1.72279                     100.48842
                       4.06487                      -2.31507                     104.04641
                       4.34648                      -2.90858                     107.60391
                       4.63242                      -3.50337                     111.16085
                       4.92342                      -4.09949                     114.71716
                       5.22022                      -4.69693                     118.27277
                       5.52362                      -5.29569                     121.82759
                       5.83440                      -5.89570                     125.38157
                       6.15329                      -6.49688                     128.93463
                       6.48080                      -7.09909                     132.48674
                       6.81715                      -7.70216                     136.03787
                       7.16204                      -8.30592                     139.58806
                       7.51447                      -8.91018                     143.13743
                       7.87249                      -9.51475                     146.68619
                       8.23293                     -10.11946                     150.23468
                       8.41326                     -10.42183                     152.00891
                       3.10288                      -0.24611                      91.59193
        </DataArray>
      </Points>
      <PointData>
        <DataArray type="Float32" Name="TranslationalVelocity" NumberOfComponents="3" format="ascii">
                       0.02380                      -3.04125                      -0.47510
                      -0.01493                      -6.35151                      -1.02133
                      -0.03544                      -9.67290                      -1.57159
                      -0.03030                     -13.00875                      -2.12731
                       0.00699                     -16.36103                      -2.68954
                       0.08301                     -19.73064                      -3.25913
                       0.20473                     -23.11802                      -3.83691
                       0.37983                     -26.52328                      -4.42374
                       0.61662                     -29.94611                      -5.02051
                       0.92367                     -33.38578                      -5.62812
                       1.30895                     -36.84114                      -6.24739
                       1.77879                     -40.31058                      -6.87896
                       2.33634                     -43.79215                      -7.52308
                       2.97974                     -47.28363                      -8.17941
                       3.69996                     -50.78258                      -8.84663
                       4.47833                     -54.28644                      -9.52209
                       5.28358                     -57.79262                     -10.20137
                       5.68815                     -59.54598                     -10.54130
                       0.04669                      -1.38841                      -0.20279
        </DataArray>
        <DataArray type="Float32" Name="RotationalVelocity" NumberOfComponents="3" format="ascii">
                       0.92039                       0.00553                      -0.11096
                       0.92300                       0.00945                      -0.11051
                       0.92676                       0.01563                      -0.10977
                       0.93129                       0.02364                      -0.10879
                       0.93621                       0.03342                      -0.10754
                       0.94130                       0.04503                      -0.10600
                       0.94651                       0.05865                      -0.10415
                       0.95172                       0.07447                      -0.10192
                       0.95684                       0.09264                      -0.09930
                       0.96173                       0.11315                      -0.09627
                       0.96629                       0.13571                      -0.09288
                       0.97037                       0.15967                      -0.08922
                       0.97389                       0.18395                      -0.08547
                       0.97675                       0.20689                      -0.08188
                       0.97886                       0.22620                      -0.07884
                       0.98010                       0.23885                      -0.07684
                       0.98044                       0.24098                      -0.07651
                       0.98039                       0.23888                      -0.07686
                       0.91943                       0.00422                      -0.11110
        </DataArray>
        <DataArray type="Float32" Name="TranslationalAcceleration" NumberOfComponents="3" format="ascii">
                       0.36861                       0.63745                      -2.53596
                       0.18195                       1.33490                      -5.56939
                       0.03985                       2.00384                      -8.63271
                      -0.03901                       2.63582                     -11.73583
                      -0.03796                       3.22589                     -14.88574
                       0.05851                       3.77200                     -18.08735
                       0.26462                       4.27387                     -21.34486
                       0.59335                       4.73251                     -24.66230
                       1.05637                       5.15034                     -28.04354
                       1.66332                       5.53093                     -31.49230
                       2.42073                       5.87889                     -35.01203
                       3.33062                       6.19965                     -38.60533
                       4.38857                       6.49912                     -42.27302
                       5.58153                       6.78317                     -46.01274
                       6.88522                       7.05721                     -49.81662
                       8.26122                       7.32563                     -53.66849
                       9.65349                       7.59131                     -57.54156
                      10.34547                       7.72371                     -59.47933
                       0.47058                       0.28287                      -1.02529
        </DataArray>
        <DataArray type="Float32" Name="RotationalAcceleration" NumberOfComponents="3" format="ascii">
                      -0.05777                       0.04821                      -0.00943
                      -0.05047                       0.05831                      -0.00831
                      -0.04000                       0.07421                      -0.00648
                      -0.02739                       0.09503                      -0.00399
                      -0.01373                       0.12037                      -0.00083
                       0.00029                       0.14988                       0.00299
                       0.01436                       0.18315                       0.00743
                       0.02809                       0.21989                       0.01247
                       0.04114                       0.25965                       0.01807
                       0.05324                       0.30176                       0.02412
                       0.06418                       0.34517                       0.03048
                       0.07375                       0.38840                       0.03692
                       0.08182                       0.42936                       0.04309
                       0.08831                       0.46529                       0.04855
                       0.09303                       0.49261                       0.05272
                       0.09582                       0.50685                       0.05487
                       0.09651                       0.50246                       0.05409
                       0.09631                       0.49484                       0.05284
                      -0.06049                       0.04476                      -0.00979
        </DataArray>
        <DataArray type="Float32" Name="OrientationX" NumberOfComponents="3" format="ascii">
                       0.96569                      -0.23398                      -0.11264
                       0.96566                      -0.23390                      -0.11312
                       0.96560                      -0.23378                      -0.11386
                       0.96875                      -0.22084                      -0.11294
                       0.97550                      -0.19076                      -0.10963
                       0.97887                      -0.17340                      -0.10837
                       0.98196                      -0.15574                      -0.10724
                       0.98487                      -0.13699                      -0.10612
                       0.98744                      -0.11792                      -0.10514
                       0.98953                      -0.09958                      -0.10445
                       0.99124                      -0.08144                      -0.10394
                       0.99254                      -0.06421                      -0.10365
                       0.99332                      -0.05024                      -0.10387
                       0.99384                      -0.03783                      -0.10415
                       0.99425                      -0.02547                      -0.10402
                       0.99457                      -0.01331                      -0.10321
                       0.99477                      -0.00543                      -0.10203
                       0.99484                      -0.00305                      -0.10137
                       0.96571                      -0.23401                      -0.11248
        </DataArray>
        <DataArray type="Float32" Name="OrientationY" NumberOfComponents="3" format="ascii">
                       0.24855                       0.95846                       0.13992
                       0.24856                       0.95845                       0.13999
                       0.24856                       0.95843                       0.14008
                       0.23570                       0.96144                       0.14169
                       0.20558                       0.96780                       0.14526
                       0.18831                       0.97100                       0.14730
                       0.17078                       0.97393                       0.14934
                       0.15218                       0.97668                       0.15147
                       0.13328                       0.97910                       0.15360
                       0.11516                       0.98108                       0.15563
                       0.09727                       0.98270                       0.15760
                       0.08030                       0.98393                       0.15946
                       0.06663                       0.98471                       0.16096
                       0.05451                       0.98524                       0.16230
                       0.04236                       0.98561                       0.16362
                       0.03031                       0.98584                       0.16491
                       0.02238                       0.98591                       0.16575
                       0.01994                       0.98593                       0.16599
                       0.24855                       0.95846                       0.13989
        </DataArray>
        <DataArray type="Float32" Name="OrientationZ" NumberOfComponents="3" format="ascii">
                       0.07522                      -0.16311                       0.98374
                       0.07567                      -0.16329                       0.98367
                       0.07638                      -0.16356                       0.98357
                       0.07729                      -0.16388                       0.98345
                       0.07839                      -0.16423                       0.98330
                       0.07969                      -0.16459                       0.98314
                       0.08119                      -0.16496                       0.98295
                       0.08290                      -0.16533                       0.98275
                       0.08483                      -0.16569                       0.98252
                       0.08698                      -0.16603                       0.98228
                       0.08931                      -0.16633                       0.98202
                       0.09175                      -0.16659                       0.98175
                       0.09419                      -0.16681                       0.98148
                       0.09647                      -0.16698                       0.98123
                       0.09836                      -0.16709                       0.98102
                       0.09956                      -0.16715                       0.98089
                       0.09969                      -0.16716                       0.98088
                       0.09944                      -0.16716                       0.98090
                       0.07507                      -0.16305                       0.98376
        </DataArray>
      </PointData>
      <Lines>
        <DataArray type="Int32" Name="connectivity" format="ascii">
      0      1
      1      2
      2      3
      3      4
      4      5
      5      6
      6      7
      7      8
      8      9
      9     10
     10     11
     11     12
     12     13
     13     14
     14     15
     15     16
     16     17
     18      0
        </DataArray>
        <DataArray type="Int32" Name="offsets" format="ascii">
      2
      4
      6
      8
     10
     12
     14
     16
     18
     20
     22
     24
     26
     28
     30
     32
     34
     36
        </DataArray>
      </Lines>
    </Piece>
  </PolyData>
</VTKFile>
