<?xml version="1.0"?>
<VTKFile type="PolyData" version="0.1" byte_order="LittleEndian">
  <PolyData>
    <Piece NumberOfPoints="     17" NumberOfVerts="  0" NumberOfLines="      0"
           NumberOfStrips="  0" NumberOfPolys="      0">
      <Points>
        <DataArray type="Float32" NumberOfComponents="3" format="ascii">
                       2.62605                      -0.37178                      86.90783
                       2.01908                      -0.75060                      83.36164
                       1.41986                      -1.12925                      79.81412
                       0.83129                      -1.50752                      76.26478
                       0.25582                      -1.88527                      72.71323
                      -0.30383                      -2.26242                      69.15910
                      -0.84412                      -2.63871                      65.60189
                      -1.36042                      -3.01375                      62.04100
                      -1.84698                      -3.38711                      58.47576
                      -2.29725                      -3.75847                      54.90555
                      -2.70435                      -4.12764                      51.32997
                      -3.06192                      -4.49467                      47.74888
                      -3.36520                      -4.85980                      44.16259
                      -3.61246                      -5.22337                      40.57182
                      -3.80665                      -5.58586                      36.97762
                      -3.95737                      -5.94779                      33.38121
                      -4.08311                      -6.30954                      29.78374
        </DataArray>
      </Points>
      <PointData>
        <DataArray type="Float32" Name="Force" NumberOfComponents="3" format="ascii">
                     131.71186                     -71.13496                     -15.03134
                     463.50960                    -241.76932                     -52.53387
                    1724.74076                     596.43181                    -349.99307
                    2992.03731                    1050.29222                    -599.25100
                    1893.70773                     586.24077                    -364.28464
                    4277.37667                    1167.82267                    -787.58151
                    5434.77867                    1289.87106                    -945.37891
                    6335.09672                    1309.28851                   -1029.15831
                    7142.63473                    1332.02698                   -1074.38456
                    9442.47885                    1616.47177                   -1294.04257
                   11374.59174                    1833.81982                   -1387.13613
                   13491.91883                    2124.27677                   -1428.66577
                    7960.82265                    1233.16417                    -742.45209
                   16338.74686                    2483.50716                   -1315.25030
                   16293.18359                    2417.74287                   -1081.41055
                   24085.32740                    3419.50739                   -1312.76188
                    9949.93737                    1223.84139                    -476.74600
        </DataArray>
        <DataArray type="Float32" Name="Moment" NumberOfComponents="3" format="ascii">
                     -18.41224                     -17.81407                       1.68678
                      94.27985                    -326.27735                     -33.16851
                     710.26706                   -1830.77112                    -226.46998
                     751.57433                   -2506.70135                    -288.85893
                      27.12191                    -241.19010                    -150.23518
                    -659.58605                    1943.08546                    -252.42186
                    -391.35120                    1375.01509                     177.24949
                      49.32850                      30.44562                     928.16601
                     222.92804                    -796.32598                    1006.87878
                     356.68200                   -1880.95478                     786.05527
                     801.67026                   -4738.47982                     665.86286
                    1398.29655                   -8791.28800                     314.16839
                    -117.14819                     427.48674                    -475.27808
                   -1804.97704                   10616.27156                   -1968.38841
                   -1677.33449                   10159.64021                   -2029.05087
                    -338.50891                     946.24865                   -1592.61773
                    -192.17529                     -19.24639                    -248.86239
        </DataArray>
      </PointData>
    </Piece>
  </PolyData>
</VTKFile>
