<?xml version="1.0"?>
<VTKFile type="PolyData" version="0.1" byte_order="LittleEndian">
  <PolyData>
    <Piece NumberOfPoints="     17" NumberOfVerts="  0" NumberOfLines="      0"
           NumberOfStrips="  0" NumberOfPolys="      0">
      <Points>
        <DataArray type="Float32" NumberOfComponents="3" format="ascii">
                       2.53410                       1.16509                      87.11203
                       1.96322                       2.47373                      83.78803
                       1.39993                       3.78381                      80.46332
                       0.84715                       5.09591                      77.13764
                       0.30736                       6.41032                      73.81074
                      -0.21681                       7.72722                      70.48232
                      -0.72215                       9.04680                      67.15207
                      -1.20470                      10.36930                      63.81960
                      -1.65972                      11.69488                      60.48449
                      -2.08192                      13.02357                      57.14632
                      -2.46595                      14.35518                      53.80472
                      -2.80698                      15.68927                      50.45945
                      -3.10169                      17.02520                      47.11052
                      -3.34931                      18.36224                      43.75819
                      -3.55302                      19.69965                      40.40302
                      -3.72150                      21.03689                      37.04578
                      -3.87073                      22.37384                      33.68746
        </DataArray>
      </Points>
      <PointData>
        <DataArray type="Float32" Name="Force" NumberOfComponents="3" format="ascii">
                     145.64203                     -47.43197                     -43.77290
                     501.64527                    -163.01372                    -149.17568
                    1895.09288                     652.34480                     -58.92139
                    3144.99039                    1072.71198                     -91.43692
                    1936.17711                     585.74462                     -78.63835
                    4280.01585                    1148.83529                    -212.35462
                    5282.22722                    1231.68839                    -301.42816
                    5963.49665                    1193.76627                    -369.64039
                    6462.66881                    1127.07218                    -404.89641
                    8198.97857                    1239.37290                    -498.12560
                    9449.50657                    1234.58247                    -527.76218
                   10775.10291                    1238.53060                    -514.53049
                    6169.67489                     634.68284                    -255.32864
                   12276.13488                    1104.12811                    -433.99410
                   11803.33683                     879.41726                    -345.25790
                   16721.31201                     950.54167                    -443.21060
                    6849.73817                     246.49021                    -211.72296
        </DataArray>
        <DataArray type="Float32" Name="Moment" NumberOfComponents="3" format="ascii">
                     -17.43292                     -16.97182                      -7.95166
                      89.31355                    -305.00457                    -181.85816
                     674.83029                   -1732.91154                    -936.35130
                     643.86888                   -2205.98740                   -1258.69660
                      23.53927                    -161.38588                    -185.54625
                    -544.84783                    1876.75325                     754.25682
                    -317.99164                    1170.09663                     828.10046
                      11.38042                    -266.44830                     886.28122
                     123.61955                    -953.86109                     671.81769
                     179.06089                   -1679.24869                     227.04145
                     377.22578                   -3728.46041                    -765.99518
                     575.02270                   -6387.24754                   -2364.46818
                     -45.90670                     385.79829                     177.22073
                    -645.08907                    7692.05603                    3153.72346
                    -503.65682                    7097.16098                    2903.22356
                    -195.55324                    1065.40745                     549.04940
                     -90.06146                    -209.46802                     109.23887
        </DataArray>
      </PointData>
    </Piece>
  </PolyData>
</VTKFile>
