<?xml version="1.0"?>
<VTKFile type="PolyData" version="0.1" byte_order="LittleEndian">
  <PolyData>
    <Piece NumberOfPoints="     19" NumberOfVerts="  0" NumberOfLines="     18"
           NumberOfStrips="  0" NumberOfPolys="      0">
      <Points>
        <DataArray type="Float32" NumberOfComponents="3" format="ascii">
                       2.88321                      -3.32576                      90.36304
                       2.75869                      -6.93382                      90.59486
                       2.64230                     -10.54252                      90.82081
                       2.53739                     -14.15205                      91.03902
                       2.44689                     -17.76250                      91.24828
                       2.37398                     -21.37389                      91.44776
                       2.32232                     -24.98620                      91.63677
                       2.29626                     -28.59935                      91.81460
                       2.30082                     -32.21314                      91.98063
                       2.34145                     -35.82724                      92.13437
                       2.42356                     -39.44113                      92.27556
                       2.55183                     -43.05414                      92.40426
                       2.72931                     -46.66549                      92.52094
                       2.95620                     -50.27444                      92.62658
                       3.22859                     -53.88055                      92.72282
                       3.53676                     -57.48403                      92.81214
                       3.86344                     -61.08602                      92.89800
                       4.02872                     -62.88684                      92.94056
                       2.94704                      -1.52186                      90.24595
        </DataArray>
      </Points>
      <PointData>
        <DataArray type="Float32" Name="TranslationalVelocity" NumberOfComponents="3" format="ascii">
                      -1.00043                      -0.13286                      -3.09429
                      -1.41664                      -0.33273                      -6.42859
                      -1.83139                      -0.52801                      -9.76109
                      -2.24430                      -0.71734                     -13.09136
                      -2.65511                      -0.89991                     -16.41912
                      -3.06353                      -1.07533                     -19.74421
                      -3.46899                      -1.24337                     -23.06666
                      -3.87062                      -1.40387                     -26.38660
                      -4.26714                      -1.55678                     -29.70421
                      -4.65701                      -1.70218                     -33.01958
                      -5.03844                      -1.84026                     -36.33267
                      -5.40966                      -1.97134                     -39.64327
                      -5.76916                      -2.09585                     -42.95105
                      -6.11602                      -2.21438                     -46.25569
                      -6.45039                      -2.32777                     -49.55710
                      -6.77395                      -2.43727                     -52.85574
                      -7.09051                      -2.54467                     -56.15296
                      -7.24767                      -2.59811                     -57.80145
                      -0.79203                      -0.03199                      -1.42675
        </DataArray>
        <DataArray type="Float32" Name="RotationalVelocity" NumberOfComponents="3" format="ascii">
                       0.92382                      -0.01644                      -0.11446
                       0.92329                      -0.01640                      -0.11414
                       0.92258                      -0.01635                      -0.11368
                       0.92174                      -0.01628                      -0.11314
                       0.92085                      -0.01621                      -0.11255
                       0.91995                      -0.01613                      -0.11185
                       0.91911                      -0.01604                      -0.11096
                       0.91837                      -0.01594                      -0.10978
                       0.91776                      -0.01582                      -0.10822
                       0.91730                      -0.01567                      -0.10621
                       0.91697                      -0.01549                      -0.10371
                       0.91677                      -0.01529                      -0.10076
                       0.91667                      -0.01508                      -0.09748
                       0.91665                      -0.01485                      -0.09408
                       0.91668                      -0.01464                      -0.09089
                       0.91674                      -0.01448                      -0.08838
                       0.91679                      -0.01441                      -0.08718
                       0.91682                      -0.01439                      -0.08699
                       0.92404                      -0.01646                      -0.11457
        </DataArray>
        <DataArray type="Float32" Name="TranslationalAcceleration" NumberOfComponents="3" format="ascii">
                      -0.33071                       2.77826                      -0.24538
                      -0.26536                       5.89822                      -0.52776
                      -0.22625                       9.01857                      -0.75151
                      -0.22686                      12.13934                      -0.89962
                      -0.28047                      15.26017                      -0.96125
                      -0.39585                      18.38017                      -0.93194
                      -0.57335                      21.49797                      -0.81258
                      -0.80288                      24.61185                      -0.60855
                      -1.06362                      27.71997                      -0.32895
                      -1.32470                      30.82093                       0.01469
                      -1.54720                      33.91439                       0.40962
                      -1.68751                      37.00169                       0.84303
                      -1.70207                      40.08628                       1.30285
                      -1.55348                      43.17345                       1.77825
                      -1.21797                      46.26920                       2.25988
                      -0.69421                      49.37801                       2.74013
                      -0.01342                      52.49990                       3.21277
                       0.35996                      54.06375                       3.44649
                      -0.36837                       1.21835                      -0.09201
        </DataArray>
        <DataArray type="Float32" Name="RotationalAcceleration" NumberOfComponents="3" format="ascii">
                       0.03173                       0.00756                       0.01158
                       0.01920                       0.00764                       0.00596
                       0.00162                       0.00767                      -0.00321
                      -0.01962                       0.00758                      -0.01636
                      -0.04278                       0.00733                      -0.03288
                      -0.06626                       0.00700                      -0.05088
                      -0.08876                       0.00671                      -0.06757
                      -0.10911                       0.00663                      -0.07998
                      -0.12648                       0.00692                      -0.08516
                      -0.14038                       0.00772                      -0.08053
                      -0.15069                       0.00916                      -0.06423
                      -0.15757                       0.01128                      -0.03558
                      -0.16138                       0.01405                       0.00466
                      -0.16257                       0.01731                       0.05385
                      -0.16173                       0.02076                       0.10711
                      -0.15953                       0.02394                       0.15702
                      -0.15643                       0.02620                       0.19322
                      -0.15471                       0.02700                       0.20640
                       0.03659                       0.00752                       0.01364
        </DataArray>
        <DataArray type="Float32" Name="OrientationX" NumberOfComponents="3" format="ascii">
                       0.93695                      -0.05555                      -0.34502
                       0.93702                      -0.05347                      -0.34515
                       0.93713                      -0.05021                      -0.34536
                       0.94179                      -0.04543                      -0.33311
                       0.95185                      -0.03899                      -0.30408
                       0.95722                      -0.03225                      -0.28756
                       0.96233                      -0.02444                      -0.27077
                       0.96736                      -0.01530                      -0.25296
                       0.97202                      -0.00475                      -0.23486
                       0.97603                       0.00725                      -0.21752
                       0.97950                       0.02058                      -0.20041
                       0.98227                       0.03490                      -0.18419
                       0.98399                       0.04949                      -0.17119
                       0.98513                       0.06348                      -0.15965
                       0.98610                       0.07560                      -0.14798
                       0.98710                       0.08407                      -0.13626
                       0.98794                       0.08647                      -0.12843
                       0.98832                       0.08582                      -0.12596
                       0.93693                      -0.05625                      -0.34497
        </DataArray>
        <DataArray type="Float32" Name="OrientationY" NumberOfComponents="3" format="ascii">
                       0.34767                       0.04848                       0.93636
                       0.34765                       0.04785                       0.93640
                       0.34763                       0.04699                       0.93646
                       0.33509                       0.04664                       0.94103
                       0.30572                       0.04688                       0.95097
                       0.28883                       0.04642                       0.95625
                       0.27165                       0.04584                       0.96130
                       0.25340                       0.04517                       0.96631
                       0.23484                       0.04437                       0.97102
                       0.21702                       0.04343                       0.97520
                       0.19942                       0.04232                       0.97900
                       0.18274                       0.04108                       0.98230
                       0.16932                       0.03982                       0.98476
                       0.15743                       0.03856                       0.98678
                       0.14551                       0.03726                       0.98865
                       0.13364                       0.03599                       0.99038
                       0.12580                       0.03520                       0.99143
                       0.12336                       0.03499                       0.99174
                       0.34768                       0.04873                       0.93635
        </DataArray>
        <DataArray type="Float32" Name="OrientationZ" NumberOfComponents="3" format="ascii">
                      -0.03529                      -0.99728                       0.06474
                      -0.03355                      -0.99742                       0.06342
                      -0.03079                      -0.99763                       0.06149
                      -0.02721                      -0.99788                       0.05914
                      -0.02282                      -0.99814                       0.05654
                      -0.01750                      -0.99840                       0.05375
                      -0.01108                      -0.99865                       0.05075
                      -0.00336                      -0.99886                       0.04758
                       0.00581                      -0.99900                       0.04425
                       0.01651                      -0.99903                       0.04081
                       0.02863                      -0.99889                       0.03735
                       0.04185                      -0.99855                       0.03398
                       0.05555                      -0.99798                       0.03081
                       0.06880                      -0.99724                       0.02799
                       0.08026                      -0.99644                       0.02574
                       0.08817                      -0.99581                       0.02429
                       0.09025                      -0.99563                       0.02390
                       0.08952                      -0.99570                       0.02399
                      -0.03586                      -0.99723                       0.06521
        </DataArray>
      </PointData>
      <Lines>
        <DataArray type="Int32" Name="connectivity" format="ascii">
      0      1
      1      2
      2      3
      3      4
      4      5
      5      6
      6      7
      7      8
      8      9
      9     10
     10     11
     11     12
     12     13
     13     14
     14     15
     15     16
     16     17
     18      0
        </DataArray>
        <DataArray type="Int32" Name="offsets" format="ascii">
      2
      4
      6
      8
     10
     12
     14
     16
     18
     20
     22
     24
     26
     28
     30
     32
     34
     36
        </DataArray>
      </Lines>
    </Piece>
  </PolyData>
</VTKFile>
