<?xml version="1.0"?>
<VTKFile type="PolyData" version="0.1" byte_order="LittleEndian">
  <PolyData>
    <Piece NumberOfPoints="     19" NumberOfVerts="  0" NumberOfLines="     18"
           NumberOfStrips="  0" NumberOfPolys="      0">
      <Points>
        <DataArray type="Float32" NumberOfComponents="3" format="ascii">
                       2.79498                      -3.32693                      90.09212
                       2.63436                      -6.94050                      90.03162
                       2.48191                     -10.55432                      89.96558
                       2.34092                     -14.16847                      89.89220
                       2.21434                     -17.78296                      89.81034
                       2.10532                     -21.39780                      89.71919
                       2.01758                     -25.01295                      89.61805
                       1.95557                     -28.62830                      89.50619
                       1.92449                     -32.24367                      89.38295
                       1.93002                     -35.85873                      89.24779
                       1.97787                     -39.47299                      89.10041
                       2.07301                     -43.08579                      88.94085
                       2.21875                     -46.69638                      88.76958
                       2.41553                     -50.30405                      88.58757
                       2.65947                     -53.90842                      88.39646
                       2.94074                     -57.50979                      88.19865
                       3.24164                     -61.10943                      87.99748
                       3.39423                     -62.90905                      87.89652
                       2.87687                      -1.52019                      90.12126
        </DataArray>
      </Points>
      <PointData>
        <DataArray type="Float32" Name="TranslationalVelocity" NumberOfComponents="3" format="ascii">
                      -1.01168                       0.10480                      -3.09116
                      -1.42000                       0.17888                      -6.43158
                      -1.82915                       0.25710                      -9.76730
                      -2.23974                       0.34071                     -13.09701
                      -2.65250                       0.43042                     -16.41984
                      -3.06775                       0.52653                     -19.73543
                      -3.48504                       0.62921                     -23.04387
                      -3.90291                       0.73853                     -26.34562
                      -4.31888                       0.85446                     -29.64136
                      -4.72956                       0.97687                     -32.93184
                      -5.13079                       1.10559                     -36.21773
                      -5.51814                       1.24038                     -39.49951
                      -5.88736                       1.38103                     -42.77749
                      -6.23515                       1.52731                     -46.05186
                      -6.55999                       1.67879                     -49.32297
                      -6.86317                       1.83460                     -52.59158
                      -7.14996                       1.99314                     -55.85930
                      -7.29021                       2.07284                     -57.49320
                      -0.80766                       0.06861                      -1.41996
        </DataArray>
        <DataArray type="Float32" Name="RotationalVelocity" NumberOfComponents="3" format="ascii">
                       0.92433                      -0.01434                      -0.11315
                       0.92322                      -0.01429                      -0.11332
                       0.92167                      -0.01421                      -0.11363
                       0.91982                      -0.01412                      -0.11416
                       0.91781                      -0.01402                      -0.11487
                       0.91578                      -0.01391                      -0.11558
                       0.91387                      -0.01382                      -0.11604
                       0.91218                      -0.01374                      -0.11597
                       0.91079                      -0.01369                      -0.11508
                       0.90972                      -0.01367                      -0.11314
                       0.90900                      -0.01369                      -0.11001
                       0.90858                      -0.01374                      -0.10566
                       0.90843                      -0.01381                      -0.10025
                       0.90849                      -0.01391                      -0.09413
                       0.90870                      -0.01402                      -0.08791
                       0.90898                      -0.01412                      -0.08247
                       0.90926                      -0.01418                      -0.07904
                       0.90939                      -0.01421                      -0.07800
                       0.92477                      -0.01436                      -0.11308
        </DataArray>
        <DataArray type="Float32" Name="TranslationalAcceleration" NumberOfComponents="3" format="ascii">
                       0.00355                       2.68114                       0.22134
                       0.11143                       5.80895                       0.39884
                       0.20022                       8.92897                       0.57735
                       0.26277                      12.03907                       0.75810
                       0.29325                      15.13787                       0.94187
                       0.28733                      18.22466                       1.12884
                       0.24233                      21.29922                       1.31902
                       0.15723                      24.36158                       1.51226
                       0.03277                      27.41184                       1.70807
                      -0.12859                      30.44996                       1.90579
                      -0.32272                      33.47571                       2.10470
                      -0.54392                      36.48875                       2.30420
                      -0.78512                      39.48887                       2.50400
                      -1.03813                      42.47650                       2.70417
                      -1.29395                      45.45314                       2.90489
                      -1.54326                      48.42186                       3.10613
                      -1.77687                      51.38766                       3.30717
                      -1.88864                      52.87059                       3.40749
                      -0.05419                       1.11560                       0.13268
        </DataArray>
        <DataArray type="Float32" Name="RotationalAcceleration" NumberOfComponents="3" format="ascii">
                      -0.03156                       0.01344                       0.01663
                      -0.03084                       0.01348                       0.01237
                      -0.03010                       0.01354                       0.00593
                      -0.02946                       0.01364                      -0.00233
                      -0.02884                       0.01377                      -0.01201
                      -0.02821                       0.01391                      -0.02266
                      -0.02758                       0.01405                      -0.03381
                      -0.02689                       0.01420                      -0.04500
                      -0.02606                       0.01433                      -0.05573
                      -0.02505                       0.01443                      -0.06553
                      -0.02382                       0.01451                      -0.07396
                      -0.02238                       0.01455                      -0.08061
                      -0.02078                       0.01455                      -0.08514
                      -0.01910                       0.01450                      -0.08731
                      -0.01744                       0.01442                      -0.08694
                      -0.01597                       0.01431                      -0.08398
                      -0.01491                       0.01417                      -0.07853
                      -0.01450                       0.01410                      -0.07520
                      -0.03189                       0.01343                       0.01817
        </DataArray>
        <DataArray type="Float32" Name="OrientationX" NumberOfComponents="3" format="ascii">
                       0.93696                      -0.03686                      -0.34749
                       0.93705                      -0.03480                      -0.34746
                       0.93719                      -0.03157                      -0.34740
                       0.94187                      -0.02789                      -0.33481
                       0.95194                      -0.02396                      -0.30535
                       0.95735                      -0.01867                      -0.28833
                       0.96251                      -0.01230                      -0.27097
                       0.96759                      -0.00465                      -0.25247
                       0.97233                       0.00446                      -0.23358
                       0.97642                       0.01515                      -0.21533
                       0.97998                       0.02729                      -0.19719
                       0.98285                       0.04057                      -0.17986
                       0.98467                       0.05446                      -0.16571
                       0.98588                       0.06792                      -0.15307
                       0.98689                       0.07949                      -0.14045
                       0.98791                       0.08736                      -0.12807
                       0.98874                       0.08934                      -0.12006
                       0.98910                       0.08855                      -0.11765
                       0.93693                      -0.03755                      -0.34750
        </DataArray>
        <DataArray type="Float32" Name="OrientationY" NumberOfComponents="3" format="ascii">
                       0.34650                      -0.03082                       0.93754
                       0.34647                      -0.03137                       0.93754
                       0.34644                      -0.03213                       0.93752
                       0.33390                      -0.03260                       0.94204
                       0.30452                      -0.03273                       0.95194
                       0.28762                      -0.03331                       0.95716
                       0.27043                      -0.03398                       0.96214
                       0.25217                      -0.03474                       0.96706
                       0.23359                      -0.03560                       0.97168
                       0.21575                      -0.03659                       0.97576
                       0.19814                      -0.03772                       0.97945
                       0.18143                      -0.03897                       0.98263
                       0.16799                      -0.04022                       0.98497
                       0.15608                      -0.04147                       0.98687
                       0.14414                      -0.04276                       0.98863
                       0.13226                      -0.04403                       0.99024
                       0.12441                      -0.04484                       0.99122
                       0.12197                      -0.04505                       0.99151
                       0.34651                      -0.03060                       0.93755
        </DataArray>
        <DataArray type="Float32" Name="OrientationZ" NumberOfComponents="3" format="ascii">
                      -0.04527                      -0.99884                      -0.01611
                      -0.04353                      -0.99890                      -0.01734
                      -0.04076                      -0.99899                      -0.01917
                      -0.03718                      -0.99908                      -0.02139
                      -0.03280                      -0.99918                      -0.02386
                      -0.02748                      -0.99927                      -0.02652
                      -0.02104                      -0.99935                      -0.02938
                      -0.01327                      -0.99939                      -0.03244
                      -0.00398                      -0.99936                      -0.03566
                       0.00691                      -0.99922                      -0.03900
                       0.01930                      -0.99892                      -0.04237
                       0.03286                      -0.99842                      -0.04567
                       0.04698                      -0.99771                      -0.04875
                       0.06068                      -0.99683                      -0.05148
                       0.07258                      -0.99592                      -0.05366
                       0.08086                      -0.99520                      -0.05505
                       0.08317                      -0.99499                      -0.05545
                       0.08250                      -0.99505                      -0.05536
                      -0.04584                      -0.99883                      -0.01566
        </DataArray>
      </PointData>
      <Lines>
        <DataArray type="Int32" Name="connectivity" format="ascii">
      0      1
      1      2
      2      3
      3      4
      4      5
      5      6
      6      7
      7      8
      8      9
      9     10
     10     11
     11     12
     12     13
     13     14
     14     15
     15     16
     16     17
     18      0
        </DataArray>
        <DataArray type="Int32" Name="offsets" format="ascii">
      2
      4
      6
      8
     10
     12
     14
     16
     18
     20
     22
     24
     26
     28
     30
     32
     34
     36
        </DataArray>
      </Lines>
    </Piece>
  </PolyData>
</VTKFile>
