<?xml version="1.0"?>
<VTKFile type="PolyData" version="0.1" byte_order="LittleEndian">
  <PolyData>
    <Piece NumberOfPoints="     19" NumberOfVerts="  0" NumberOfLines="     18"
           NumberOfStrips="  0" NumberOfPolys="      0">
      <Points>
        <DataArray type="Float32" NumberOfComponents="3" format="ascii">
                       3.20809                       1.31176                      90.82715
                       3.22665                       2.53054                      91.44531
                       3.25323                       4.92473                      92.76782
                       3.27779                       7.29858                      94.13095
                       3.31231                      10.25396                      95.85894
                       3.40241                      13.86667                      97.79921
                       3.51860                      17.53863                      99.62044
                       3.65314                      21.21169                     101.43816
                       3.81342                      24.88652                     103.25020
                       4.00539                      28.56197                     105.05783
                       4.23106                      32.23614                     106.86405
                       4.50213                      35.90924                     108.66611
                       4.82464                      39.58081                     110.46274
                       5.20176                      43.25036                     112.25277
                       5.63413                      46.91742                     114.03538
                       6.03002                      49.97149                     115.51561
                       6.36357                      52.41728                     116.68994
                       6.69502                      54.88768                     117.81485
                       6.86503                      56.10403                     118.41423
        </DataArray>
      </Points>
      <PointData>
        <DataArray type="Float32" Name="Force" NumberOfComponents="3" format="ascii">
                      -0.03444                       0.13618                      -0.26915
                      67.57176                       9.81502                     -21.56086
                      78.65965                      23.91465                     -50.08513
                      66.40606                      31.53101                     -65.03981
                     692.42228                     -94.05106                     157.78067
                     953.20343                    -128.76621                     208.23868
                    1070.99747                    -114.38435                     163.20459
                    1348.06929                    -120.97715                     143.21622
                    1451.09030                    -111.08175                      93.91698
                    1670.48872                    -119.13798                      59.11552
                    2070.49151                    -144.10155                      17.73034
                    2396.07409                    -174.12803                     -30.00548
                    2837.64623                    -231.45805                     -70.21603
                    3178.55744                    -286.42729                    -122.54232
                    3523.33509                    -347.02271                    -177.56500
                    3763.62069                    -386.77780                    -227.31954
                    3750.18818                    -386.63435                    -257.26780
                    2771.39286                    -283.58247                    -204.01031
                    1122.04605                     -61.40393                    -191.32714
        </DataArray>
        <DataArray type="Float32" Name="Moment" NumberOfComponents="3" format="ascii">
                       0.00000                       0.00000                       0.00000
                       0.00000                       0.00000                       0.00000
                       0.00000                       0.00000                       0.00000
                       0.00000                       0.00000                       0.00000
                      -3.79857                    -179.56736                     -90.36774
                      -8.14866                    -322.57687                    -162.16812
                     -13.95699                    -460.75728                    -231.33856
                     -23.73767                    -650.61612                    -326.14788
                     -39.15303                    -886.42049                    -443.48273
                     -53.15961                    -990.72561                    -494.46456
                     -68.31895                   -1045.64529                    -520.31184
                     -86.62880                   -1098.20986                    -544.56437
                     -91.84243                    -979.23863                    -483.70258
                    -107.22314                    -982.97369                    -483.62418
                    -117.78008                    -956.03081                    -468.64126
                    -120.19712                    -908.48894                    -444.27770
                    -110.47645                    -808.71386                    -395.03944
                     -56.29835                    -407.16951                    -198.80712
                     -46.97302                    -340.41279                    -166.22423
        </DataArray>
        <DataArray type="Float32" Name="TranslationalVelocity" NumberOfComponents="3" format="ascii">
                       0.18537                      -0.67314                       1.25617
                       0.33080                      -1.24539                       2.38006
                       0.61697                      -2.46693                       4.58606
                       0.90169                      -3.72180                       6.76737
                       1.25772                      -5.30582                       9.47255
                       1.69536                      -7.07983                      12.76186
                       2.14238                      -8.73725                      16.08287
                       2.58938                     -10.38238                      19.38167
                       3.03106                     -12.01425                      22.65907
                       3.45897                     -13.63488                      25.91516
                       3.86547                     -15.24846                      29.15212
                       4.23696                     -16.85272                      32.37080
                       4.56142                     -18.44703                      35.57450
                       4.82913                     -20.03046                      38.76711
                       5.03547                     -21.60230                      41.95266
                       5.16405                     -22.90391                      44.60474
                       5.24267                     -23.93450                      46.72909
                       5.31193                     -24.92112                      48.87534
                       5.34299                     -25.44646                      49.93244
        </DataArray>
        <DataArray type="Float32" Name="RotationalVelocity" NumberOfComponents="3" format="ascii">
                       0.92309                       0.00125                      -0.11852
                       0.92217                       0.00133                      -0.11865
                       0.91990                       0.00149                      -0.11891
                       0.91711                       0.00168                      -0.11920
                       0.91288                       0.00197                      -0.11965
                       0.90712                       0.00235                      -0.12024
                       0.90100                       0.00258                      -0.12050
                       0.89481                       0.00240                      -0.11996
                       0.88876                       0.00153                      -0.11805
                       0.88304                      -0.00032                      -0.11420
                       0.87790                      -0.00352                      -0.10771
                       0.87345                      -0.00799                      -0.09870
                       0.86984                      -0.01363                      -0.08741
                       0.86713                      -0.02003                      -0.07462
                       0.86536                      -0.02653                      -0.06167
                       0.86460                      -0.03124                      -0.05232
                       0.86440                      -0.03392                      -0.04698
                       0.86446                      -0.03560                      -0.04366
                       0.86458                      -0.03599                      -0.04288
        </DataArray>
        <DataArray type="Float32" Name="TranslationalAcceleration" NumberOfComponents="3" format="ascii">
                      -1.50267                      -1.26442                      -0.82740
                      -1.60976                      -2.32693                      -1.33668
                      -1.83368                      -4.40605                      -2.43629
                      -2.04666                      -6.43675                      -3.59508
                      -2.28135                      -8.90825                      -5.10638
                      -2.47832                     -11.84755                      -6.88545
                      -2.57560                     -14.74486                      -8.66824
                      -2.58569                     -17.54457                     -10.55385
                      -2.50114                     -20.24980                     -12.54157
                      -2.31623                     -22.86437                     -14.63025
                      -2.03739                     -25.40168                     -16.80843
                      -1.65162                     -27.86238                     -19.07931
                      -1.15962                     -30.25860                     -21.43556
                      -0.56757                     -32.60491                     -23.86768
                       0.11024                     -34.91765                     -26.36305
                       0.72212                     -36.83069                     -28.47819
                       1.22987                     -38.36129                     -30.18241
                       1.73667                     -39.92414                     -31.86136
                       1.98461                     -40.68031                     -32.72253
        </DataArray>
        <DataArray type="Float32" Name="OrientationX" NumberOfComponents="3" format="ascii">
                       0.99289                      -0.06522                       0.09960
                       0.99288                      -0.06555                       0.09943
                       0.99287                      -0.06650                       0.09895
                       0.99284                      -0.06781                       0.09829
                       0.99280                      -0.06997                       0.09720
                       0.99599                      -0.05902                       0.06718
                       0.99761                      -0.05276                       0.04465
                       0.99852                      -0.04874                       0.02423
                       0.99897                      -0.04541                       0.00216
                       0.99884                      -0.04325                      -0.02118
                       0.99807                      -0.04339                      -0.04434
                       0.99666                      -0.04510                      -0.06807
                       0.99469                      -0.04875                      -0.09059
                       0.99251                      -0.05469                      -0.10921
                       0.99009                      -0.05978                      -0.12711
                       0.98808                      -0.06185                      -0.14097
                       0.98673                      -0.06141                      -0.15028
                       0.98605                      -0.06066                      -0.15501
                       0.98608                      -0.06044                      -0.15490
        </DataArray>
        <DataArray type="Float32" Name="OrientationY" NumberOfComponents="3" format="ascii">
                       0.11828                       0.44550                      -0.88743
                       0.11828                       0.44541                      -0.88748
                       0.11828                       0.44521                      -0.88758
                       0.11827                       0.44495                      -0.88771
                       0.11826                       0.44456                      -0.88791
                       0.08652                       0.44608                      -0.89080
                       0.06358                       0.44681                      -0.89237
                       0.04351                       0.44726                      -0.89335
                       0.02229                       0.44771                      -0.89390
                       0.00045                       0.44816                      -0.89396
                      -0.02020                       0.44856                      -0.89353
                      -0.04065                       0.44902                      -0.89260
                      -0.05915                       0.44950                      -0.89132
                      -0.07314                       0.44990                      -0.89008
                      -0.08688                       0.45043                      -0.88857
                      -0.09833                       0.45100                      -0.88709
                      -0.10682                       0.45147                      -0.88587
                      -0.11137                       0.45173                      -0.88517
                      -0.11137                       0.45173                      -0.88517
        </DataArray>
        <DataArray type="Float32" Name="OrientationZ" NumberOfComponents="3" format="ascii">
                       0.01351                       0.89290                       0.45004
                       0.01389                       0.89292                       0.45000
                       0.01497                       0.89296                       0.44990
                       0.01646                       0.89298                       0.44979
                       0.01892                       0.89301                       0.44963
                       0.02261                       0.89304                       0.44940
                       0.02713                       0.89307                       0.44909
                       0.03270                       0.89308                       0.44872
                       0.03962                       0.89303                       0.44826
                       0.04816                       0.89291                       0.44765
                       0.05866                       0.89270                       0.44682
                       0.07082                       0.89238                       0.44568
                       0.08417                       0.89195                       0.44423
                       0.09782                       0.89140                       0.44253
                       0.11037                       0.89081                       0.44077
                       0.11845                       0.89038                       0.43954
                       0.12225                       0.89017                       0.43892
                       0.12372                       0.89009                       0.43868
                       0.12347                       0.89010                       0.43872
        </DataArray>
      </PointData>
      <Lines>
        <DataArray type="Int32" Name="connectivity" format="ascii">
      0      1
      1      2
      2      3
      3      4
      4      5
      5      6
      6      7
      7      8
      8      9
      9     10
     10     11
     11     12
     12     13
     13     14
     14     15
     15     16
     16     17
     17     18
        </DataArray>
        <DataArray type="Int32" Name="offsets" format="ascii">
      2
      4
      6
      8
     10
     12
     14
     16
     18
     20
     22
     24
     26
     28
     30
     32
     34
     36
        </DataArray>
      </Lines>
    </Piece>
  </PolyData>
</VTKFile>
