<?xml version="1.0"?>
<VTKFile type="PolyData" version="0.1" byte_order="LittleEndian">
  <PolyData>
    <Piece NumberOfPoints="     17" NumberOfVerts="  0" NumberOfLines="      0"
           NumberOfStrips="  0" NumberOfPolys="      0">
      <Points>
        <DataArray type="Float32" NumberOfComponents="3" format="ascii">
                       3.27666                       2.42401                      92.36311
                       3.42945                       5.11502                      94.77609
                       3.58965                       7.80798                      97.18641
                       3.76000                      10.50327                      99.59343
                       3.94272                      13.20112                     101.99666
                       4.14012                      15.90163                     104.39574
                       4.35513                      18.60470                     106.79041
                       4.59150                      21.31007                     109.18047
                       4.85379                      24.01735                     111.56562
                       5.14717                      26.72615                     113.94542
                       5.47692                      29.43599                     116.31924
                       5.84783                      32.14643                     118.68628
                       6.26328                      34.85702                     121.04574
                       6.72417                      37.56732                     123.39711
                       7.22764                      40.27702                     125.74047
                       7.76553                      42.98606                     128.07700
                       8.32270                      45.69471                     130.40953
        </DataArray>
      </Points>
      <PointData>
        <DataArray type="Float32" Name="Force" NumberOfComponents="3" format="ascii">
                     177.52569                      43.25764                     -59.25568
                     556.94776                     147.01433                    -200.71703
                    2124.49822                    -425.82530                     324.71821
                    3662.18969                    -811.88805                     630.85599
                    2224.89539                    -446.43425                     320.86384
                    4749.00566                    -824.12350                     514.02791
                    5692.92351                    -850.14145                     415.00241
                    6320.42001                    -824.68721                     261.35648
                    6782.79758                    -806.38282                     108.24812
                    8557.02069                    -952.05498                     -61.67287
                    9830.88819                   -1059.01859                    -280.83429
                   11200.35692                   -1223.72496                    -517.69297
                    6401.65862                    -708.76117                    -382.94166
                   12683.69330                   -1414.00822                    -942.93704
                   12074.44275                   -1340.22406                   -1110.17390
                   16685.37591                   -1754.71945                   -1875.13563
                    6727.74959                    -605.73799                    -909.73278
        </DataArray>
        <DataArray type="Float32" Name="Moment" NumberOfComponents="3" format="ascii">
                     -19.89783                      16.71295                     -10.21951
                      90.76393                     288.22969                    -233.96969
                     682.49580                    1673.18674                   -1449.51842
                     814.51184                    2441.76986                   -1772.75212
                      46.57088                     388.41202                      32.76300
                    -536.49855                   -1257.32104                    1942.91153
                    -352.35203                   -1086.11153                    1066.00287
                    -181.61857                    -667.58840                    -479.15407
                    -111.39283                    -270.22226                   -1163.23148
                     -69.08882                     391.49174                   -1770.51379
                      44.57127                    2041.77855                   -3491.00423
                     184.53022                    4522.57688                   -5578.67970
                     -27.50378                    -273.30381                     296.94402
                    -218.71820                   -5628.52617                    6497.40333
                    -100.17920                   -5187.01938                    5965.86446
                    -203.28742                   -1039.31706                     980.90669
                    -155.53205                      15.52895                    -362.96962
        </DataArray>
      </PointData>
    </Piece>
  </PolyData>
</VTKFile>
