<?xml version="1.0"?>
<VTKFile type="PolyData" version="0.1" byte_order="LittleEndian">
  <PolyData>
    <Piece NumberOfPoints="     19" NumberOfVerts="  0" NumberOfLines="     18"
           NumberOfStrips="  0" NumberOfPolys="      0">
      <Points>
        <DataArray type="Float32" NumberOfComponents="3" format="ascii">
                       2.50081                       1.37745                      89.63780
                       2.39032                       2.66648                      89.19727
                       2.15836                       5.27502                      88.40749
                       1.92446                       7.89814                      87.66006
                       1.63644                      11.18618                      86.74992
                       1.34152                      15.08657                      85.51430
                       1.07512                      18.94471                      84.15044
                       0.82924                      22.80211                      82.78072
                       0.61229                      26.65836                      81.40298
                       0.43161                      30.51414                      80.01889
                       0.29022                      34.37049                      78.63210
                       0.20235                      38.22649                      77.24010
                       0.17601                      42.08120                      75.84223
                       0.21586                      45.93343                      74.43803
                       0.32305                      49.78202                      73.02743
                       0.45622                      52.98611                      71.84764
                       0.58414                      55.54484                      70.89420
                       0.71219                      58.08468                      69.88856
                       0.78043                      59.36844                      69.42482
        </DataArray>
      </Points>
      <PointData>
        <DataArray type="Float32" Name="Force" NumberOfComponents="3" format="ascii">
                      -0.03301                      -0.10240                      -0.28903
                      67.48749                      -2.36505                     -23.59895
                      79.85849                     -11.60129                     -53.15042
                      69.15250                     -18.36144                     -69.75501
                     780.55977                     137.64633                     219.03216
                    1054.44589                     166.60183                     252.75023
                    1204.09188                     158.01095                     213.50819
                    1518.26209                     165.52908                     200.34092
                    1644.71026                     144.31352                     155.00912
                    1885.34299                     128.54156                     127.44095
                    2306.51830                     110.26520                     106.42189
                    2640.48840                      72.65249                      82.97489
                    3059.84098                      26.74188                      79.18287
                    3350.30466                     -37.33857                      63.33533
                    3604.89708                    -107.00038                      44.81757
                    3748.51109                    -160.81214                      19.28133
                    3663.85238                    -186.95036                     -11.60522
                    2683.35205                    -147.47235                     -21.78659
                    1151.45192                    -100.27047                    -112.62059
        </DataArray>
        <DataArray type="Float32" Name="Moment" NumberOfComponents="3" format="ascii">
                       0.00000                       0.00000                       0.00000
                       0.00000                       0.00000                       0.00000
                       0.00000                       0.00000                       0.00000
                       0.00000                       0.00000                       0.00000
                      17.45673                    -219.66371                      75.83307
                      25.11537                    -334.28915                     115.57017
                      33.40683                    -478.48324                     165.71118
                      43.36760                    -685.90441                     238.06293
                      50.39898                    -917.28400                     319.23778
                      46.84096                   -1050.84975                     366.96666
                      35.09859                   -1109.82741                     389.20377
                      19.39345                   -1179.63434                     415.73034
                      -0.46679                   -1084.86248                     384.42110
                     -19.43261                   -1086.75822                     387.25913
                     -36.04634                   -1055.98606                     378.25421
                     -45.05708                   -1006.88494                     361.88689
                     -44.72783                    -896.61290                     322.77979
                     -23.28644                    -447.52894                     161.21980
                     -18.89117                    -364.34803                     131.24668
        </DataArray>
        <DataArray type="Float32" Name="TranslationalVelocity" NumberOfComponents="3" format="ascii">
                       0.08986                       0.44352                       1.31540
                       0.22660                       0.86357                       2.51018
                       0.50273                       1.61971                       4.92604
                       0.77896                       2.33529                       7.34916
                       1.12219                       3.20442                      10.37521
                       1.52399                       4.36910                      13.94686
                       1.91339                       5.64058                      17.45846
                       2.29247                       6.90688                      20.94775
                       2.65991                       8.16916                      24.41491
                       3.01509                       9.42567                      27.86172
                       3.35931                      10.67421                      31.29238
                       3.69184                      11.91584                      34.70564
                       4.01398                      13.15139                      38.10242
                       4.32773                      14.38181                      41.48354
                       4.63590                      15.60802                      44.85011
                       4.89090                      16.62744                      47.64628
                       5.09509                      17.44828                      49.87609
                       5.30029                      18.31389                      52.08825
                       5.40464                      18.71218                      53.20627
        </DataArray>
        <DataArray type="Float32" Name="RotationalVelocity" NumberOfComponents="3" format="ascii">
                       0.92788                      -0.00188                      -0.10559
                       0.92704                      -0.00189                      -0.10543
                       0.92498                      -0.00192                      -0.10498
                       0.92244                      -0.00192                      -0.10436
                       0.91858                      -0.00188                      -0.10327
                       0.91331                      -0.00171                      -0.10149
                       0.90778                      -0.00141                      -0.09922
                       0.90225                      -0.00098                      -0.09659
                       0.89692                      -0.00045                      -0.09373
                       0.89192                       0.00014                      -0.09079
                       0.88738                       0.00073                      -0.08794
                       0.88328                       0.00127                      -0.08535
                       0.87967                       0.00170                      -0.08318
                       0.87658                       0.00199                      -0.08159
                       0.87409                       0.00207                      -0.08073
                       0.87259                       0.00195                      -0.08069
                       0.87185                       0.00173                      -0.08116
                       0.87146                       0.00140                      -0.08201
                       0.87141                       0.00120                      -0.08257
        </DataArray>
        <DataArray type="Float32" Name="TranslationalAcceleration" NumberOfComponents="3" format="ascii">
                       1.18709                      -1.24078                       0.69385
                       1.20536                      -2.35634                       1.10840
                       1.24031                      -4.61231                       1.85627
                       1.27965                      -6.87201                       2.55228
                       1.33927                      -9.68699                       3.37276
                       1.43949                     -12.99966                       4.42478
                       1.57230                     -16.25001                       5.52172
                       1.72005                     -19.47472                       6.55859
                       1.84976                     -22.67725                       7.53617
                       1.90633                     -25.86227                       8.45505
                       1.83658                     -29.03456                       9.32262
                       1.54705                     -32.19095                      10.14154
                       0.95119                     -35.32465                      10.92189
                      -0.02395                     -38.42372                      11.67464
                      -1.41756                     -41.47429                      12.40981
                      -2.88010                     -43.97530                      13.01590
                      -4.22438                     -45.94910                      13.50613
                      -5.65859                     -47.90458                      14.04141
                      -6.38820                     -48.88701                      14.27768
        </DataArray>
        <DataArray type="Float32" Name="OrientationX" NumberOfComponents="3" format="ascii">
                       0.98898                       0.11643                       0.09140
                       0.98902                       0.11605                       0.09153
                       0.98911                       0.11496                       0.09191
                       0.98923                       0.11347                       0.09242
                       0.98943                       0.11099                       0.09328
                       0.99318                       0.09711                       0.06452
                       0.99538                       0.08510                       0.04442
                       0.99697                       0.07279                       0.02747
                       0.99824                       0.05852                       0.00999
                       0.99909                       0.04210                      -0.00740
                       0.99946                       0.02370                      -0.02284
                       0.99930                       0.00332                      -0.03737
                       0.99861                      -0.01794                      -0.04951
                       0.99763                      -0.03821                      -0.05722
                       0.99624                      -0.05729                      -0.06505
                       0.99487                      -0.07057                      -0.07252
                       0.99382                      -0.07799                      -0.07895
                       0.99325                      -0.08143                      -0.08258
                       0.99326                      -0.08127                      -0.08264
        </DataArray>
        <DataArray type="Float32" Name="OrientationY" NumberOfComponents="3" format="ascii">
                       0.12393                      -0.31366                      -0.94141
                       0.12394                      -0.31383                      -0.94135
                       0.12398                      -0.31426                      -0.94121
                       0.12402                      -0.31477                      -0.94103
                       0.12409                      -0.31557                      -0.94075
                       0.09254                      -0.31996                      -0.94290
                       0.06975                      -0.32319                      -0.94376
                       0.04981                      -0.32592                      -0.94408
                       0.02870                      -0.32843                      -0.94409
                       0.00694                      -0.33058                      -0.94375
                      -0.01367                      -0.33224                      -0.94310
                      -0.03412                      -0.33341                      -0.94216
                      -0.05266                      -0.33406                      -0.94108
                      -0.06672                      -0.33432                      -0.94009
                      -0.08053                      -0.33418                      -0.93906
                      -0.09206                      -0.33374                      -0.93816
                      -0.10062                      -0.33322                      -0.93746
                      -0.10520                      -0.33290                      -0.93708
                      -0.10520                      -0.33290                      -0.93708
        </DataArray>
        <DataArray type="Float32" Name="OrientationZ" NumberOfComponents="3" format="ascii">
                      -0.08094                       0.94237                      -0.32464
                      -0.08052                       0.94236                      -0.32477
                      -0.07932                       0.94235                      -0.32509
                      -0.07768                       0.94236                      -0.32546
                      -0.07498                       0.94239                      -0.32601
                      -0.07093                       0.94244                      -0.32677
                      -0.06595                       0.94250                      -0.32764
                      -0.05977                       0.94259                      -0.32856
                      -0.05197                       0.94271                      -0.32953
                      -0.04218                       0.94284                      -0.33057
                      -0.02994                       0.94290                      -0.33174
                      -0.01559                       0.94278                      -0.33306
                       0.00034                       0.94238                      -0.33454
                       0.01679                       0.94168                      -0.33608
                       0.03206                       0.94077                      -0.33754
                       0.04201                       0.94002                      -0.33852
                       0.04681                       0.93962                      -0.33901
                       0.04881                       0.93944                      -0.33922
                       0.04864                       0.93945                      -0.33920
        </DataArray>
      </PointData>
      <Lines>
        <DataArray type="Int32" Name="connectivity" format="ascii">
      0      1
      1      2
      2      3
      3      4
      4      5
      5      6
      6      7
      7      8
      8      9
      9     10
     10     11
     11     12
     12     13
     13     14
     14     15
     15     16
     16     17
     17     18
        </DataArray>
        <DataArray type="Int32" Name="offsets" format="ascii">
      2
      4
      6
      8
     10
     12
     14
     16
     18
     20
     22
     24
     26
     28
     30
     32
     34
     36
        </DataArray>
      </Lines>
    </Piece>
  </PolyData>
</VTKFile>
