<?xml version="1.0"?>
<VTKFile type="PolyData" version="0.1" byte_order="LittleEndian">
  <PolyData>
    <Piece NumberOfPoints="     17" NumberOfVerts="  0" NumberOfLines="      0"
           NumberOfStrips="  0" NumberOfPolys="      0">
      <Points>
        <DataArray type="Float32" NumberOfComponents="3" format="ascii">
                       2.89408                      -0.02374                      93.42685
                       3.15651                      -0.01580                      97.03496
                       3.42715                      -0.00740                     100.64245
                       3.70905                       0.00137                     104.24908
                       4.00475                       0.01050                     107.85461
                       4.31701                       0.01994                     111.45873
                       4.64939                       0.02944                     115.06104
                       5.00645                       0.03860                     118.66099
                       5.39383                       0.04699                     122.25779
                       5.81790                       0.05427                     125.85043
                       6.28527                       0.06026                     129.43769
                       6.80195                       0.06502                     133.01816
                       7.37231                       0.06879                     136.59048
                       7.99770                       0.07195                     140.15360
                       8.67488                       0.07491                     143.70730
                       9.39420                       0.07803                     147.25279
                      10.13748                       0.08141                     150.79341
        </DataArray>
      </Points>
      <PointData>
        <DataArray type="Float32" Name="Force" NumberOfComponents="3" format="ascii">
                     187.73595                      79.49330                     -13.68927
                     621.91534                     244.75730                     -47.08100
                    2393.41322                    -855.29112                    -184.90877
                    4230.46830                   -1698.15203                    -340.07380
                    2604.28614                    -962.53632                    -218.45795
                    5584.73881                   -1799.49871                    -493.25250
                    6707.93128                   -1854.59445                    -636.07449
                    7482.75442                   -1797.36608                    -771.34408
                    8056.09415                   -1710.83649                    -909.89882
                   10167.82055                   -1927.46484                   -1267.77021
                   11766.25017                   -2020.57175                   -1632.34997
                   13441.89433                   -2152.24660                   -2075.88318
                    7731.25537                   -1178.90807                   -1290.24290
                   15479.78359                   -2241.62859                   -2778.03466
                   14969.85269                   -2025.89530                   -2895.60528
                   21281.42952                   -2586.77859                   -4359.05965
                    8557.46813                    -827.00909                   -1793.25062
        </DataArray>
        <DataArray type="Float32" Name="Moment" NumberOfComponents="3" format="ascii">
                     -19.70310                      22.04021                       6.16433
                     157.12034                     425.15428                      56.76764
                    1076.09769                    2489.80294                     356.67140
                    1457.83840                    3459.47269                    1051.61450
                     122.99936                     277.05100                     630.82206
                    -920.26999                   -2698.17188                    1000.69309
                    -582.90944                   -1795.41459                     518.61931
                    -180.62340                    -102.33910                    -153.63322
                       8.51584                     800.63891                    -350.35508
                     210.54085                    1877.47391                    -200.96133
                     716.15513                    4773.44220                    -108.88163
                    1369.05483                    8635.57781                     290.10802
                     -22.76433                    -497.06686                     402.04553
                   -1395.88465                  -10512.70711                    1074.57547
                   -1191.24558                   -9804.23073                    1036.60802
                    -166.88281                   -1465.59531                    1012.42644
                    -137.60071                      38.04793                      93.42848
        </DataArray>
      </PointData>
    </Piece>
  </PolyData>
</VTKFile>
