<?xml version="1.0"?>
<VTKFile type="PolyData" version="0.1" byte_order="LittleEndian">
  <PolyData>
    <Piece NumberOfPoints="     19" NumberOfVerts="  0" NumberOfLines="     18"
           NumberOfStrips="  0" NumberOfPolys="      0">
      <Points>
        <DataArray type="Float32" NumberOfComponents="3" format="ascii">
                       3.00353                      -3.28673                      90.74585
                       2.93125                      -6.84555                      91.39156
                       2.86681                     -10.40553                      92.03164
                       2.81343                     -13.96703                      92.66427
                       2.77397                     -17.53022                      93.28828
                       2.75148                     -21.09519                      93.90288
                       2.74957                     -24.66196                      94.50736
                       2.77250                     -28.23046                      95.10102
                       2.82523                     -31.80052                      95.68321
                       2.91316                     -35.37182                      96.25338
                       3.04168                     -38.94383                      96.81119
                       3.21545                     -42.51583                      97.35659
                       3.43754                     -46.08699                      97.88995
                       3.70826                     -49.65647                      98.41211
                       4.02380                     -53.22372                      98.92463
                       4.37471                     -56.78875                      99.42998
                       4.74405                     -60.35247                      99.93168
                       4.93068                     -62.13419                     100.18214
                       3.04119                      -1.50756                      90.42185
        </DataArray>
      </Points>
      <PointData>
        <DataArray type="Float32" Name="TranslationalVelocity" NumberOfComponents="3" format="ascii">
                      -0.91043                      -0.49622                      -3.02058
                      -1.32802                      -1.08362                      -6.30473
                      -1.74323                      -1.66743                      -9.59362
                      -2.15494                      -2.24655                     -12.88864
                      -2.56209                      -2.82029                     -16.19062
                      -2.96365                      -3.38828                     -19.50000
                      -3.35878                      -3.95019                     -22.81690
                      -3.74676                      -4.50571                     -26.14121
                      -4.12711                      -5.05456                     -29.47254
                      -4.49953                      -5.59658                     -32.81024
                      -4.86397                      -6.13175                     -36.15341
                      -5.22070                      -6.66021                     -39.50087
                      -5.57033                      -7.18235                     -42.85127
                      -5.91393                      -7.69878                     -46.20322
                      -6.25308                      -8.21047                     -49.55546
                      -6.59003                      -8.71884                     -52.90717
                      -6.92777                      -9.22572                     -56.25818
                      -7.09726                      -9.47903                     -57.93354
                      -0.70118                      -0.20179                      -1.37948
        </DataArray>
        <DataArray type="Float32" Name="RotationalVelocity" NumberOfComponents="3" format="ascii">
                       0.92216                      -0.01100                      -0.11561
                       0.92303                      -0.01093                      -0.11510
                       0.92427                      -0.01080                      -0.11426
                       0.92576                      -0.01063                      -0.11313
                       0.92739                      -0.01041                      -0.11171
                       0.92909                      -0.01014                      -0.11003
                       0.93079                      -0.00983                      -0.10815
                       0.93246                      -0.00949                      -0.10610
                       0.93405                      -0.00913                      -0.10396
                       0.93554                      -0.00877                      -0.10178
                       0.93689                      -0.00841                      -0.09965
                       0.93809                      -0.00807                      -0.09767
                       0.93913                      -0.00778                      -0.09593
                       0.93996                      -0.00755                      -0.09457
                       0.94057                      -0.00741                      -0.09373
                       0.94091                      -0.00738                      -0.09356
                       0.94093                      -0.00751                      -0.09426
                       0.94085                      -0.00762                      -0.09486
                       0.92183                      -0.01103                      -0.11578
        </DataArray>
        <DataArray type="Float32" Name="TranslationalAcceleration" NumberOfComponents="3" format="ascii">
                      -1.01044                       2.98621                      -0.72214
                      -1.03462                       6.07044                      -1.23414
                      -1.04929                       9.16758                      -1.71096
                      -1.05244                      12.28101                      -2.14351
                      -1.04368                      15.41272                      -2.52612
                      -1.02544                      18.56370                      -2.85516
                      -1.00317                      21.73422                      -3.12818
                      -0.98567                      24.92398                      -3.34329
                      -0.98505                      28.13197                      -3.49892
                      -1.01621                      31.35639                      -3.59388
                      -1.09565                      34.59443                      -3.62754
                      -1.23991                      37.84220                      -3.60025
                      -1.46337                      41.09486                      -3.51380
                      -1.77559                      44.34727                      -3.37203
                      -2.17806                      47.59495                      -3.18182
                      -2.66061                      50.83560                      -2.95430
                      -3.19700                      54.07077                      -2.70590
                      -3.47422                      55.68746                      -2.57890
                      -0.99626                       1.44680                      -0.45875
        </DataArray>
        <DataArray type="Float32" Name="RotationalAcceleration" NumberOfComponents="3" format="ascii">
                      -0.00699                      -0.05350                       0.01077
                      -0.01459                      -0.05296                       0.01284
                      -0.02497                      -0.05225                       0.01547
                      -0.03707                      -0.05144                       0.01850
                      -0.05022                      -0.05065                       0.02124
                      -0.06402                      -0.05005                       0.02289
                      -0.07821                      -0.04979                       0.02261
                      -0.09266                      -0.05006                       0.01944
                      -0.10726                      -0.05100                       0.01252
                      -0.12187                      -0.05275                       0.00124
                      -0.13631                      -0.05534                      -0.01466
                      -0.15026                      -0.05873                      -0.03491
                      -0.16335                      -0.06276                      -0.05856
                      -0.17507                      -0.06713                      -0.08389
                      -0.18473                      -0.07136                      -0.10821
                      -0.19143                      -0.07479                      -0.12779
                      -0.19409                      -0.07653                      -0.13763
                      -0.19427                      -0.07685                      -0.13940
                      -0.00406                      -0.05373                       0.00985
        </DataArray>
        <DataArray type="Float32" Name="OrientationX" NumberOfComponents="3" format="ascii">
                       0.93732                      -0.08154                      -0.33880
                       0.93736                      -0.07955                      -0.33916
                       0.93742                      -0.07644                      -0.33972
                       0.94202                      -0.07036                      -0.32809
                       0.95201                      -0.06064                      -0.30000
                       0.95730                      -0.05216                      -0.28434
                       0.96232                      -0.04260                      -0.26854
                       0.96724                      -0.03163                      -0.25188
                       0.97178                      -0.01922                      -0.23509
                       0.97566                      -0.00550                      -0.21923
                       0.97898                       0.00952                      -0.20374
                       0.98160                       0.02542                      -0.18925
                       0.98317                       0.04122                      -0.17799
                       0.98416                       0.05628                      -0.16812
                       0.98500                       0.06955                      -0.15792
                       0.98592                       0.07927                      -0.14724
                       0.98673                       0.08261                      -0.13975
                       0.98711                       0.08230                      -0.13724
                       0.93730                      -0.08220                      -0.33868
        </DataArray>
        <DataArray type="Float32" Name="OrientationY" NumberOfComponents="3" format="ascii">
                       0.34785                       0.16084                       0.92365
                       0.34784                       0.16023                       0.92376
                       0.34782                       0.15939                       0.92391
                       0.33530                       0.15940                       0.92853
                       0.30594                       0.16038                       0.93844
                       0.28906                       0.16031                       0.94379
                       0.27189                       0.16010                       0.94892
                       0.25366                       0.15978                       0.95401
                       0.23511                       0.15930                       0.95883
                       0.21731                       0.15862                       0.96313
                       0.19973                       0.15775                       0.96707
                       0.18306                       0.15670                       0.97053
                       0.16966                       0.15557                       0.97315
                       0.15779                       0.15442                       0.97533
                       0.14588                       0.15321                       0.97737
                       0.13403                       0.15201                       0.97925
                       0.12619                       0.15125                       0.98041
                       0.12376                       0.15105                       0.98075
                       0.34785                       0.16108                       0.92361
        </DataArray>
        <DataArray type="Float32" Name="OrientationZ" NumberOfComponents="3" format="ascii">
                      -0.02082                      -0.98361                       0.17912
                      -0.01914                      -0.98387                       0.17786
                      -0.01648                      -0.98425                       0.17600
                      -0.01303                      -0.98470                       0.17374
                      -0.00879                      -0.98519                       0.17124
                      -0.00364                      -0.98569                       0.16854
                       0.00257                      -0.98618                       0.16565
                       0.01007                      -0.98665                       0.16257
                       0.01902                      -0.98704                       0.15932
                       0.02947                      -0.98732                       0.15595
                       0.04135                      -0.98743                       0.15253
                       0.05432                      -0.98732                       0.14916
                       0.06780                      -0.98696                       0.14596
                       0.08085                      -0.98640                       0.14309
                       0.09217                      -0.98574                       0.14076
                       0.10001                      -0.98520                       0.13924
                       0.10213                      -0.98504                       0.13882
                       0.10144                      -0.98509                       0.13892
                      -0.02137                      -0.98351                       0.17958
        </DataArray>
      </PointData>
      <Lines>
        <DataArray type="Int32" Name="connectivity" format="ascii">
      0      1
      1      2
      2      3
      3      4
      4      5
      5      6
      6      7
      7      8
      8      9
      9     10
     10     11
     11     12
     12     13
     13     14
     14     15
     15     16
     16     17
     18      0
        </DataArray>
        <DataArray type="Int32" Name="offsets" format="ascii">
      2
      4
      6
      8
     10
     12
     14
     16
     18
     20
     22
     24
     26
     28
     30
     32
     34
     36
        </DataArray>
      </Lines>
    </Piece>
  </PolyData>
</VTKFile>
