<?xml version="1.0"?>
<VTKFile type="PolyData" version="0.1" byte_order="LittleEndian">
  <PolyData>
    <Piece NumberOfPoints="     19" NumberOfVerts="  0" NumberOfLines="     18"
           NumberOfStrips="  0" NumberOfPolys="      0">
      <Points>
        <DataArray type="Float32" NumberOfComponents="3" format="ascii">
                       2.62695                      -0.22072                      86.89687
                       2.01757                      -0.43169                      83.33716
                       1.41579                      -0.64213                      79.77613
                       0.82450                      -0.85171                      76.21330
                       0.24610                      -1.06026                      72.64829
                      -0.31673                      -1.26766                      69.08073
                      -0.86063                      -1.47368                      65.51016
                      -1.38125                      -1.67797                      61.93603
                      -1.87330                      -1.88020                      58.35774
                      -2.33074                      -2.08010                      54.77475
                      -2.74731                      -2.27758                      51.18666
                      -3.11728                      -2.47278                      47.59336
                      -3.43647                      -2.66600                      43.99508
                      -3.70350                      -2.85767                      40.39245
                      -3.92135                      -3.04832                      36.78641
                      -4.09920                      -3.23846                      33.17808
                      -4.25441                      -3.42847                      29.56865
                      -4.32911                      -3.52348                      27.76380
                       2.93312                      -0.11516                      88.67646
        </DataArray>
      </Points>
      <PointData>
        <DataArray type="Float32" Name="TranslationalVelocity" NumberOfComponents="3" format="ascii">
                      -0.00138                       3.02523                      -0.15778
                      -0.03208                       6.39005                      -0.35195
                      -0.06486                       9.76389                      -0.54579
                      -0.09998                      13.14903                      -0.73909
                      -0.13738                      16.54689                      -0.93179
                      -0.17813                      19.95792                      -1.12367
                      -0.22551                      23.38170                      -1.31401
                      -0.28562                      26.81713                      -1.50165
                      -0.36741                      30.26260                      -1.68518
                      -0.48234                      33.71627                      -1.86329
                      -0.64359                      37.17623                      -2.03516
                      -0.86467                      40.64066                      -2.20078
                      -1.15765                      44.10792                      -2.36119
                      -1.53073                      47.57656                      -2.51822
                      -1.98540                      51.04547                      -2.67411
                      -2.51297                      54.51410                      -2.83060
                      -3.09066                      57.98243                      -2.98781
                      -3.38817                      59.71654                      -3.06648
                       0.01356                       1.34473                      -0.06066
        </DataArray>
        <DataArray type="Float32" Name="RotationalVelocity" NumberOfComponents="3" format="ascii">
                       0.92390                       0.00135                      -0.11867
                       0.92591                       0.00181                      -0.11905
                       0.92863                       0.00250                      -0.11956
                       0.93184                       0.00311                      -0.12015
                       0.93529                       0.00378                      -0.12078
                       0.93873                       0.00499                      -0.12145
                       0.94193                       0.00750                      -0.12215
                       0.94474                       0.01212                      -0.12291
                       0.94708                       0.01963                      -0.12376
                       0.94896                       0.03061                      -0.12473
                       0.95044                       0.04535                      -0.12586
                       0.95164                       0.06369                      -0.12716
                       0.95265                       0.08490                      -0.12859
                       0.95351                       0.10754                      -0.13008
                       0.95425                       0.12936                      -0.13150
                       0.95482                       0.14712                      -0.13266
                       0.95501                       0.15654                      -0.13325
                       0.95498                       0.15856                      -0.13336
                       0.92309                       0.00125                      -0.11852
        </DataArray>
        <DataArray type="Float32" Name="TranslationalAcceleration" NumberOfComponents="3" format="ascii">
                      -0.79149                       0.14560                       2.51785
                      -0.12976                       0.43240                       5.57905
                       0.56256                       0.76807                       8.64959
                       1.29928                       1.16579                      11.73113
                       2.09334                       1.63351                      14.82437
                       2.95491                       2.17437                      17.92925
                       3.88930                       2.78787                      21.04546
                       4.89606                       3.47090                      24.17289
                       5.96884                       4.21868                      27.31218
                       7.09570                       5.02603                      30.46503
                       8.25973                       5.88839                      33.63452
                       9.44030                       6.80262                      36.82487
                      10.61471                       7.76705                      40.04089
                      11.76029                       8.78053                      43.28677
                      12.85693                       9.84051                      46.56454
                      13.89015                      10.94005                      49.87219
                      14.85440                      12.06402                      53.20128
                      15.31927                      12.62959                      54.86965
                      -1.11645                       0.01245                       0.98931
        </DataArray>
        <DataArray type="Float32" Name="RotationalAcceleration" NumberOfComponents="3" format="ascii">
                       0.02348                      -0.07062                       0.00046
                       0.03462                      -0.07683                      -0.00109
                       0.05011                      -0.08678                      -0.00318
                       0.06851                      -0.10043                      -0.00554
                       0.08837                      -0.11742                      -0.00796
                       0.10855                      -0.13664                      -0.01031
                       0.12830                      -0.15653                      -0.01253
                       0.14696                      -0.17546                      -0.01463
                       0.16410                      -0.19180                      -0.01662
                       0.17950                      -0.20401                      -0.01855
                       0.19307                      -0.21082                      -0.02049
                       0.20485                      -0.21138                      -0.02249
                       0.21487                      -0.20538                      -0.02458
                       0.22312                      -0.19319                      -0.02673
                       0.22945                      -0.17605                      -0.02884
                       0.23357                      -0.15613                      -0.03073
                       0.23488                      -0.13667                      -0.03211
                       0.23473                      -0.12754                      -0.03263
                       0.01918                      -0.06843                       0.00107
        </DataArray>
        <DataArray type="Float32" Name="OrientationX" NumberOfComponents="3" format="ascii">
                       0.95735                       0.22744                      -0.17820
                       0.95763                       0.22753                      -0.17658
                       0.95805                       0.22768                      -0.17405
                       0.96162                       0.21491                      -0.17058
                       0.96865                       0.18483                      -0.16597
                       0.97263                       0.16773                      -0.16079
                       0.97648                       0.15042                      -0.15448
                       0.98031                       0.13213                      -0.14672
                       0.98399                       0.11363                      -0.13731
                       0.98736                       0.09599                      -0.12615
                       0.99044                       0.07869                      -0.11326
                       0.99313                       0.06238                      -0.09896
                       0.99524                       0.04943                      -0.08399
                       0.99687                       0.03803                      -0.06924
                       0.99808                       0.02652                      -0.05605
                       0.99881                       0.01491                      -0.04634
                       0.99906                       0.00713                      -0.04279
                       0.99907                       0.00466                      -0.04294
                       0.95726                       0.22741                      -0.17873
        </DataArray>
        <DataArray type="Float32" Name="OrientationY" NumberOfComponents="3" format="ascii">
                       0.23416                      -0.97204                       0.01738
                       0.23421                      -0.97203                       0.01766
                       0.23428                      -0.97200                       0.01805
                       0.22157                      -0.97492                       0.02080
                       0.19174                      -0.98109                       0.02651
                       0.17466                      -0.98417                       0.02990
                       0.15730                      -0.98699                       0.03322
                       0.13885                      -0.98964                       0.03655
                       0.12009                      -0.99197                       0.03974
                       0.10206                      -0.99387                       0.04259
                       0.08424                      -0.99542                       0.04515
                       0.06732                      -0.99661                       0.04733
                       0.05367                      -0.99736                       0.04891
                       0.04155                      -0.99788                       0.05011
                       0.02939                      -0.99826                       0.05108
                       0.01731                      -0.99851                       0.05183
                       0.00936                      -0.99859                       0.05222
                       0.00691                      -0.99861                       0.05233
                       0.23414                      -0.97205                       0.01726
        </DataArray>
        <DataArray type="Float32" Name="OrientationZ" NumberOfComponents="3" format="ascii">
                      -0.16926                      -0.05836                      -0.98384
                      -0.16763                      -0.05827                      -0.98413
                      -0.16507                      -0.05807                      -0.98457
                      -0.16183                      -0.05780                      -0.98512
                      -0.15793                      -0.05750                      -0.98577
                      -0.15323                      -0.05716                      -0.98654
                      -0.14747                      -0.05674                      -0.98744
                      -0.14037                      -0.05621                      -0.98850
                      -0.13169                      -0.05559                      -0.98973
                      -0.12129                      -0.05493                      -0.99110
                      -0.10919                      -0.05426                      -0.99254
                      -0.09568                      -0.05367                      -0.99396
                      -0.08135                      -0.05319                      -0.99527
                      -0.06719                      -0.05283                      -0.99634
                      -0.05460                      -0.05263                      -0.99712
                      -0.04550                      -0.05257                      -0.99758
                      -0.04236                      -0.05257                      -0.99772
                      -0.04263                      -0.05257                      -0.99771
                      -0.16981                      -0.05837                      -0.98375
        </DataArray>
      </PointData>
      <Lines>
        <DataArray type="Int32" Name="connectivity" format="ascii">
      0      1
      1      2
      2      3
      3      4
      4      5
      5      6
      6      7
      7      8
      8      9
      9     10
     10     11
     11     12
     12     13
     13     14
     14     15
     15     16
     16     17
     18      0
        </DataArray>
        <DataArray type="Int32" Name="offsets" format="ascii">
      2
      4
      6
      8
     10
     12
     14
     16
     18
     20
     22
     24
     26
     28
     30
     32
     34
     36
        </DataArray>
      </Lines>
    </Piece>
  </PolyData>
</VTKFile>
