<?xml version="1.0"?>
<VTKFile type="PolyData" version="0.1" byte_order="LittleEndian">
  <PolyData>
    <Piece NumberOfPoints="     19" NumberOfVerts="  0" NumberOfLines="     18"
           NumberOfStrips="  0" NumberOfPolys="      0">
      <Points>
        <DataArray type="Float32" NumberOfComponents="3" format="ascii">
                       3.18996                       1.35869                      90.73047
                       3.19733                       2.61740                      91.26291
                       3.20187                       5.09734                      92.41691
                       3.20453                       7.55957                      93.61320
                       3.21178                      10.62679                      95.13404
                       3.26869                      14.36425                      96.82257
                       3.35135                      18.15232                      98.38961
                       3.45266                      21.94085                      99.95447
                       3.58040                      25.73042                     101.51491
                       3.74111                      29.52001                     103.07221
                       3.93726                      33.30800                     104.62925
                       4.18152                      37.09445                     106.18320
                       4.48070                      40.87881                     107.73258
                       4.83859                      44.66050                     109.27601
                       5.25607                      48.43896                     110.81239
                       5.64257                      51.58533                     112.08757
                       5.97026                      54.10416                     113.09764
                       6.29646                      56.64422                     114.05675
                       6.46406                      57.89788                     114.57438
        </DataArray>
      </Points>
      <PointData>
        <DataArray type="Float32" Name="Force" NumberOfComponents="3" format="ascii">
                      -0.03598                       0.11857                      -0.28184
                      65.70923                       8.76642                     -21.84119
                      76.48099                      20.86044                     -51.02845
                      64.60949                      27.35779                     -66.57481
                     687.28271                     -76.07564                     162.55647
                     952.06363                    -105.55638                     216.88064
                    1071.28960                     -93.20892                     170.75894
                    1350.03357                     -98.47167                     150.43231
                    1454.28865                     -90.85470                      99.19675
                    1679.78206                     -99.68896                      63.64737
                    2090.73960                    -124.87613                      21.38883
                    2428.82443                    -157.40420                     -27.00963
                    2884.74729                    -217.60258                     -65.74709
                    3235.76433                    -277.73732                    -117.50128
                    3589.27632                    -344.13273                    -172.39266
                    3833.73346                    -389.49892                    -221.19516
                    3834.14200                    -394.16418                    -253.61220
                    2851.59183                    -293.23692                    -201.62675
                    1159.94127                     -73.25539                    -195.30649
        </DataArray>
        <DataArray type="Float32" Name="Moment" NumberOfComponents="3" format="ascii">
                       0.00000                       0.00000                       0.00000
                       0.00000                       0.00000                       0.00000
                       0.00000                       0.00000                       0.00000
                       0.00000                       0.00000                       0.00000
                      -2.06470                    -179.05795                     -75.06879
                      -5.04707                    -325.99099                    -136.50502
                      -9.61153                    -472.06970                    -197.37985
                     -17.80312                    -673.42889                    -281.04900
                     -31.54267                    -925.72623                    -385.44038
                     -45.47902                   -1042.70615                    -432.87657
                     -61.80960                   -1113.75364                    -460.68267
                     -81.66992                   -1177.02413                    -484.76630
                     -88.63634                   -1045.55908                    -428.56770
                    -105.89677                   -1052.18509                    -429.15203
                    -119.15233                   -1032.71689                    -419.26936
                    -122.83587                    -983.06813                    -397.91117
                    -113.53904                    -876.48891                    -354.25847
                     -57.98178                    -441.28133                    -178.25214
                     -47.72540                    -363.83449                    -146.97835
        </DataArray>
        <DataArray type="Float32" Name="TranslationalVelocity" NumberOfComponents="3" format="ascii">
                       0.29553                      -0.57894                       1.32190
                       0.44788                      -1.07116                       2.48339
                       0.74858                      -2.13605                       4.77086
                       1.04656                      -3.23785                       7.03863
                       1.41585                      -4.63553                       9.85754
                       1.86100                      -6.18774                      13.28217
                       2.30552                      -7.62612                      16.74056
                       2.74150                      -9.05919                      20.18640
                       3.16449                     -10.48575                      23.62046
                       3.56810                     -11.90761                      27.04269
                       3.94775                     -13.32808                      30.45397
                       4.29304                     -14.74501                      33.85512
                       4.59603                     -16.15719                      37.24818
                       4.85096                     -17.56304                      40.63541
                       5.05631                     -18.96111                      44.01902
                       5.19384                     -20.12014                      46.83745
                       5.28604                     -21.03736                      49.09475
                       5.37295                     -21.90830                      51.37147
                       5.41408                     -22.37794                      52.49536
        </DataArray>
        <DataArray type="Float32" Name="RotationalVelocity" NumberOfComponents="3" format="ascii">
                       0.92332                       0.00728                      -0.11805
                       0.92282                       0.00725                      -0.11797
                       0.92158                       0.00714                      -0.11770
                       0.92005                       0.00698                      -0.11730
                       0.91773                       0.00671                      -0.11662
                       0.91457                       0.00627                      -0.11553
                       0.91124                       0.00563                      -0.11397
                       0.90790                       0.00467                      -0.11164
                       0.90467                       0.00324                      -0.10818
                       0.90166                       0.00118                      -0.10324
                       0.89905                      -0.00168                      -0.09639
                       0.89688                      -0.00529                      -0.08778
                       0.89525                      -0.00950                      -0.07771
                       0.89416                      -0.01406                      -0.06686
                       0.89358                      -0.01847                      -0.05634
                       0.89342                      -0.02150                      -0.04913
                       0.89343                      -0.02310                      -0.04532
                       0.89349                      -0.02394                      -0.04330
                       0.89353                      -0.02405                      -0.04306
        </DataArray>
        <DataArray type="Float32" Name="TranslationalAcceleration" NumberOfComponents="3" format="ascii">
                      -1.35333                      -1.23567                      -0.80252
                      -1.41585                      -2.30937                      -1.29580
                      -1.54939                      -4.41249                      -2.36825
                      -1.66553                      -6.46933                      -3.51360
                      -1.76622                      -8.97592                      -5.03218
                      -1.77468                     -11.96404                      -6.85601
                      -1.64992                     -14.92222                      -8.72723
                      -1.41639                     -17.79464                     -10.74888
                      -1.09717                     -20.58422                     -12.92033
                      -0.73843                     -23.29331                     -15.23786
                      -0.39809                     -25.93194                     -17.68018
                      -0.15085                     -28.49698                     -20.24450
                      -0.07986                     -30.99286                     -22.90772
                      -0.26102                     -33.42348                     -25.64134
                      -0.74673                     -35.79317                     -28.41400
                      -1.38643                     -37.72815                     -30.73336
                      -2.04408                     -39.26037                     -32.58090
                      -2.78989                     -40.82353                     -34.38976
                      -3.17988                     -41.57407                     -35.31548
        </DataArray>
        <DataArray type="Float32" Name="OrientationX" NumberOfComponents="3" format="ascii">
                       0.99336                      -0.04935                       0.10388
                       0.99336                      -0.04970                       0.10374
                       0.99336                      -0.05070                       0.10332
                       0.99334                      -0.05206                       0.10274
                       0.99332                      -0.05433                       0.10179
                       0.99643                      -0.04548                       0.07108
                       0.99801                      -0.04082                       0.04815
                       0.99889                      -0.03830                       0.02744
                       0.99931                      -0.03667                       0.00512
                       0.99917                      -0.03644                      -0.01846
                       0.99838                      -0.03865                      -0.04177
                       0.99693                      -0.04262                      -0.06561
                       0.99492                      -0.04860                      -0.08817
                       0.99267                      -0.05670                      -0.10672
                       0.99015                      -0.06387                      -0.12460
                       0.98805                      -0.06751                      -0.13854
                       0.98664                      -0.06804                      -0.14800
                       0.98592                      -0.06781                      -0.15286
                       0.98594                      -0.06763                      -0.15278
        </DataArray>
        <DataArray type="Float32" Name="OrientationY" NumberOfComponents="3" format="ascii">
                       0.11489                       0.38409                      -0.91612
                       0.11489                       0.38405                      -0.91614
                       0.11489                       0.38396                      -0.91618
                       0.11488                       0.38384                      -0.91622
                       0.11488                       0.38366                      -0.91630
                       0.08314                       0.38501                      -0.91916
                       0.06019                       0.38575                      -0.92064
                       0.04013                       0.38629                      -0.92150
                       0.01892                       0.38683                      -0.92196
                      -0.00291                       0.38740                      -0.92191
                      -0.02353                       0.38794                      -0.92138
                      -0.04396                       0.38856                      -0.92037
                      -0.06243                       0.38923                      -0.91902
                      -0.07639                       0.38982                      -0.91772
                      -0.09009                       0.39054                      -0.91617
                      -0.10152                       0.39125                      -0.91467
                      -0.11000                       0.39182                      -0.91344
                      -0.11454                       0.39213                      -0.91275
                      -0.11454                       0.39213                      -0.91275
        </DataArray>
        <DataArray type="Float32" Name="OrientationZ" NumberOfComponents="3" format="ascii">
                       0.00531                       0.92198                       0.38721
                       0.00569                       0.92197                       0.38721
                       0.00678                       0.92196                       0.38723
                       0.00826                       0.92193                       0.38727
                       0.01073                       0.92187                       0.38734
                       0.01443                       0.92179                       0.38742
                       0.01901                       0.92170                       0.38744
                       0.02469                       0.92158                       0.38740
                       0.03183                       0.92142                       0.38726
                       0.04074                       0.92119                       0.38697
                       0.05181                       0.92087                       0.38640
                       0.06472                       0.92044                       0.38550
                       0.07898                       0.91986                       0.38422
                       0.09363                       0.91914                       0.38263
                       0.10718                       0.91837                       0.38094
                       0.11595                       0.91781                       0.37972
                       0.12014                       0.91752                       0.37910
                       0.12184                       0.91741                       0.37884
                       0.12164                       0.91742                       0.37887
        </DataArray>
      </PointData>
      <Lines>
        <DataArray type="Int32" Name="connectivity" format="ascii">
      0      1
      1      2
      2      3
      3      4
      4      5
      5      6
      6      7
      7      8
      8      9
      9     10
     10     11
     11     12
     12     13
     13     14
     14     15
     15     16
     16     17
     17     18
        </DataArray>
        <DataArray type="Int32" Name="offsets" format="ascii">
      2
      4
      6
      8
     10
     12
     14
     16
     18
     20
     22
     24
     26
     28
     30
     32
     34
     36
        </DataArray>
      </Lines>
    </Piece>
  </PolyData>
</VTKFile>
