<?xml version="1.0"?>
<VTKFile type="PolyData" version="0.1" byte_order="LittleEndian">
  <PolyData>
    <Piece NumberOfPoints="     17" NumberOfVerts="  0" NumberOfLines="      0"
           NumberOfStrips="  0" NumberOfPolys="      0">
      <Points>
        <DataArray type="Float32" NumberOfComponents="3" format="ascii">
                       2.88283                      -0.14142                      93.42475
                       3.14405                      -0.26060                      97.03099
                       3.41323                      -0.37918                     100.63665
                       3.69336                      -0.49721                     104.24150
                       3.98688                      -0.61468                     107.84530
                       4.29648                      -0.73164                     111.44777
                       4.62565                      -0.84832                     115.04850
                       4.97895                      -0.96514                     118.64693
                       5.36200                      -1.08252                     122.24229
                       5.78118                      -1.20084                     125.83357
                       6.24316                      -1.32028                     129.41954
                       6.75400                      -1.44077                     132.99883
                       7.31816                      -1.56207                     136.57007
                       7.93710                      -1.68379                     140.13224
                       8.60772                      -1.80553                     143.68510
                       9.32051                      -1.92694                     147.22983
                      10.05744                      -2.04800                     150.76969
        </DataArray>
      </Points>
      <PointData>
        <DataArray type="Float32" Name="Force" NumberOfComponents="3" format="ascii">
                     186.36930                      79.59290                     -10.73098
                     617.49298                     245.42980                     -37.86631
                    2365.68848                    -848.10499                    -211.64225
                    4196.54443                   -1690.79261                    -394.77810
                    2588.71132                    -960.08383                    -249.40051
                    5559.94142                   -1796.94109                    -550.34590
                    6690.99536                   -1853.66396                    -693.89409
                    7474.00615                   -1796.79132                    -825.97303
                    8062.35691                   -1710.81689                    -961.26251
                   10197.57471                   -1927.21614                   -1325.75720
                   11821.13032                   -2017.48699                   -1693.68982
                   13516.33744                   -2140.06612                   -2141.49062
                    7779.41897                   -1167.18948                   -1326.71075
                   15592.03511                   -2207.80256                   -2849.97205
                   15102.98573                   -1980.84366                   -2965.71703
                   21510.93878                   -2506.85362                   -4458.73474
                    8669.27090                    -790.05389                   -1830.59261
        </DataArray>
        <DataArray type="Float32" Name="Moment" NumberOfComponents="3" format="ascii">
                     -19.56351                      21.74871                       6.86945
                     156.71373                     417.70719                      72.36078
                    1077.11395                    2447.55858                     454.84010
                    1465.26886                    3399.59446                    1180.17960
                     123.94499                     253.94523                     642.93720
                    -926.07135                   -2713.25745                     911.39263
                    -587.28041                   -1802.52116                     461.24522
                    -178.23859                     -88.13513                    -151.47646
                      15.33684                     824.78584                    -314.50380
                     223.18376                    1902.09951                    -120.58122
                     741.91219                    4805.40835                      77.02038
                    1409.52449                    8671.96946                     611.56818
                     -24.20448                    -511.19074                     393.88963
                   -1440.57418                  -10604.20994                     718.13869
                   -1231.74990                   -9904.87797                     691.85015
                    -182.51694                   -1493.70700                     936.33178
                    -142.07862                      55.34477                      75.08238
        </DataArray>
      </PointData>
    </Piece>
  </PolyData>
</VTKFile>
