<?xml version="1.0"?>
<VTKFile type="PolyData" version="0.1" byte_order="LittleEndian">
  <PolyData>
    <Piece NumberOfPoints="     17" NumberOfVerts="  0" NumberOfLines="      0"
           NumberOfStrips="  0" NumberOfPolys="      0">
      <Points>
        <DataArray type="Float32" NumberOfComponents="3" format="ascii">
                       2.61124                       0.34710                      86.91613
                       2.00465                       0.76657                      83.37445
                       1.40568                       1.18859                      79.83179
                       0.81734                       1.61403                      76.28775
                       0.24218                       2.04336                      72.74202
                      -0.31714                       2.47682                      69.19427
                      -0.85761                       2.91460                      65.64413
                      -1.37568                       3.35685                      62.09121
                      -1.86725                       3.80362                      58.53510
                      -2.32792                       4.25484                      54.97542
                      -2.75331                       4.71023                      51.41190
                      -3.13968                       5.16936                      47.84442
                      -3.48465                       5.63158                      44.27309
                      -3.78817                       6.09620                      40.69830
                      -4.05364                       6.56245                      37.12066
                      -4.28927                       7.02961                      33.54102
                      -4.50954                       7.49711                      29.96041
        </DataArray>
      </Points>
      <PointData>
        <DataArray type="Float32" Name="Force" NumberOfComponents="3" format="ascii">
                     135.10164                     -59.66624                     -30.26396
                     452.96404                    -204.26930                    -100.75108
                    1627.42442                     570.55758                    -203.23532
                    2775.14415                     981.51923                    -336.74900
                    1736.93531                     542.53994                    -213.20884
                    3889.01172                    1071.92504                    -477.76352
                    4880.27770                    1163.99667                    -591.53855
                    5584.22346                    1141.81764                    -657.75858
                    6189.87933                    1108.78789                    -694.71903
                    8070.68767                    1267.67590                    -848.42268
                    9612.59226                    1342.36099                    -922.59035
                   11423.93181                    1479.37619                    -971.86226
                    6733.55163                     826.14738                    -515.98021
                   13757.90086                    1594.49044                    -939.53163
                   13684.44375                    1477.94522                    -812.53224
                   20238.78682                    1961.86461                   -1075.88436
                    8385.44567                     631.01161                    -445.44870
        </DataArray>
        <DataArray type="Float32" Name="Moment" NumberOfComponents="3" format="ascii">
                     -17.17847                     -17.03283                      -2.65072
                      80.81013                    -287.03771                     -93.34662
                     623.87868                   -1638.87423                    -489.20680
                     635.43278                   -2198.42949                    -638.17775
                      27.77928                    -186.43730                    -112.72150
                    -527.13645                    1784.37419                     317.18512
                    -296.78440                    1198.72733                     637.30799
                      64.13241                    -115.28484                    1128.91452
                     194.79274                    -840.13720                    1126.52968
                     278.54014                   -1702.57326                     917.94506
                     549.07244                   -4061.60338                     417.45057
                     868.03200                   -7389.92280                    -688.83548
                     -53.76326                     422.07494                      89.41500
                   -1005.41382                    9072.46200                    1222.79309
                    -914.47483                    8631.89477                    1008.87923
                    -251.78795                    1136.47434                    -239.56585
                    -129.91132                    -146.93644                      51.85639
        </DataArray>
      </PointData>
    </Piece>
  </PolyData>
</VTKFile>
