<?xml version="1.0"?>
<VTKFile type="PolyData" version="0.1" byte_order="LittleEndian">
  <PolyData>
    <Piece NumberOfPoints="     17" NumberOfVerts="  0" NumberOfLines="      0"
           NumberOfStrips="  0" NumberOfPolys="      0">
      <Points>
        <DataArray type="Float32" NumberOfComponents="3" format="ascii">
                       2.39293                       2.12838                      87.65871
                       1.91455                       4.47457                      84.94690
                       1.44372                       6.81908                      82.23233
                       0.98323                       9.16165                      79.51430
                       0.53533                      11.50208                      76.79233
                       0.10246                      13.84029                      74.06604
                      -0.31221                      16.17645                      71.33517
                      -0.70452                      18.51087                      68.59952
                      -1.06932                      20.84387                      65.85886
                      -1.40073                      23.17568                      63.11298
                      -1.69261                      25.50634                      60.36166
                      -1.93932                      27.83560                      57.60475
                      -2.13670                      30.16301                      54.84231
                      -2.28330                      32.48804                      52.07469
                      -2.38192                      34.81031                      49.30257
                      -2.44135                      37.12990                      46.52702
                      -2.47834                      39.44776                      43.74956
        </DataArray>
      </Points>
      <PointData>
        <DataArray type="Float32" Name="Force" NumberOfComponents="3" format="ascii">
                     156.75602                     -30.57266                     -54.27545
                     563.95538                    -106.48182                    -190.09954
                    2324.62375                     712.35828                     221.82015
                    3762.05191                    1140.61319                     362.97106
                    2275.04473                     617.89171                     167.19774
                    4969.86910                    1197.96956                     260.00493
                    6061.61153                    1263.53749                     192.97249
                    6812.92752                    1210.24415                     102.30885
                    7361.26581                    1115.68734                      31.04509
                    9319.04841                    1185.51559                     -26.84460
                   10755.97720                    1122.74639                     -64.05551
                   12271.47024                    1042.33862                     -51.25421
                    7033.99669                     493.16549                     -16.37327
                   14006.15469                     765.01908                     -12.74542
                   13440.24827                     487.80040                      -4.19215
                   18875.85327                     305.52458                     -79.46945
                    7701.69065                     -41.00715                    -130.85013
        </DataArray>
        <DataArray type="Float32" Name="Moment" NumberOfComponents="3" format="ascii">
                     -18.78977                     -14.22046                     -14.78593
                     108.39567                    -294.46089                    -325.44748
                     789.80389                   -1681.60249                   -1716.72821
                     712.82195                   -1843.27332                   -2380.44102
                       6.98010                       0.84667                    -393.06179
                    -648.34719                    2005.62069                    1283.78520
                    -396.15768                    1211.22024                    1021.63343
                     -68.50694                    -333.86874                     484.57360
                      51.13867                   -1052.06361                      58.24381
                     103.25856                   -1712.83136                    -663.89056
                     275.65350                   -3626.86348                   -2429.64365
                     424.43714                   -5995.28694                   -5015.51315
                     -42.95175                     372.54383                     238.47599
                    -473.48188                    7241.76732                    5980.08997
                    -318.46490                    6677.10722                    5530.62995
                    -216.05040                    1023.02705                     928.57434
                    -123.18907                    -337.00793                      -6.94292
        </DataArray>
      </PointData>
    </Piece>
  </PolyData>
</VTKFile>
