<?xml version="1.0"?>
<VTKFile type="PolyData" version="0.1" byte_order="LittleEndian">
  <PolyData>
    <Piece NumberOfPoints="     19" NumberOfVerts="  0" NumberOfLines="     18"
           NumberOfStrips="  0" NumberOfPolys="      0">
      <Points>
        <DataArray type="Float32" NumberOfComponents="3" format="ascii">
                       3.18473                      -1.40378                      90.76832
                       3.19547                      -2.65238                      91.32399
                       3.18479                      -5.18733                      92.35145
                       3.16209                      -7.74077                      93.33777
                       3.13201                     -10.94458                      94.54374
                       3.17864                     -14.73512                      96.10896
                       3.28314                     -18.47661                      97.78208
                       3.40902                     -22.21994                      99.44964
                       3.56423                     -25.96451                     101.11202
                       3.75409                     -29.71098                     102.76658
                       3.97917                     -33.46023                     104.41039
                       4.25112                     -37.21136                     106.04286
                       4.57516                     -40.96343                     107.66369
                       4.95354                     -44.71535                     109.27312
                       5.38592                     -48.46609                     110.87180
                       5.78034                     -51.59044                     112.19754
                       6.11327                     -54.08593                     113.26228
                       6.45537                     -56.55965                     114.37665
                       6.62086                     -57.81291                     114.89590
        </DataArray>
      </Points>
      <PointData>
        <DataArray type="Float32" Name="Force" NumberOfComponents="3" format="ascii">
                       0.68338                       2.40320                       5.34794
                      82.29628                      11.04493                      22.88303
                     106.11617                      26.24895                      56.00272
                      96.86493                      34.24464                      73.71892
                     690.78420                    -142.90466                    -343.91514
                     895.66306                    -157.39417                    -393.40217
                    1032.04451                    -148.00039                    -392.47374
                    1329.50269                    -157.64329                    -453.18260
                    1443.40234                    -134.74336                    -438.60028
                    1671.15047                    -121.75441                    -470.16603
                    2069.89409                    -105.67537                    -538.94633
                    2368.17350                     -72.98021                    -583.98644
                    2819.65301                     -41.15330                    -689.13817
                    3081.86056                      11.23239                    -732.78176
                    3306.77890                      67.69992                    -763.70310
                    3404.39605                     111.46522                    -758.04007
                    3306.34996                     134.00961                    -706.11899
                    2404.06002                     107.89028                    -495.64594
                    1322.33245                      93.13909                    -192.77886
        </DataArray>
        <DataArray type="Float32" Name="Moment" NumberOfComponents="3" format="ascii">
                       0.00000                       0.00000                       0.00000
                       0.00000                       0.00000                       0.00000
                       0.00000                       0.00000                       0.00000
                       0.00000                       0.00000                       0.00000
                      -3.23219                     204.01353                     -91.26447
                      -8.87846                     433.15846                    -193.51376
                     -14.75989                     563.11874                    -251.16241
                     -25.85971                     779.90349                    -347.16053
                     -43.88768                    1055.44483                    -468.67678
                     -60.57701                    1171.44877                    -518.67282
                     -79.54290                    1246.22667                    -549.85222
                    -101.64649                    1310.67584                    -575.98925
                    -103.92238                    1125.32195                    -492.40601
                    -119.80637                    1117.23930                    -486.74421
                    -130.12090                    1078.11044                    -467.84286
                    -131.61009                    1019.23404                    -441.19530
                    -120.13063                     904.09255                    -390.92109
                     -61.18763                     456.64125                    -197.38197
                     -54.82830                     410.81754                    -177.60281
        </DataArray>
        <DataArray type="Float32" Name="TranslationalVelocity" NumberOfComponents="3" format="ascii">
                      -0.36656                      -0.58909                      -1.24093
                      -0.51457                      -1.10017                      -2.38647
                      -0.81493                      -2.04189                      -4.71319
                      -1.11747                      -2.94544                      -7.05999
                      -1.49680                      -4.05167                     -10.01022
                      -1.94533                      -5.50077                     -13.50968
                      -2.38673                      -7.06093                     -16.97469
                      -2.82470                      -8.62357                     -20.45299
                      -3.25575                     -10.19006                     -23.94464
                      -3.67507                     -11.75843                     -27.45084
                      -4.07902                     -13.32517                     -30.97163
                      -4.45961                     -14.89081                     -34.50800
                      -4.81046                     -16.45445                     -38.05938
                      -5.12671                     -18.01508                     -41.62456
                      -5.40673                     -19.57165                     -45.20163
                      -5.61526                     -20.86568                     -48.18951
                      -5.76820                     -21.90610                     -50.58013
                      -5.91303                     -22.99449                     -52.95151
                      -5.98681                     -23.50206                     -54.15288
        </DataArray>
        <DataArray type="Float32" Name="RotationalVelocity" NumberOfComponents="3" format="ascii">
                       0.91706                      -0.00188                      -0.11766
                       0.91748                      -0.00189                      -0.11770
                       0.91852                      -0.00190                      -0.11773
                       0.91981                      -0.00188                      -0.11772
                       0.92180                      -0.00183                      -0.11765
                       0.92453                      -0.00171                      -0.11744
                       0.92749                      -0.00144                      -0.11690
                       0.93061                      -0.00092                      -0.11580
                       0.93387                      -0.00001                      -0.11384
                       0.93723                       0.00141                      -0.11073
                       0.94066                       0.00350                      -0.10614
                       0.94407                       0.00621                      -0.10017
                       0.94736                       0.00944                      -0.09302
                       0.95037                       0.01298                      -0.08520
                       0.95292                       0.01644                      -0.07752
                       0.95448                       0.01883                      -0.07221
                       0.95523                       0.02010                      -0.06939
                       0.95558                       0.02078                      -0.06789
                       0.95560                       0.02087                      -0.06770
        </DataArray>
        <DataArray type="Float32" Name="TranslationalAcceleration" NumberOfComponents="3" format="ascii">
                      -1.46435                       1.49023                      -0.58687
                      -1.53271                       2.61022                      -0.93998
                      -1.65788                       4.87147                      -1.58517
                      -1.78532                       7.13557                      -2.24163
                      -1.95473                       9.95949                      -3.12580
                      -2.20001                      13.27691                      -4.43376
                      -2.48172                      16.50361                      -6.00629
                      -2.76817                      19.67753                      -7.75092
                      -3.04364                      22.79852                      -9.66907
                      -3.28766                      25.87042                     -11.75537
                      -3.48413                      28.90364                     -13.98448
                      -3.60615                      31.89976                     -16.36547
                      -3.63286                      34.86669                     -18.88663
                      -3.55004                      37.81322                     -21.53281
                      -3.35510                      40.74824                     -24.28399
                      -3.11833                      43.19019                     -26.63696
                      -2.89154                      45.13726                     -28.55289
                      -2.65912                      47.04567                     -30.51553
                      -2.53815                      48.02798                     -31.46831
        </DataArray>
        <DataArray type="Float32" Name="OrientationX" NumberOfComponents="3" format="ascii">
                       0.93992                      -0.13245                      -0.31465
                       0.93992                      -0.13203                      -0.31484
                       0.93990                      -0.13084                      -0.31537
                       0.93988                      -0.12922                      -0.31610
                       0.93985                      -0.12652                      -0.31730
                       0.95018                      -0.11006                      -0.29161
                       0.95698                      -0.09611                      -0.27379
                       0.96242                      -0.08223                      -0.25882
                       0.96767                      -0.06664                      -0.24327
                       0.97249                      -0.04936                      -0.22767
                       0.97641                      -0.03088                      -0.21371
                       0.97966                      -0.01112                      -0.20037
                       0.98193                       0.00876                      -0.18902
                       0.98299                       0.02689                      -0.18165
                       0.98379                       0.04370                      -0.17391
                       0.98451                       0.05535                      -0.16639
                       0.98519                       0.06188                      -0.15988
                       0.98563                       0.06463                      -0.15608
                       0.98569                       0.06419                      -0.15589
        </DataArray>
        <DataArray type="Float32" Name="OrientationY" NumberOfComponents="3" format="ascii">
                       0.34129                       0.38704                       0.85658
                       0.34129                       0.38698                       0.85660
                       0.34129                       0.38686                       0.85666
                       0.34130                       0.38670                       0.85673
                       0.34130                       0.38647                       0.85683
                       0.31115                       0.38993                       0.86668
                       0.28923                       0.39197                       0.87333
                       0.26996                       0.39342                       0.87883
                       0.24950                       0.39467                       0.88430
                       0.22834                       0.39562                       0.88957
                       0.20826                       0.39618                       0.89424
                       0.18829                       0.39636                       0.89858
                       0.17015                       0.39616                       0.90228
                       0.15641                       0.39570                       0.90496
                       0.14287                       0.39505                       0.90748
                       0.13154                       0.39437                       0.90949
                       0.12309                       0.39380                       0.91092
                       0.11856                       0.39348                       0.91165
                       0.11856                       0.39348                       0.91165
        </DataArray>
        <DataArray type="Float32" Name="OrientationZ" NumberOfComponents="3" format="ascii">
                       0.00833                      -0.91250                       0.40899
                       0.00874                      -0.91259                       0.40879
                       0.00992                      -0.91281                       0.40826
                       0.01153                      -0.91311                       0.40756
                       0.01422                      -0.91358                       0.40641
                       0.01832                      -0.91424                       0.40475
                       0.02338                      -0.91495                       0.40290
                       0.02956                      -0.91567                       0.40084
                       0.03708                      -0.91640                       0.39854
                       0.04616                      -0.91709                       0.39601
                       0.05706                      -0.91765                       0.39326
                       0.06943                      -0.91803                       0.39039
                       0.08278                      -0.91814                       0.38751
                       0.09622                      -0.91799                       0.38477
                       0.10836                      -0.91762                       0.38240
                       0.11596                      -0.91728                       0.38098
                       0.11933                      -0.91711                       0.38035
                       0.12034                      -0.91706                       0.38016
                       0.11986                      -0.91709                       0.38024
        </DataArray>
      </PointData>
      <Lines>
        <DataArray type="Int32" Name="connectivity" format="ascii">
      0      1
      1      2
      2      3
      3      4
      4      5
      5      6
      6      7
      7      8
      8      9
      9     10
     10     11
     11     12
     12     13
     13     14
     14     15
     15     16
     16     17
     17     18
        </DataArray>
        <DataArray type="Int32" Name="offsets" format="ascii">
      2
      4
      6
      8
     10
     12
     14
     16
     18
     20
     22
     24
     26
     28
     30
     32
     34
     36
        </DataArray>
      </Lines>
    </Piece>
  </PolyData>
</VTKFile>
