<?xml version="1.0"?>
<VTKFile type="PolyData" version="0.1" byte_order="LittleEndian">
  <PolyData>
    <Piece NumberOfPoints="     19" NumberOfVerts="  0" NumberOfLines="     18"
           NumberOfStrips="  0" NumberOfPolys="      0">
      <Points>
        <DataArray type="Float32" NumberOfComponents="3" format="ascii">
                       2.80888                      -1.02036                      89.03246
                       2.62778                      -1.94193                      88.03958
                       2.23655                      -3.71405                      85.99309
                       1.83402                      -5.45089                      83.91604
                       1.32838                      -7.59838                      81.29876
                       0.79636                     -10.27639                      78.23925
                       0.31385                     -13.04412                      75.25425
                      -0.15216                     -15.80658                      72.26169
                      -0.59564                     -18.56516                      69.26202
                      -1.01394                     -21.31863                      66.25391
                      -1.40831                     -24.06524                      63.23621
                      -1.77208                     -26.80589                      60.20912
                      -2.10381                     -29.54118                      57.17340
                      -2.40412                     -32.27181                      54.13010
                      -2.67422                     -34.99856                      51.08036
                      -2.88148                     -37.26873                      48.53536
                      -3.03906                     -39.08984                      46.50307
                      -3.19342                     -40.95217                      44.50664
                      -3.27499                     -41.85195                      43.48128
        </DataArray>
      </Points>
      <PointData>
        <DataArray type="Float32" Name="Force" NumberOfComponents="3" format="ascii">
                       0.37527                      -3.38124                       3.08797
                      63.47606                     -25.09606                      11.89053
                      91.65526                     -55.86829                      35.61018
                      87.05256                     -69.47862                      49.29118
                     705.84763                     200.79776                    -311.04303
                     900.17050                     212.54773                    -351.56592
                    1029.41069                     198.39039                    -354.10059
                    1289.26827                     207.74519                    -396.23523
                    1328.44441                     172.07978                    -358.10747
                    1424.81174                     152.41771                    -340.67155
                    1617.84244                     134.03549                    -333.37229
                    1623.99290                     100.91373                    -284.98837
                    1665.80484                      80.25158                    -251.46154
                    1500.88030                      44.04350                    -183.85316
                    1253.75141                      13.83370                    -120.62116
                    1551.87496                      20.61284                    -144.21578
                    1769.16050                      24.75719                    -162.24101
                    1411.43317                      19.53100                    -129.46109
                    1390.98715                      15.93888                    -125.80689
        </DataArray>
        <DataArray type="Float32" Name="Moment" NumberOfComponents="3" format="ascii">
                       0.00000                       0.00000                       0.00000
                       0.00000                       0.00000                       0.00000
                       0.00000                       0.00000                       0.00000
                       0.00000                       0.00000                       0.00000
                      27.58497                     146.74978                     157.33454
                      55.89503                     305.69032                     327.92950
                      69.18673                     391.88209                     420.69176
                      91.79032                     542.90511                     583.31074
                     118.02667                     735.91165                     791.45901
                     122.44433                     813.79369                     876.20079
                     120.11391                     862.30994                     929.60793
                     115.01510                     903.50804                     975.33833
                      82.16934                     714.48010                     772.34972
                      70.69554                     684.71265                     741.14959
                      60.43500                     648.29483                     702.52004
                      57.24145                     654.29864                     709.48215
                      51.08468                     597.70385                     648.26067
                      26.31801                     307.30292                     333.28967
                      27.48224                     317.26201                     344.05310
        </DataArray>
        <DataArray type="Float32" Name="TranslationalVelocity" NumberOfComponents="3" format="ascii">
                       0.04186                       0.99003                      -0.92809
                      -0.06362                       1.93501                      -1.78597
                      -0.26399                       3.88570                      -3.43677
                      -0.45057                       5.86916                      -5.05900
                      -0.66042                       8.37431                      -7.07343
                      -0.88706                      11.30646                      -9.59946
                      -1.07277                      14.17547                     -12.22836
                      -1.19210                      17.06283                     -14.87393
                      -1.22399                      19.96916                     -17.54080
                      -1.14014                      22.89720                     -20.23148
                      -0.92440                      25.84792                     -22.94428
                      -0.52897                      28.82369                     -25.68515
                       0.07865                      31.82457                     -28.45483
                       0.92026                      34.84963                     -31.25179
                       1.99712                      37.89701                     -34.07171
                       3.04983                      40.44994                     -36.43488
                       3.97238                      42.49318                     -38.33760
                       4.91841                      44.50143                     -40.28442
                       5.39659                      45.53252                     -41.22747
        </DataArray>
        <DataArray type="Float32" Name="RotationalVelocity" NumberOfComponents="3" format="ascii">
                       0.93071                       0.00294                      -0.11285
                       0.93130                       0.00211                      -0.11219
                       0.93294                      -0.00034                      -0.11020
                       0.93510                      -0.00372                      -0.10744
                       0.93857                      -0.00935                      -0.10282
                       0.94347                      -0.01786                      -0.09577
                       0.94895                      -0.02858                      -0.08676
                       0.95512                      -0.04237                      -0.07501
                       0.96215                      -0.06035                      -0.05951
                       0.97006                      -0.08358                      -0.03926
                       0.97876                      -0.11341                      -0.01300
                       0.98783                      -0.14906                       0.01863
                       0.99678                      -0.18927                       0.05453
                       1.00507                      -0.23137                       0.09233
                       1.01204                      -0.27106                       0.12810
                       1.01619                      -0.29735                       0.15188
                       1.01811                      -0.31039                       0.16370
                       1.01893                      -0.31626                       0.16904
                       1.01892                      -0.31617                       0.16896
        </DataArray>
        <DataArray type="Float32" Name="TranslationalAcceleration" NumberOfComponents="3" format="ascii">
                       0.85832                       0.82537                       1.03655
                       0.92266                       1.69773                       1.86695
                       1.04719                       3.36598                       3.60698
                       1.14412                       4.94722                       5.43648
                       1.20122                       6.79805                       7.85136
                       1.13458                       8.94199                      10.85786
                       0.88318                      10.98073                      14.04506
                       0.44116                      12.82821                      17.49251
                      -0.14557                      14.50096                      21.18654
                      -0.77141                      16.02429                      25.10187
                      -1.30052                      17.43915                      29.19167
                      -1.53512                      18.77002                      33.44737
                      -1.25480                      20.05858                      37.84863
                      -0.25281                      21.34687                      42.38533
                       1.61696                      22.67181                      47.05131
                       3.84542                      23.81842                      51.02429
                       6.04860                      24.77471                      54.24132
                       8.54237                      25.80629                      57.44401
                       9.80824                      26.27692                      59.05419
        </DataArray>
        <DataArray type="Float32" Name="OrientationX" NumberOfComponents="3" format="ascii">
                       0.94255                       0.14064                      -0.30303
                       0.94260                       0.14092                      -0.30273
                       0.94275                       0.14169                      -0.30190
                       0.94295                       0.14274                      -0.30078
                       0.94328                       0.14447                      -0.29891
                       0.95307                       0.12389                      -0.27625
                       0.95973                       0.11019                      -0.25840
                       0.96528                       0.09906                      -0.24172
                       0.97073                       0.08754                      -0.22366
                       0.97590                       0.07604                      -0.20453
                       0.98043                       0.06588                      -0.18550
                       0.98450                       0.05614                      -0.16613
                       0.98785                       0.04791                      -0.14782
                       0.99024                       0.04273                      -0.13268
                       0.99226                       0.03691                      -0.11856
                       0.99366                       0.03082                      -0.10809
                       0.99452                       0.02526                      -0.10145
                       0.99490                       0.02171                      -0.09852
                       0.99486                       0.02127                      -0.09902
        </DataArray>
        <DataArray type="Float32" Name="OrientationY" NumberOfComponents="3" format="ascii">
                       0.30688                      -0.72298                       0.61897
                       0.30685                      -0.72314                       0.61880
                       0.30677                      -0.72353                       0.61838
                       0.30668                      -0.72402                       0.61785
                       0.30654                      -0.72475                       0.61707
                       0.27610                      -0.73003                       0.62516
                       0.25391                      -0.73377                       0.63016
                       0.23439                      -0.73693                       0.63403
                       0.21369                      -0.73993                       0.63784
                       0.19230                      -0.74269                       0.64143
                       0.17200                      -0.74503                       0.64447
                       0.15181                      -0.74708                       0.64717
                       0.13346                      -0.74876                       0.64926
                       0.11953                      -0.75001                       0.65053
                       0.10580                      -0.75106                       0.65170
                       0.09431                      -0.75174                       0.65267
                       0.08576                      -0.75213                       0.65341
                       0.08116                      -0.75229                       0.65381
                       0.08115                      -0.75229                       0.65381
        </DataArray>
        <DataArray type="Float32" Name="OrientationZ" NumberOfComponents="3" format="ascii">
                      -0.13203                      -0.67641                      -0.72460
                      -0.13171                      -0.67618                      -0.72487
                      -0.13082                      -0.67559                      -0.72558
                      -0.12958                      -0.67485                      -0.72649
                      -0.12749                      -0.67369                      -0.72793
                      -0.12422                      -0.67209                      -0.72997
                      -0.12017                      -0.67040                      -0.73221
                      -0.11532                      -0.66867                      -0.73456
                      -0.10965                      -0.66696                      -0.73698
                      -0.10313                      -0.66531                      -0.73941
                      -0.09575                      -0.66377                      -0.74178
                      -0.08778                      -0.66236                      -0.74403
                      -0.07958                      -0.66111                      -0.74606
                      -0.07171                      -0.66004                      -0.74780
                      -0.06499                      -0.65920                      -0.74915
                      -0.06114                      -0.65873                      -0.74989
                      -0.05979                      -0.65853                      -0.75017
                      -0.05992                      -0.65847                      -0.75022
                      -0.06058                      -0.65849                      -0.75015
        </DataArray>
      </PointData>
      <Lines>
        <DataArray type="Int32" Name="connectivity" format="ascii">
      0      1
      1      2
      2      3
      3      4
      4      5
      5      6
      6      7
      7      8
      8      9
      9     10
     10     11
     11     12
     12     13
     13     14
     14     15
     15     16
     16     17
     17     18
        </DataArray>
        <DataArray type="Int32" Name="offsets" format="ascii">
      2
      4
      6
      8
     10
     12
     14
     16
     18
     20
     22
     24
     26
     28
     30
     32
     34
     36
        </DataArray>
      </Lines>
    </Piece>
  </PolyData>
</VTKFile>
