<?xml version="1.0"?>
<VTKFile type="PolyData" version="0.1" byte_order="LittleEndian">
  <PolyData>
    <Piece NumberOfPoints="     19" NumberOfVerts="  0" NumberOfLines="     18"
           NumberOfStrips="  0" NumberOfPolys="      0">
      <Points>
        <DataArray type="Float32" NumberOfComponents="3" format="ascii">
                       2.49896                       1.31278                      89.47852
                       2.37151                       2.54061                      88.89196
                       2.10526                       5.03704                      87.80619
                       1.83707                       7.55307                      86.76142
                       1.50650                      10.71044                      85.47953
                       1.16195                      14.43926                      83.80572
                       0.84765                      18.11288                      82.01144
                       0.55520                      21.78653                      80.21352
                       0.29290                      25.45960                      78.40981
                       0.06776                      29.13296                      76.60177
                      -0.11776                      32.80792                      74.79258
                      -0.25002                      36.48343                      72.97992
                      -0.32183                      40.15851                      71.16308
                      -0.32929                      43.83196                      69.34158
                      -0.27189                      47.50260                      67.51529
                      -0.18223                      50.55897                      65.99016
                      -0.09044                      52.99905                      64.76134
                       0.00075                      55.41475                      63.48287
                       0.05022                      56.64072                      62.88098
        </DataArray>
      </Points>
      <PointData>
        <DataArray type="Float32" Name="Force" NumberOfComponents="3" format="ascii">
                      -0.03178                      -0.13635                      -0.27668
                      67.78215                      -3.96323                     -22.83780
                      81.59852                     -16.23089                     -51.06681
                      71.01568                     -25.48531                     -67.74303
                     802.52621                     177.46165                     206.72073
                    1066.00262                     209.51413                     230.46750
                    1218.90749                     199.21352                     194.34610
                    1534.26984                     208.89932                     180.50784
                    1653.04321                     182.19889                     136.06909
                    1882.38230                     163.86723                     107.47519
                    2291.77985                     145.84655                      84.06239
                    2606.54714                     107.44239                      59.48528
                    3013.31698                      65.70040                      55.33454
                    3275.72848                       3.99102                      40.77681
                    3493.72876                     -62.28567                      24.18911
                    3601.60179                    -114.21098                       0.53910
                    3493.05297                    -142.35342                     -28.11677
                    2539.71071                    -116.13345                     -36.10521
                    1187.88730                     -97.95259                    -105.44067
        </DataArray>
        <DataArray type="Float32" Name="Moment" NumberOfComponents="3" format="ascii">
                       0.00000                       0.00000                       0.00000
                       0.00000                       0.00000                       0.00000
                       0.00000                       0.00000                       0.00000
                       0.00000                       0.00000                       0.00000
                      22.09718                    -227.65971                     109.65181
                      30.84165                    -334.17406                     161.13728
                      40.40983                    -467.45517                     225.71869
                      52.73206                    -665.40014                     321.84983
                      62.59789                    -890.17376                     431.48410
                      60.68782                   -1023.30501                     497.30988
                      49.69018                   -1085.98095                     529.45930
                      34.82680                   -1158.85968                     567.08057
                      13.43098                   -1050.85984                     516.31600
                      -5.15529                   -1047.16957                     516.63201
                     -21.51889                   -1012.33650                     501.34573
                     -30.48521                    -959.09251                     476.13710
                     -31.14103                    -847.31390                     421.12848
                     -16.36328                    -423.28066                     210.46985
                     -13.74651                    -358.66639                     178.32774
        </DataArray>
        <DataArray type="Float32" Name="TranslationalVelocity" NumberOfComponents="3" format="ascii">
                      -0.06056                       0.58786                       1.23940
                       0.07370                       1.14691                       2.38046
                       0.34552                       2.18448                       4.69920
                       0.61764                       3.18260                       7.03223
                       0.95578                       4.40475                       9.95288
                       1.34983                       5.98642                      13.39109
                       1.73018                       7.66917                      16.76526
                       2.10169                       9.34576                      20.12628
                       2.46660                      11.01773                      23.47406
                       2.83000                      12.68374                      26.81011
                       3.19820                      14.34186                      30.13748
                       3.58005                      15.99282                      33.45472
                       3.98517                      17.63657                      36.76160
                       4.42241                      19.27271                      40.05778
                       4.89774                      20.90061                      43.34331
                       5.32291                      22.25121                      46.07407
                       5.68066                      23.33461                      48.25160
                       6.04749                      24.46116                      50.40603
                       6.23403                      24.99046                      51.49934
        </DataArray>
        <DataArray type="Float32" Name="RotationalVelocity" NumberOfComponents="3" format="ascii">
                       0.93052                      -0.00622                      -0.10659
                       0.92997                      -0.00618                      -0.10639
                       0.92862                      -0.00609                      -0.10589
                       0.92695                      -0.00594                      -0.10523
                       0.92441                      -0.00566                      -0.10410
                       0.92095                      -0.00514                      -0.10226
                       0.91733                      -0.00451                      -0.10017
                       0.91376                      -0.00397                      -0.09828
                       0.91036                      -0.00376                      -0.09711
                       0.90718                      -0.00414                      -0.09720
                       0.90425                      -0.00541                      -0.09921
                       0.90148                      -0.00763                      -0.10324
                       0.89883                      -0.01079                      -0.10923
                       0.89632                      -0.01470                      -0.11681
                       0.89403                      -0.01896                      -0.12517
                       0.89248                      -0.02228                      -0.13174
                       0.89161                      -0.02439                      -0.13595
                       0.89109                      -0.02594                      -0.13907
                       0.89098                      -0.02647                      -0.14013
        </DataArray>
        <DataArray type="Float32" Name="TranslationalAcceleration" NumberOfComponents="3" format="ascii">
                       1.19405                      -1.09196                       0.45863
                       1.22949                      -2.19931                       0.91624
                       1.28802                      -4.44544                       1.74775
                       1.33182                      -6.70720                       2.51974
                       1.36231                      -9.54422                       3.42087
                       1.37370                     -12.90957                       4.54962
                       1.34136                     -16.24808                       5.70101
                       1.23930                     -19.59960                       6.77076
                       1.05512                     -22.96425                       7.76268
                       0.77641                     -26.34196                       8.68014
                       0.40307                     -29.73080                       9.53308
                      -0.08361                     -33.12814                      10.32137
                      -0.68839                     -36.52936                      11.05118
                      -1.40906                     -39.92959                      11.72831
                      -2.23321                     -43.32485                      12.35883
                      -2.97965                     -46.14998                      12.85539
                      -3.60056                     -48.40701                      13.24492
                      -4.21144                     -50.65897                      13.67465
                      -4.52111                     -51.79060                      13.85415
        </DataArray>
        <DataArray type="Float32" Name="OrientationX" NumberOfComponents="3" format="ascii">
                       0.98734                       0.13926                       0.07596
                       0.98738                       0.13887                       0.07615
                       0.98749                       0.13775                       0.07668
                       0.98765                       0.13622                       0.07742
                       0.98790                       0.13367                       0.07865
                       0.99186                       0.11636                       0.05180
                       0.99424                       0.10185                       0.03335
                       0.99601                       0.08741                       0.01805
                       0.99747                       0.07101                       0.00242
                       0.99853                       0.05260                      -0.01293
                       0.99913                       0.03259                      -0.02620
                       0.99920                       0.01090                      -0.03843
                       0.99877                      -0.01123                      -0.04828
                       0.99804                      -0.03173                      -0.05391
                       0.99690                      -0.05098                      -0.05985
                       0.99573                      -0.06452                      -0.06604
                       0.99480                      -0.07227                      -0.07177
                       0.99429                      -0.07581                      -0.07513
                       0.99430                      -0.07554                      -0.07526
        </DataArray>
        <DataArray type="Float32" Name="OrientationY" NumberOfComponents="3" format="ascii">
                       0.12824                      -0.41890                      -0.89893
                       0.12825                      -0.41899                      -0.89889
                       0.12827                      -0.41921                      -0.89878
                       0.12830                      -0.41947                      -0.89866
                       0.12834                      -0.41988                      -0.89846
                       0.09681                      -0.42443                      -0.90027
                       0.07401                      -0.42752                      -0.90097
                       0.05407                      -0.43001                      -0.90120
                       0.03296                      -0.43226                      -0.90114
                       0.01120                      -0.43415                      -0.90077
                      -0.00939                      -0.43555                      -0.90012
                      -0.02982                      -0.43646                      -0.89923
                      -0.04834                      -0.43686                      -0.89823
                      -0.06236                      -0.43690                      -0.89735
                      -0.07614                      -0.43659                      -0.89643
                      -0.08765                      -0.43607                      -0.89563
                      -0.09621                      -0.43554                      -0.89501
                      -0.10078                      -0.43522                      -0.89467
                      -0.10079                      -0.43522                      -0.89467
        </DataArray>
        <DataArray type="Float32" Name="OrientationZ" NumberOfComponents="3" format="ascii">
                      -0.09337                       0.89729                      -0.43146
                      -0.09292                       0.89731                      -0.43151
                      -0.09166                       0.89738                      -0.43163
                      -0.08994                       0.89749                      -0.43177
                      -0.08708                       0.89768                      -0.43196
                      -0.08278                       0.89795                      -0.43223
                      -0.07751                       0.89825                      -0.43259
                      -0.07101                       0.89858                      -0.43302
                      -0.06295                       0.89895                      -0.43351
                      -0.05299                       0.89930                      -0.43411
                      -0.04075                       0.89958                      -0.43486
                      -0.02657                       0.89966                      -0.43578
                      -0.01100                       0.89946                      -0.43687
                       0.00492                       0.89895                      -0.43802
                       0.01957                       0.89821                      -0.43912
                       0.02899                       0.89760                      -0.43987
                       0.03342                       0.89726                      -0.44023
                       0.03512                       0.89713                      -0.44037
                       0.03483                       0.89715                      -0.44035
        </DataArray>
      </PointData>
      <Lines>
        <DataArray type="Int32" Name="connectivity" format="ascii">
      0      1
      1      2
      2      3
      3      4
      4      5
      5      6
      6      7
      7      8
      8      9
      9     10
     10     11
     11     12
     12     13
     13     14
     14     15
     15     16
     16     17
     17     18
        </DataArray>
        <DataArray type="Int32" Name="offsets" format="ascii">
      2
      4
      6
      8
     10
     12
     14
     16
     18
     20
     22
     24
     26
     28
     30
     32
     34
     36
        </DataArray>
      </Lines>
    </Piece>
  </PolyData>
</VTKFile>
