<?xml version="1.0"?>
<VTKFile type="PolyData" version="0.1" byte_order="LittleEndian">
  <PolyData>
    <Piece NumberOfPoints="     17" NumberOfVerts="  0" NumberOfLines="      0"
           NumberOfStrips="  0" NumberOfPolys="      0">
      <Points>
        <DataArray type="Float32" NumberOfComponents="3" format="ascii">
                       2.84188                       3.27337                      89.76418
                       2.63970                       6.86369                      89.36911
                       2.44456                      10.45387                      88.96931
                       2.25907                      14.04391                      88.56367
                       2.08529                      17.63378                      88.15143
                       1.92539                      21.22348                      87.73212
                       1.78215                      24.81301                      87.30551
                       1.65923                      28.40242                      86.87159
                       1.56110                      31.99169                      86.43035
                       1.49285                      35.58072                      85.98172
                       1.45975                      39.16929                      85.52555
                       1.46661                      42.75700                      85.06159
                       1.51689                      46.34333                      84.58969
                       1.61167                      49.92773                      84.10992
                       1.74829                      53.50982                      83.62288
                       1.91892                      57.08969                      83.12991
                       2.10880                      60.66816                      82.63352
        </DataArray>
      </Points>
      <PointData>
        <DataArray type="Float32" Name="Force" NumberOfComponents="3" format="ascii">
                     149.81303                       0.85419                     -70.22059
                     487.89742                      -0.35418                    -245.10092
                    2013.82543                     150.96129                     431.69862
                    3530.30434                     267.13922                     868.97777
                    2134.91071                     147.26125                     452.60135
                    4471.27501                     268.78967                     737.47386
                    5165.45473                     256.33867                     610.87218
                    5413.90710                     206.76572                     410.70033
                    5463.30187                     143.84384                     225.65001
                    6429.64363                      85.19636                      55.79890
                    6703.10621                      -9.72606                    -147.89351
                    6873.17502                    -116.19207                    -324.40627
                    3525.24387                    -101.99604                    -235.91076
                    6096.15498                    -252.58581                    -538.46267
                    4804.07778                    -267.31538                    -544.92617
                    6050.76844                    -410.16328                    -808.17481
                    3368.16642                    -240.31043                    -446.11734
        </DataArray>
        <DataArray type="Float32" Name="Moment" NumberOfComponents="3" format="ascii">
                     -19.51834                       1.24248                     -16.01788
                      66.31398                      24.45578                    -360.04809
                     562.72636                     165.19968                   -2131.14623
                     658.18799                     512.97425                   -2934.33532
                       4.18509                     351.81564                    -260.14394
                    -503.12076                     623.90621                    2151.48795
                    -295.65093                       2.46841                    1507.87431
                    -114.25157                    -994.79707                     372.93357
                     -67.83761                   -1403.64898                    -194.55680
                     -92.95688                   -1756.19865                    -699.55328
                    -152.37524                   -2196.47315                   -2108.77141
                    -290.53701                   -2062.20587                   -3821.40041
                     -14.22945                    -750.84364                     414.37682
                     299.66516                   -1084.28541                    4726.30700
                     296.11760                   -1252.13279                    3700.23601
                    -126.49121                   -2188.35099                     282.11991
                    -151.50927                    -756.88393                    -768.96756
        </DataArray>
      </PointData>
    </Piece>
  </PolyData>
</VTKFile>
