<?xml version="1.0"?>
<VTKFile type="PolyData" version="0.1" byte_order="LittleEndian">
  <PolyData>
    <Piece NumberOfPoints="     19" NumberOfVerts="  0" NumberOfLines="     18"
           NumberOfStrips="  0" NumberOfPolys="      0">
      <Points>
        <DataArray type="Float32" NumberOfComponents="3" format="ascii">
                       2.33445                       2.96835                      88.76698
                       2.01087                       6.25092                      87.28127
                       1.69540                       9.53392                      85.79473
                       1.39117                      12.81753                      84.30724
                       1.10072                      16.10188                      82.81860
                       0.82684                      19.38701                      81.32856
                       0.57296                      22.67302                      79.83695
                       0.34346                      25.96001                      78.34357
                       0.14361                      29.24803                      76.84820
                      -0.02066                      32.53692                      75.35046
                      -0.14325                      35.82634                      73.84992
                      -0.21869                      39.11565                      72.34608
                      -0.24308                      42.40403                      70.83850
                      -0.21539                      45.69060                      69.32697
                      -0.13890                      48.97470                      67.81165
                      -0.02301                      52.25625                      66.29314
                       0.11483                      55.53615                      64.77277
                       0.18648                      57.17587                      64.01235
                       2.49783                       1.32713                      89.50965
        </DataArray>
      </Points>
      <PointData>
        <DataArray type="Float32" Name="TranslationalVelocity" NumberOfComponents="3" format="ascii">
                       0.14775                       1.26730                       2.77420
                       0.50330                       2.67945                       5.81681
                       0.85539                       4.08755                       8.85185
                       1.20239                       5.49033                      11.87750
                       1.54267                       6.88709                      14.89271
                       1.87526                       8.27755                      17.89714
                       2.20042                       9.66165                      20.89092
                       2.51983                      11.03949                      23.87453
                       2.83666                      12.41132                      26.84853
                       3.15540                      13.77739                      29.81340
                       3.48154                      15.13795                      32.76939
                       3.82106                      16.49305                      35.71648
                       4.17978                      17.84259                      38.65451
                       4.56249                      19.18631                      41.58343
                       4.97192                      20.52415                      44.50365
                       5.40754                      21.85666                      47.41644
                       5.86418                      23.18559                      50.32450
                       6.09677                      23.84946                      51.77779
                      -0.03069                       0.56039                       1.25128
        </DataArray>
        <DataArray type="Float32" Name="RotationalVelocity" NumberOfComponents="3" format="ascii">
                       0.92853                      -0.00607                      -0.10598
                       0.92645                      -0.00593                      -0.10521
                       0.92361                      -0.00568                      -0.10403
                       0.92028                      -0.00526                      -0.10237
                       0.91672                      -0.00470                      -0.10033
                       0.91312                      -0.00408                      -0.09817
                       0.90962                      -0.00357                      -0.09626
                       0.90628                      -0.00332                      -0.09497
                       0.90316                      -0.00349                      -0.09467
                       0.90024                      -0.00424                      -0.09566
                       0.89749                      -0.00564                      -0.09816
                       0.89488                      -0.00773                      -0.10220
                       0.89241                      -0.01044                      -0.10764
                       0.89010                      -0.01360                      -0.11412
                       0.88808                      -0.01690                      -0.12095
                       0.88652                      -0.01987                      -0.12717
                       0.88573                      -0.02187                      -0.13143
                       0.88558                      -0.02254                      -0.13288
                       0.92934                      -0.00612                      -0.10627
        </DataArray>
        <DataArray type="Float32" Name="TranslationalAcceleration" NumberOfComponents="3" format="ascii">
                       1.23375                      -2.57762                       1.08238
                       1.30379                      -5.51814                       2.22860
                       1.36386                      -8.45907                       3.33464
                       1.40963                     -11.40056                       4.39020
                       1.43666                     -14.34270                       5.38935
                       1.43779                     -17.28601                       6.32961
                       1.40190                     -20.23143                       7.21084
                       1.31313                     -23.18007                       8.03465
                       1.15074                     -26.13266                       8.80413
                       0.89010                     -29.08894                       9.52333
                       0.50461                     -32.04707                      10.19691
                      -0.03143                     -35.00337                      10.82969
                      -0.73897                     -37.95265                      11.42632
                      -1.62938                     -40.88930                      11.99121
                      -2.69856                     -43.80911                      12.52923
                      -3.92007                     -46.71168                      13.04692
                      -5.23720                     -49.60327                      13.55358
                      -5.91044                     -51.04760                      13.80551
                       1.19689                      -1.10743                       0.50082
        </DataArray>
        <DataArray type="Float32" Name="RotationalAcceleration" NumberOfComponents="3" format="ascii">
                      -0.04735                       0.01129                       0.01249
                      -0.05576                       0.01136                       0.01451
                      -0.06725                       0.01174                       0.01789
                      -0.08065                       0.01234                       0.02218
                      -0.09504                       0.01346                       0.02784
                      -0.10977                       0.01557                       0.03577
                      -0.12441                       0.01921                       0.04706
                      -0.13856                       0.02499                       0.06297
                      -0.15183                       0.03347                       0.08465
                      -0.16384                       0.04502                       0.11285
                      -0.17426                       0.05975                       0.14771
                      -0.18277                       0.07738                       0.18855
                      -0.18924                       0.09710                       0.23358
                      -0.19367                       0.11753                       0.27972
                      -0.19617                       0.13657                       0.32236
                      -0.19705                       0.15131                       0.35512
                      -0.19692                       0.15787                       0.36961
                      -0.19670                       0.15857                       0.37110
                      -0.04409                       0.01137                       0.01194
        </DataArray>
        <DataArray type="Float32" Name="OrientationX" NumberOfComponents="3" format="ascii">
                       0.98774                       0.13431                       0.07953
                       0.98790                       0.13275                       0.08024
                       0.98813                       0.13029                       0.08135
                       0.99003                       0.12185                       0.07067
                       0.99343                       0.10560                       0.04418
                       0.99513                       0.09389                       0.03013
                       0.99657                       0.08108                       0.01633
                       0.99778                       0.06658                       0.00215
                       0.99866                       0.05051                      -0.01160
                       0.99916                       0.03321                      -0.02388
                       0.99927                       0.01452                      -0.03521
                       0.99897                      -0.00501                      -0.04508
                       0.99838                      -0.02382                      -0.05158
                       0.99752                      -0.04175                      -0.05673
                       0.99634                      -0.05817                      -0.06256
                       0.99501                      -0.07134                      -0.06976
                       0.99413                      -0.07734                      -0.07571
                       0.99389                      -0.07804                      -0.07808
                       0.98769                       0.13483                       0.07930
        </DataArray>
        <DataArray type="Float32" Name="OrientationY" NumberOfComponents="3" format="ascii">
                       0.12731                      -0.39837                      -0.90835
                       0.12734                      -0.39871                      -0.90819
                       0.12739                      -0.39917                      -0.90798
                       0.11427                      -0.40140                      -0.90875
                       0.08358                      -0.40551                      -0.91026
                       0.06606                      -0.40787                      -0.91065
                       0.04828                      -0.41004                      -0.91079
                       0.02945                      -0.41201                      -0.91070
                       0.01035                      -0.41368                      -0.91036
                      -0.00795                      -0.41497                      -0.90980
                      -0.02599                      -0.41588                      -0.90905
                      -0.04307                      -0.41639                      -0.90817
                      -0.05682                      -0.41657                      -0.90733
                      -0.06899                      -0.41648                      -0.90652
                      -0.08116                      -0.41612                      -0.90568
                      -0.09322                      -0.41549                      -0.90481
                      -0.10115                      -0.41494                      -0.90421
                      -0.10359                      -0.41475                      -0.90402
                       0.12729                      -0.39823                      -0.90841
        </DataArray>
        <DataArray type="Float32" Name="OrientationZ" NumberOfComponents="3" format="ascii">
                      -0.09032                       0.90734                      -0.41058
                      -0.08857                       0.90742                      -0.41079
                      -0.08583                       0.90757                      -0.41103
                      -0.08237                       0.90776                      -0.41132
                      -0.07821                       0.90797                      -0.41167
                      -0.07321                       0.90820                      -0.41209
                      -0.06715                       0.90846                      -0.41255
                      -0.05975                       0.90874                      -0.41306
                      -0.05078                       0.90902                      -0.41365
                      -0.04013                       0.90923                      -0.41436
                      -0.02784                       0.90931                      -0.41520
                      -0.01422                       0.90917                      -0.41617
                       0.00012                       0.90879                      -0.41725
                       0.01422                       0.90818                      -0.41833
                       0.02666                       0.90745                      -0.41932
                       0.03556                       0.90680                      -0.42007
                       0.03851                       0.90655                      -0.42033
                       0.03816                       0.90658                      -0.42030
                      -0.09090                       0.90732                      -0.41049
        </DataArray>
      </PointData>
      <Lines>
        <DataArray type="Int32" Name="connectivity" format="ascii">
      0      1
      1      2
      2      3
      3      4
      4      5
      5      6
      6      7
      7      8
      8      9
      9     10
     10     11
     11     12
     12     13
     13     14
     14     15
     15     16
     16     17
     18      0
        </DataArray>
        <DataArray type="Int32" Name="offsets" format="ascii">
      2
      4
      6
      8
     10
     12
     14
     16
     18
     20
     22
     24
     26
     28
     30
     32
     34
     36
        </DataArray>
      </Lines>
    </Piece>
  </PolyData>
</VTKFile>
