<?xml version="1.0"?>
<VTKFile type="PolyData" version="0.1" byte_order="LittleEndian">
  <PolyData>
    <Piece NumberOfPoints="     19" NumberOfVerts="  0" NumberOfLines="     18"
           NumberOfStrips="  0" NumberOfPolys="      0">
      <Points>
        <DataArray type="Float32" NumberOfComponents="3" format="ascii">
                       2.71156                       0.78514                      88.89792
                       2.51288                       1.52235                      87.76437
                       2.10069                       3.07568                      85.55092
                       1.68482                       4.66563                      83.36148
                       1.16836                       6.67413                      80.63695
                       0.60539                       8.96226                      77.27875
                       0.07658                      11.13783                      73.84259
                      -0.43176                      13.30783                      70.39986
                      -0.91203                      15.47114                      66.94899
                      -1.35825                      17.62982                      63.49077
                      -1.76870                      19.78752                      60.02768
                      -2.13118                      21.94284                      56.55790
                      -2.43952                      24.09554                      53.08139
                      -2.69044                      26.24519                      49.59850
                      -2.88344                      28.39143                      46.10993
                      -3.00702                      30.17741                      43.19941
                      -3.08788                      31.59801                      40.86534
                      -3.16806                      32.97147                      38.50196
                      -3.20593                      33.69352                      37.34226
        </DataArray>
      </Points>
      <PointData>
        <DataArray type="Float32" Name="Force" NumberOfComponents="3" format="ascii">
                      -0.04028                      -0.52097                      -0.33002
                      62.84489                     -10.53592                     -17.78056
                      81.88435                     -34.92997                     -36.75150
                      74.04344                     -52.10334                     -46.33901
                     773.97551                     281.62329                      52.55788
                     963.08311                     302.10334                      39.00911
                    1140.71625                     303.41825                      17.99458
                    1476.03822                     338.23531                      -0.94101
                    1626.55274                     314.19080                     -24.14320
                    1878.71057                     309.66486                     -41.58457
                    2304.28124                     316.58146                     -60.96905
                    2638.16404                     299.61017                     -69.76498
                    3051.28115                     293.59718                     -63.61992
                    3333.03512                     257.67995                     -53.08431
                    3572.51181                     214.05139                     -40.80752
                    3698.40214                     169.86027                     -38.22051
                    3595.43628                     124.54783                     -46.15408
                    2593.03376                      67.16500                     -43.15419
                    1178.73982                     -61.35438                     -78.47480
        </DataArray>
        <DataArray type="Float32" Name="Moment" NumberOfComponents="3" format="ascii">
                       0.00000                       0.00000                       0.00000
                       0.00000                       0.00000                       0.00000
                       0.00000                       0.00000                       0.00000
                       0.00000                       0.00000                       0.00000
                      45.33925                    -175.18051                     271.00494
                      61.91909                    -246.70495                     381.88933
                      74.81451                    -309.72385                     479.79664
                      96.57583                    -419.64085                     650.65490
                     119.61156                    -553.23663                     858.73683
                     123.03543                    -617.54930                     959.84264
                     114.80112                    -642.85637                    1000.79741
                     104.71108                    -676.37065                    1054.93457
                      79.53339                    -617.46066                     965.01280
                      62.58724                    -612.07638                     958.58174
                      45.74504                    -587.68470                     922.13296
                      34.48217                    -554.70267                     871.44247
                      26.94009                    -491.43847                     772.49447
                      12.83093                    -246.42688                     387.44234
                      11.08662                    -210.70467                     331.26430
        </DataArray>
        <DataArray type="Float32" Name="TranslationalVelocity" NumberOfComponents="3" format="ascii">
                      -0.53216                       1.20996                       0.70830
                      -0.43301                       2.27849                       1.38584
                      -0.22676                       4.36624                       2.81240
                      -0.01721                       6.42758                       4.26894
                       0.24574                       8.98425                       6.10221
                       0.54637                      12.11323                       8.18070
                       0.83170                      15.29153                      10.14567
                       1.11229                      18.45482                      12.09483
                       1.38958                      21.60423                      14.02755
                       1.66717                      24.73960                      15.94621
                       1.94954                      27.86148                      17.85557
                       2.24300                      30.97009                      19.75394
                       2.55436                      34.06616                      21.64185
                       2.88988                      37.15028                      23.51991
                       3.25374                      40.22302                      25.38920
                       3.57843                      42.77624                      26.94156
                       3.85067                      44.81854                      28.17483
                       4.12651                      46.88511                      29.36623
                       4.26891                      47.89886                      29.99271
        </DataArray>
        <DataArray type="Float32" Name="RotationalVelocity" NumberOfComponents="3" format="ascii">
                       0.92369                      -0.01428                      -0.11263
                       0.92292                      -0.01430                      -0.11251
                       0.92101                      -0.01434                      -0.11220
                       0.91867                      -0.01436                      -0.11180
                       0.91510                      -0.01431                      -0.11114
                       0.91022                      -0.01403                      -0.11011
                       0.90509                      -0.01358                      -0.10892
                       0.89997                      -0.01322                      -0.10779
                       0.89506                      -0.01330                      -0.10699
                       0.89048                      -0.01416                      -0.10674
                       0.88629                      -0.01622                      -0.10734
                       0.88247                      -0.01957                      -0.10884
                       0.87900                      -0.02417                      -0.11121
                       0.87592                      -0.02978                      -0.11430
                       0.87333                      -0.03583                      -0.11776
                       0.87170                      -0.04050                      -0.12050
                       0.87088                      -0.04344                      -0.12226
                       0.87047                      -0.04559                      -0.12357
                       0.87043                      -0.04630                      -0.12402
        </DataArray>
        <DataArray type="Float32" Name="TranslationalAcceleration" NumberOfComponents="3" format="ascii">
                       0.04525                      -0.95559                       0.99815
                       0.14668                      -1.64474                       1.95306
                       0.33503                      -3.06879                       3.82873
                       0.49943                      -4.45804                       5.72623
                       0.66630                      -6.09718                       8.16672
                       0.81172                      -7.76520                      11.27678
                       0.88636                      -9.08692                      14.56231
                       0.89695                     -10.14517                      17.97147
                       0.88109                     -10.93587                      21.49823
                       0.90079                     -11.46490                      25.13164
                       1.02026                     -11.76980                      28.84914
                       1.33904                     -11.83931                      32.64804
                       1.95418                     -11.69726                      36.51405
                       2.94871                     -11.37587                      40.43427
                       4.37052                     -10.91558                      44.39745
                       5.86732                     -10.45997                      47.72355
                       7.24799                     -10.05811                      50.39279
                       8.72759                      -9.59316                      53.05291
                       9.47993                      -9.40230                      54.38864
        </DataArray>
        <DataArray type="Float32" Name="OrientationX" NumberOfComponents="3" format="ascii">
                       0.97572                       0.21690                      -0.03044
                       0.97578                       0.21668                      -0.03011
                       0.97594                       0.21607                      -0.02915
                       0.97617                       0.21523                      -0.02785
                       0.97653                       0.21383                      -0.02568
                       0.98182                       0.18555                      -0.04002
                       0.98527                       0.16395                      -0.04863
                       0.98806                       0.14408                      -0.05466
                       0.99066                       0.12243                      -0.06005
                       0.99298                       0.09928                      -0.06429
                       0.99492                       0.07598                      -0.06610
                       0.99645                       0.05186                      -0.06631
                       0.99751                       0.02868                      -0.06438
                       0.99817                       0.00912                      -0.05975
                       0.99839                      -0.00962                      -0.05594
                       0.99821                      -0.02393                      -0.05489
                       0.99787                      -0.03333                      -0.05607
                       0.99764                      -0.03802                      -0.05724
                       0.99763                      -0.03786                      -0.05749
        </DataArray>
        <DataArray type="Float32" Name="OrientationY" NumberOfComponents="3" format="ascii">
                       0.16381                      -0.81492                      -0.55593
                       0.16386                      -0.81509                      -0.55569
                       0.16396                      -0.81548                      -0.55507
                       0.16409                      -0.81597                      -0.55432
                       0.16429                      -0.81671                      -0.55317
                       0.13330                      -0.82409                      -0.55055
                       0.11093                      -0.82917                      -0.54788
                       0.09136                      -0.83333                      -0.54518
                       0.07059                      -0.83719                      -0.54234
                       0.04912                      -0.84059                      -0.53944
                       0.02875                      -0.84330                      -0.53667
                       0.00847                      -0.84544                      -0.53401
                      -0.00996                      -0.84691                      -0.53164
                      -0.02397                      -0.84779                      -0.52979
                      -0.03777                      -0.84828                      -0.52820
                      -0.04932                      -0.84836                      -0.52711
                      -0.05791                      -0.84824                      -0.52644
                      -0.06251                      -0.84812                      -0.52610
                      -0.06251                      -0.84812                      -0.52610
        </DataArray>
        <DataArray type="Float32" Name="OrientationZ" NumberOfComponents="3" format="ascii">
                      -0.14539                       0.53745                      -0.83067
                      -0.14495                       0.53729                      -0.83085
                      -0.14371                       0.53694                      -0.83129
                      -0.14203                       0.53654                      -0.83184
                      -0.13926                       0.53597                      -0.83267
                      -0.13514                       0.53521                      -0.83384
                      -0.13015                       0.53442                      -0.83514
                      -0.12410                       0.53367                      -0.83654
                      -0.11667                       0.53304                      -0.83801
                      -0.10760                       0.53250                      -0.83956
                      -0.09652                       0.53204                      -0.84120
                      -0.08375                       0.53155                      -0.84288
                      -0.06977                       0.53096                      -0.84452
                      -0.05549                       0.53025                      -0.84602
                      -0.04237                       0.52947                      -0.84727
                      -0.03396                       0.52887                      -0.84802
                      -0.03002                       0.52857                      -0.84836
                      -0.02855                       0.52843                      -0.84849
                      -0.02884                       0.52845                      -0.84848
        </DataArray>
      </PointData>
      <Lines>
        <DataArray type="Int32" Name="connectivity" format="ascii">
      0      1
      1      2
      2      3
      3      4
      4      5
      5      6
      6      7
      7      8
      8      9
      9     10
     10     11
     11     12
     12     13
     13     14
     14     15
     15     16
     16     17
     17     18
        </DataArray>
        <DataArray type="Int32" Name="offsets" format="ascii">
      2
      4
      6
      8
     10
     12
     14
     16
     18
     20
     22
     24
     26
     28
     30
     32
     34
     36
        </DataArray>
      </Lines>
    </Piece>
  </PolyData>
</VTKFile>
