<?xml version="1.0"?>
<VTKFile type="PolyData" version="0.1" byte_order="LittleEndian">
  <PolyData>
    <Piece NumberOfPoints="     19" NumberOfVerts="  0" NumberOfLines="     18"
           NumberOfStrips="  0" NumberOfPolys="      0">
      <Points>
        <DataArray type="Float32" NumberOfComponents="3" format="ascii">
                       3.28168                      -1.83774                      92.88647
                       3.50121                      -3.83032                      95.89791
                       3.72842                      -5.82533                      98.90717
                       3.96635                      -7.82357                     101.91346
                       4.21760                      -9.82549                     104.91621
                       4.48494                     -11.83131                     107.91496
                       4.77165                     -13.84121                     110.90918
                       5.08171                     -15.85534                     113.89821
                       5.41977                     -17.87374                     116.88131
                       5.79094                     -19.89626                     119.85767
                       6.20037                     -21.92252                     122.82644
                       6.65254                     -23.95189                     125.78687
                       7.15046                     -25.98352                     128.73840
                       7.69454                     -28.01647                     131.68087
                       8.28131                     -30.04987                     134.61487
                       8.90199                     -32.08310                     137.54207
                       9.54075                     -34.11604                     140.46563
                       9.86216                     -35.13247                     141.92699
                       3.17341                      -0.84193                      91.38032
        </DataArray>
      </Points>
      <PointData>
        <DataArray type="Float32" Name="TranslationalVelocity" NumberOfComponents="3" format="ascii">
                       0.13660                      -2.58246                      -1.63732
                      -0.06129                      -5.38731                      -3.47879
                      -0.25700                      -8.19410                      -5.32480
                      -0.44948                     -11.00328                      -7.17680
                      -0.63769                     -13.81513                      -9.03570
                      -0.82079                     -16.62971                     -10.90201
                      -0.99835                     -19.44682                     -12.77605
                      -1.17036                     -22.26609                     -14.65796
                      -1.33730                     -25.08695                     -16.54768
                      -1.50010                     -27.90877                     -18.44490
                      -1.66010                     -30.73087                     -20.34899
                      -1.81891                     -33.55258                     -22.25900
                      -1.97834                     -36.37333                     -24.17369
                      -2.14019                     -39.19268                     -26.09161
                      -2.30608                     -42.01048                     -28.01126
                      -2.47720                     -44.82700                     -29.93126
                      -2.65407                     -47.64295                     -31.85069
                      -2.74396                     -49.05090                     -32.81018
                       0.23597                      -1.18045                      -0.71751
        </DataArray>
        <DataArray type="Float32" Name="RotationalVelocity" NumberOfComponents="3" format="ascii">
                       0.92266                       0.00942                      -0.11403
                       0.92353                       0.00989                      -0.11378
                       0.92475                       0.01064                      -0.11338
                       0.92622                       0.01166                      -0.11281
                       0.92781                       0.01292                      -0.11209
                       0.92944                       0.01435                      -0.11126
                       0.93104                       0.01584                      -0.11039
                       0.93255                       0.01727                      -0.10955
                       0.93393                       0.01854                      -0.10881
                       0.93514                       0.01953                      -0.10824
                       0.93620                       0.02016                      -0.10790
                       0.93708                       0.02036                      -0.10783
                       0.93779                       0.02010                      -0.10805
                       0.93833                       0.01941                      -0.10855
                       0.93871                       0.01833                      -0.10929
                       0.93891                       0.01702                      -0.11017
                       0.93890                       0.01567                      -0.11106
                       0.93884                       0.01502                      -0.11149
                       0.92233                       0.00926                      -0.11412
        </DataArray>
        <DataArray type="Float32" Name="TranslationalAcceleration" NumberOfComponents="3" format="ascii">
                       0.08864                       1.95425                      -1.94704
                      -0.12805                       3.90309                      -4.39320
                      -0.41590                       5.82766                      -6.85859
                      -0.80028                       7.72349                      -9.34619
                      -1.30092                       9.58750                     -11.85711
                      -1.93492                      11.41765                     -14.39067
                      -2.71935                      13.21350                     -16.94377
                      -3.67242                      14.97568                     -19.51103
                      -4.81334                      16.70469                     -22.08528
                      -6.16156                      18.40027                     -24.65794
                      -7.73480                      20.06094                     -27.21939
                      -9.54623                      21.68395                     -29.75982
                     -11.60067                      23.26607                     -32.27026
                     -13.88979                      24.80504                     -34.74423
                     -16.38650                      26.30164                     -37.18020
                     -19.03834                      27.76233                     -39.58460
                     -21.76000                      29.20250                     -41.97428
                     -23.12531                      29.92004                     -43.16825
                       0.18282                       0.97445                      -0.72825
        </DataArray>
        <DataArray type="Float32" Name="RotationalAcceleration" NumberOfComponents="3" format="ascii">
                      -0.07980                       0.05174                      -0.00355
                      -0.07181                       0.03905                      -0.01251
                      -0.06171                       0.01980                      -0.02595
                      -0.05041                      -0.00442                      -0.04276
                      -0.03835                      -0.03269                      -0.06230
                      -0.02620                      -0.06479                      -0.08438
                      -0.01476                      -0.10101                      -0.10913
                      -0.00439                      -0.14168                      -0.13674
                       0.00476                      -0.18700                      -0.16734
                       0.01270                      -0.23690                      -0.20088
                       0.01957                      -0.29073                      -0.23694
                       0.02558                      -0.34704                      -0.27457
                       0.03086                      -0.40339                      -0.31219
                       0.03545                      -0.45611                      -0.34735
                       0.03936                      -0.50006                      -0.37668
                       0.04239                      -0.52846                      -0.39565
                       0.04401                      -0.53263                      -0.39852
                       0.04437                      -0.52745                      -0.39513
                      -0.08312                       0.05620                      -0.00037
        </DataArray>
        <DataArray type="Float32" Name="OrientationX" NumberOfComponents="3" format="ascii">
                       0.95356                      -0.21515                      -0.21080
                       0.95345                      -0.21416                      -0.21229
                       0.95327                      -0.21262                      -0.21462
                       0.95689                      -0.19989                      -0.21074
                       0.96488                      -0.17236                      -0.19823
                       0.96882                      -0.15511                      -0.19320
                       0.97240                      -0.13707                      -0.18880
                       0.97573                      -0.11749                      -0.18478
                       0.97857                      -0.09689                      -0.18167
                       0.98070                      -0.07613                      -0.18011
                       0.98219                      -0.05481                      -0.17973
                       0.98297                      -0.03366                      -0.18068
                       0.98285                      -0.01499                      -0.18379
                       0.98228                       0.00219                      -0.18740
                       0.98168                       0.01846                      -0.18962
                       0.98140                       0.03280                      -0.18916
                       0.98161                       0.04064                      -0.18654
                       0.98188                       0.04236                      -0.18473
                       0.95360                      -0.21548                      -0.21030
        </DataArray>
        <DataArray type="Float32" Name="OrientationY" NumberOfComponents="3" format="ascii">
                       0.29520                       0.80662                       0.51208
                       0.29521                       0.80651                       0.51224
                       0.29522                       0.80637                       0.51245
                       0.28253                       0.80895                       0.51553
                       0.25277                       0.81455                       0.52213
                       0.23571                       0.81726                       0.52586
                       0.21837                       0.81969                       0.52955
                       0.19997                       0.82193                       0.53333
                       0.18128                       0.82382                       0.53709
                       0.16335                       0.82525                       0.54063
                       0.14567                       0.82629                       0.54408
                       0.12892                       0.82692                       0.54734
                       0.11546                       0.82714                       0.55001
                       0.10355                       0.82712                       0.55240
                       0.09162                       0.82692                       0.55481
                       0.07977                       0.82655                       0.55718
                       0.07197                       0.82623                       0.55871
                       0.06955                       0.82613                       0.55917
                       0.29519                       0.80666                       0.51202
        </DataArray>
        <DataArray type="Float32" Name="OrientationZ" NumberOfComponents="3" format="ascii">
                       0.05986                      -0.55053                       0.83267
                       0.06151                      -0.55106                       0.83219
                       0.06411                      -0.55187                       0.83146
                       0.06743                      -0.55285                       0.83055
                       0.07147                      -0.55390                       0.82951
                       0.07633                      -0.55500                       0.82834
                       0.08217                      -0.55616                       0.82700
                       0.08922                      -0.55734                       0.82548
                       0.09763                      -0.55851                       0.82373
                       0.10748                      -0.55961                       0.82176
                       0.11869                      -0.56057                       0.81956
                       0.13098                      -0.56131                       0.81717
                       0.14378                      -0.56180                       0.81469
                       0.15621                      -0.56202                       0.81224
                       0.16704                      -0.56202                       0.81008
                       0.17463                      -0.56191                       0.80856
                       0.17683                      -0.56186                       0.80811
                       0.17630                      -0.56188                       0.80821
                       0.05931                      -0.55034                       0.83283
        </DataArray>
      </PointData>
      <Lines>
        <DataArray type="Int32" Name="connectivity" format="ascii">
      0      1
      1      2
      2      3
      3      4
      4      5
      5      6
      6      7
      7      8
      8      9
      9     10
     10     11
     11     12
     12     13
     13     14
     14     15
     15     16
     16     17
     18      0
        </DataArray>
        <DataArray type="Int32" Name="offsets" format="ascii">
      2
      4
      6
      8
     10
     12
     14
     16
     18
     20
     22
     24
     26
     28
     30
     32
     34
     36
        </DataArray>
      </Lines>
    </Piece>
  </PolyData>
</VTKFile>
