<?xml version="1.0"?>
<VTKFile type="PolyData" version="0.1" byte_order="LittleEndian">
  <PolyData>
    <Piece NumberOfPoints="     17" NumberOfVerts="  0" NumberOfLines="      0"
           NumberOfStrips="  0" NumberOfPolys="      0">
      <Points>
        <DataArray type="Float32" NumberOfComponents="3" format="ascii">
                       2.74445                      -3.31835                      89.93787
                       2.56356                      -6.92432                      89.71068
                       2.39077                     -10.53034                      89.47817
                       2.22936                     -14.13643                      89.23861
                       2.08221                     -17.74258                      88.99089
                       1.95246                     -21.34876                      88.73424
                       1.84386                     -24.95493                      88.46793
                       1.76091                     -28.56100                      88.19123
                       1.70894                     -32.16676                      87.90343
                       1.69379                     -35.77190                      87.60396
                       1.72136                     -39.37594                      87.29250
                       1.79684                     -42.97824                      86.96905
                       1.92376                     -46.57804                      86.63409
                       2.10270                     -50.17466                      86.28857
                       2.32989                     -53.76775                      85.93411
                       2.59543                     -57.35763                      85.57309
                       2.88139                     -60.94565                      85.20875
        </DataArray>
      </Points>
      <PointData>
        <DataArray type="Float32" Name="Force" NumberOfComponents="3" format="ascii">
                     220.05649                     -16.50618                      85.91589
                     701.03580                     -48.31486                     236.24413
                    2244.38146                     -29.99306                   -1114.16712
                    3691.26682                     -34.08831                   -1859.36459
                    2242.61904                     -18.06209                   -1027.83929
                    4871.49795                     -27.84382                   -2031.68656
                    5922.08674                      -7.10985                   -2225.48893
                    6617.30993                      35.03308                   -2239.26510
                    7149.03813                      99.09493                   -2219.97464
                    9083.37988                     220.30863                   -2603.10622
                   10500.11018                     387.48227                   -2802.42293
                   12031.71298                     617.49668                   -3056.18351
                    6912.49150                     431.97140                   -1690.06618
                   13791.78539                    1014.16387                   -3230.69711
                   13288.16641                    1135.17019                   -2948.99784
                   18799.77595                    1772.04522                   -3880.60021
                    7685.01571                     739.67915                   -1421.11477
        </DataArray>
        <DataArray type="Float32" Name="Moment" NumberOfComponents="3" format="ascii">
                     -17.71102                      -5.91870                      26.54430
                     207.99273                    -105.26732                     384.56437
                    1267.14039                    -561.36100                    2228.21998
                    1343.25598                    -782.79357                    2861.56157
                      75.12150                    -226.75385                     220.36377
                   -1077.00881                      31.96179                   -2335.84235
                    -708.82990                     448.07858                   -1575.52616
                    -145.72224                    1107.33445                     -55.80169
                     116.01882                    1161.13331                     760.49046
                     351.18052                     982.66886                    1682.10306
                    1015.26816                     632.86962                    4184.57685
                    1885.08406                    -267.34298                    7560.58389
                    -140.91237                     101.77409                    -491.15879
                   -2315.90776                     868.80148                   -9323.84451
                   -2048.58267                     776.64370                   -8647.01175
                    -477.94605                     205.38121                   -1426.57606
                    -101.45094                     173.69527                     176.97837
        </DataArray>
      </PointData>
    </Piece>
  </PolyData>
</VTKFile>
