<?xml version="1.0"?>
<VTKFile type="PolyData" version="0.1" byte_order="LittleEndian">
  <PolyData>
    <Piece NumberOfPoints="     19" NumberOfVerts="  0" NumberOfLines="     18"
           NumberOfStrips="  0" NumberOfPolys="      0">
      <Points>
        <DataArray type="Float32" NumberOfComponents="3" format="ascii">
                       2.59460                      -1.18219                      87.08533
                       2.02433                      -2.45433                      83.74709
                       1.46455                      -3.72494                      80.40651
                       0.91930                      -4.99339                      77.06270
                       0.39202                      -6.25930                      73.71506
                      -0.11372                      -7.52248                      70.36307
                      -0.59375                      -8.78269                      67.00619
                      -1.04306                     -10.03958                      63.64384
                      -1.45577                     -11.29284                      60.27546
                      -1.82545                     -12.54221                      56.90066
                      -2.14561                     -13.78757                      53.51934
                      -2.41055                     -15.02894                      50.13178
                      -2.61649                     -16.26650                      46.73872
                      -2.76291                     -17.50057                      43.34124
                      -2.85430                     -18.73168                      39.94068
                      -2.90205                     -19.96067                      36.53834
                      -2.92675                     -21.18864                      33.13530
                      -2.93656                     -21.80252                      31.43372
                       2.88178                      -0.54584                      88.75399
        </DataArray>
      </Points>
      <PointData>
        <DataArray type="Float32" Name="TranslationalVelocity" NumberOfComponents="3" format="ascii">
                       0.15087                       2.82616                      -0.99312
                      -0.03730                       5.92503                      -2.14190
                      -0.22984                       9.01526                      -3.28503
                      -0.42890                      12.09460                      -4.42070
                      -0.63663                      15.16167                      -5.54781
                      -0.85525                      18.21577                      -6.66578
                      -1.08689                      21.25670                      -7.77429
                      -1.33352                      24.28458                      -8.87324
                      -1.59701                      27.29967                      -9.96282
                      -1.87898                      30.30221                     -11.04355
                      -2.18065                      33.29233                     -12.11633
                      -2.50262                      36.27001                     -13.18235
                      -2.84460                      39.23520                     -14.24308
                      -3.20509                      42.18808                     -15.30001
                      -3.58091                      45.12957                     -16.35459
                      -3.96687                      48.06192                     -17.40802
                      -4.35516                      50.98934                     -18.46111
                      -4.54874                      52.45248                     -18.98763
                       0.24413                       1.27490                      -0.41759
        </DataArray>
        <DataArray type="Float32" Name="RotationalVelocity" NumberOfComponents="3" format="ascii">
                       0.91010                       0.01259                      -0.11355
                       0.90770                       0.01361                      -0.11353
                       0.90436                       0.01528                      -0.11359
                       0.90039                       0.01754                      -0.11376
                       0.89609                       0.02039                      -0.11411
                       0.89166                       0.02383                      -0.11466
                       0.88723                       0.02779                      -0.11540
                       0.88290                       0.03225                      -0.11635
                       0.87876                       0.03714                      -0.11750
                       0.87488                       0.04237                      -0.11883
                       0.87131                       0.04781                      -0.12028
                       0.86810                       0.05325                      -0.12180
                       0.86530                       0.05842                      -0.12329
                       0.86296                       0.06297                      -0.12463
                       0.86117                       0.06643                      -0.12564
                       0.86005                       0.06823                      -0.12613
                       0.85973                       0.06765                      -0.12585
                       0.85979                       0.06667                      -0.12549
                       0.91102                       0.01225                      -0.11359
        </DataArray>
        <DataArray type="Float32" Name="TranslationalAcceleration" NumberOfComponents="3" format="ascii">
                       0.08989                       0.94329                       2.43652
                       0.43411                       1.98211                       5.26439
                       0.64073                       3.04806                       8.08510
                       0.65645                       4.14368                      10.90004
                       0.43791                       5.27054                      13.71039
                      -0.03821                       6.43213                      16.51388
                      -0.76854                       7.63293                      19.30383
                      -1.71913                       8.87843                      22.06883
                      -2.82461                      10.17563                      24.79336
                      -3.99083                      11.53222                      27.46010
                      -5.10080                      12.95558                      30.05322
                      -6.02427                      14.45194                      32.56210
                      -6.63092                      16.02563                      34.98440
                      -6.80751                      17.67811                      37.32755
                      -6.47881                      19.40592                      39.60768
                      -5.63263                      21.19732                      41.84576
                      -4.34879                      23.02931                      44.06161
                      -3.61415                      23.95181                      45.16617
                      -0.10970                       0.43007                       1.02076
        </DataArray>
        <DataArray type="Float32" Name="RotationalAcceleration" NumberOfComponents="3" format="ascii">
                      -0.01527                      -0.02412                      -0.01516
                      -0.00783                       0.00379                      -0.02710
                       0.00103                       0.04589                      -0.04469
                       0.00990                       0.10123                      -0.06734
                       0.01949                       0.16562                      -0.09357
                       0.03061                       0.23269                      -0.12108
                       0.04374                       0.29478                      -0.14704
                       0.05975                       0.34352                      -0.16840
                       0.07917                       0.37088                      -0.18220
                       0.10197                       0.37004                      -0.18582
                       0.12751                       0.33631                      -0.17737
                       0.15462                       0.26804                      -0.15601
                       0.18181                       0.16759                      -0.12239
                       0.20738                       0.04217                      -0.07896
                       0.22927                      -0.09529                      -0.03030
                       0.24515                      -0.22518                       0.01651
                       0.25294                      -0.32030                       0.05145
                       0.25458                      -0.35528                       0.06451
                      -0.01831                      -0.03465                      -0.01062
        </DataArray>
        <DataArray type="Float32" Name="OrientationX" NumberOfComponents="3" format="ascii">
                       0.94977                       0.20082                      -0.24004
                       0.95013                       0.20164                      -0.23789
                       0.95070                       0.20292                      -0.23451
                       0.95491                       0.19236                      -0.22616
                       0.96323                       0.16582                      -0.21140
                       0.96803                       0.15182                      -0.19969
                       0.97269                       0.13800                      -0.18665
                       0.97733                       0.12370                      -0.17180
                       0.98177                       0.10973                      -0.15520
                       0.98579                       0.09709                      -0.13711
                       0.98941                       0.08525                      -0.11748
                       0.99249                       0.07472                      -0.09688
                       0.99476                       0.06750                      -0.07682
                       0.99643                       0.06154                      -0.05774
                       0.99767                       0.05483                      -0.04062
                       0.99853                       0.04676                      -0.02748
                       0.99894                       0.04021                      -0.02222
                       0.99905                       0.03764                      -0.02209
                       0.94964                       0.20054                      -0.24076
        </DataArray>
        <DataArray type="Float32" Name="OrientationY" NumberOfComponents="3" format="ascii">
                       0.26970                      -0.91428                       0.30225
                       0.26973                      -0.91422                       0.30241
                       0.26976                      -0.91414                       0.30262
                       0.25712                      -0.91667                       0.30594
                       0.22744                      -0.92212                       0.31299
                       0.21041                      -0.92482                       0.31690
                       0.19309                      -0.92731                       0.32063
                       0.17468                      -0.92969                       0.32429
                       0.15594                      -0.93183                       0.32769
                       0.13794                      -0.93363                       0.33061
                       0.12013                      -0.93520                       0.33313
                       0.10322                      -0.93649                       0.33516
                       0.08959                      -0.93740                       0.33653
                       0.07750                      -0.93813                       0.33750
                       0.06537                      -0.93880                       0.33821
                       0.05331                      -0.93939                       0.33869
                       0.04536                      -0.93973                       0.33890
                       0.04291                      -0.93982                       0.33896
                       0.26969                      -0.91430                       0.30219
        </DataArray>
        <DataArray type="Float32" Name="OrientationZ" NumberOfComponents="3" format="ascii">
                      -0.15876                      -0.35180                      -0.92251
                      -0.15650                      -0.35149                      -0.92302
                      -0.15297                      -0.35096                      -0.92381
                      -0.14847                      -0.35029                      -0.92480
                      -0.14304                      -0.34956                      -0.92593
                      -0.13657                      -0.34879                      -0.92720
                      -0.12884                      -0.34792                      -0.92863
                      -0.11961                      -0.34696                      -0.93022
                      -0.10866                      -0.34591                      -0.93195
                      -0.09592                      -0.34482                      -0.93376
                      -0.08147                      -0.34371                      -0.93553
                      -0.06569                      -0.34265                      -0.93717
                      -0.04929                      -0.34165                      -0.93853
                      -0.03340                      -0.34077                      -0.93955
                      -0.01959                      -0.34008                      -0.94019
                      -0.00997                      -0.33966                      -0.94050
                      -0.00726                      -0.33955                      -0.94056
                      -0.00800                      -0.33958                      -0.94054
                      -0.15952                      -0.35190                      -0.92234
        </DataArray>
      </PointData>
      <Lines>
        <DataArray type="Int32" Name="connectivity" format="ascii">
      0      1
      1      2
      2      3
      3      4
      4      5
      5      6
      6      7
      7      8
      8      9
      9     10
     10     11
     11     12
     12     13
     13     14
     14     15
     15     16
     16     17
     18      0
        </DataArray>
        <DataArray type="Int32" Name="offsets" format="ascii">
      2
      4
      6
      8
     10
     12
     14
     16
     18
     20
     22
     24
     26
     28
     30
     32
     34
     36
        </DataArray>
      </Lines>
    </Piece>
  </PolyData>
</VTKFile>
