<?xml version="1.0"?>
<VTKFile type="PolyData" version="0.1" byte_order="LittleEndian">
  <PolyData>
    <Piece NumberOfPoints="     17" NumberOfVerts="  0" NumberOfLines="      0"
           NumberOfStrips="  0" NumberOfPolys="      0">
      <Points>
        <DataArray type="Float32" NumberOfComponents="3" format="ascii">
                       3.00216                       0.75137                      93.34240
                       3.26332                       1.59439                      96.85074
                       3.53349                       2.43536                     100.35889
                       3.81616                       3.27353                     103.86672
                       4.11427                       4.10850                     107.37404
                       4.43103                       4.94003                     110.88053
                       4.77037                       5.76784                     114.38578
                       5.13720                       6.59159                     117.88921
                       5.53745                       7.41100                     121.38998
                       5.97771                       8.22586                     124.88700
                       6.46469                       9.03614                     128.37886
                       7.00439                       9.84199                     131.86397
                       7.60098                      10.64377                     135.34076
                       8.25542                      11.44199                     138.80797
                       8.96387                      12.23732                     142.26530
                       9.71575                      13.03067                     145.71400
                      10.49162                      13.82307                     149.15768
        </DataArray>
      </Points>
      <PointData>
        <DataArray type="Float32" Name="Force" NumberOfComponents="3" format="ascii">
                     195.23775                      73.71613                     -32.12559
                     639.43698                     227.59899                    -103.94929
                    2486.01509                    -837.84462                       2.06088
                    4286.50810                   -1612.24491                      28.36687
                    2604.36707                    -900.60463                     -12.03474
                    5544.17640                   -1671.89768                    -112.20977
                    6606.90511                   -1715.20291                    -248.78406
                    7313.54096                   -1652.65691                    -402.27758
                    7793.61661                   -1564.46614                    -561.59532
                    9728.41667                   -1754.75782                    -874.80783
                   11116.77514                   -1832.35270                   -1212.53348
                   12593.67186                   -1965.07107                   -1615.80717
                    7201.24646                   -1080.63699                   -1031.28020
                   14346.22614                   -2061.86960                   -2270.72837
                   13821.10787                   -1879.07454                   -2419.83928
                   19582.52237                   -2442.11719                   -3716.72602
                    7930.53847                    -841.66228                   -1578.54867
        </DataArray>
        <DataArray type="Float32" Name="Moment" NumberOfComponents="3" format="ascii">
                     -20.22805                      23.07753                       1.17494
                     151.02399                     440.37816                     -52.03511
                    1017.25654                    2564.06658                    -339.29549
                    1323.39474                    3569.49270                      96.23947
                     103.98625                     387.26307                     473.04104
                    -844.16469                   -2449.62514                    1435.95276
                    -541.25352                   -1680.06188                     765.15966
                    -208.64200                    -238.09908                    -283.00134
                     -60.55569                     550.69191                    -685.90539
                      80.75329                    1540.93692                    -828.54421
                     444.67666                    4190.84105                   -1409.74369
                     912.24932                    7784.84404                   -1875.25173
                     -49.55729                    -458.34912                     249.19750
                   -1019.99328                   -9487.24060                    2644.95200
                    -834.62338                   -8807.37399                    2457.51048
                    -211.07699                   -1324.93157                     633.10917
                    -135.75563                      40.50905                     -66.61017
        </DataArray>
      </PointData>
    </Piece>
  </PolyData>
</VTKFile>
