<?xml version="1.0"?>
<VTKFile type="PolyData" version="0.1" byte_order="LittleEndian">
  <PolyData>
    <Piece NumberOfPoints="     19" NumberOfVerts="  0" NumberOfLines="     18"
           NumberOfStrips="  0" NumberOfPolys="      0">
      <Points>
        <DataArray type="Float32" NumberOfComponents="3" format="ascii">
                       2.47169                      -3.14481                      89.07061
                       2.18161                      -6.55819                      87.90785
                       1.89933                      -9.97067                      86.74052
                       1.62801                     -13.38196                      85.56713
                       1.37038                     -16.79187                      84.38670
                       1.12944                     -20.20032                      83.19856
                       0.90872                     -23.60721                      82.00204
                       0.71254                     -27.01240                      80.79649
                       0.54597                     -30.41571                      79.58127
                       0.41461                     -33.81692                      78.35589
                       0.32411                     -37.21569                      77.12013
                       0.27946                     -40.61161                      75.87410
                       0.28406                     -44.00425                      74.61836
                       0.33854                     -47.39324                      73.35391
                       0.43928                     -50.77853                      72.08225
                       0.57688                     -54.16065                      70.80545
                       0.73415                     -57.54101                      69.52609
                       0.81502                     -59.23098                      68.88613
                       2.61825                      -1.43793                      89.65107
        </DataArray>
      </Points>
      <PointData>
        <DataArray type="Float32" Name="TranslationalVelocity" NumberOfComponents="3" format="ascii">
                      -0.84531                       0.97393                      -2.92785
                      -1.20369                       2.08164                      -6.09020
                      -1.56253                       3.19195                      -9.24923
                      -1.92213                       4.30569                     -12.40398
                      -2.28281                       5.42335                     -15.55385
                      -2.64520                       6.54513                     -18.69845
                      -3.01035                       7.67119                     -21.83739
                      -3.37979                       8.80159                     -24.97022
                      -3.75552                       9.93625                     -28.09649
                      -4.13996                      11.07485                     -31.21569
                      -4.53575                      12.21673                     -34.32738
                      -4.94544                      13.36091                     -37.43116
                      -5.37111                      14.50613                     -40.52687
                      -5.81395                      15.65105                     -43.61460
                      -6.27365                      16.79456                     -46.69505
                      -6.74776                      17.93610                     -49.76972
                      -7.23096                      19.07623                     -52.84118
                      -7.47395                      19.64609                     -54.37650
                      -0.66619                       0.42060                      -1.34599
        </DataArray>
        <DataArray type="Float32" Name="RotationalVelocity" NumberOfComponents="3" format="ascii">
                       0.92566                      -0.01284                      -0.10930
                       0.92508                      -0.01276                      -0.10940
                       0.92427                      -0.01263                      -0.10960
                       0.92333                      -0.01245                      -0.10986
                       0.92229                      -0.01224                      -0.11024
                       0.92118                      -0.01194                      -0.11083
                       0.92000                      -0.01152                      -0.11176
                       0.91874                      -0.01094                      -0.11316
                       0.91742                      -0.01014                      -0.11516
                       0.91603                      -0.00912                      -0.11783
                       0.91461                      -0.00785                      -0.12120
                       0.91321                      -0.00637                      -0.12521
                       0.91186                      -0.00473                      -0.12968
                       0.91063                      -0.00306                      -0.13430
                       0.90962                      -0.00151                      -0.13860
                       0.90891                      -0.00032                      -0.14191
                       0.90864                       0.00020                      -0.14338
                       0.90863                       0.00025                      -0.14353
                       0.92587                      -0.01287                      -0.10929
        </DataArray>
        <DataArray type="Float32" Name="TranslationalAcceleration" NumberOfComponents="3" format="ascii">
                       1.00820                       2.61679                       0.75279
                       1.20367                       5.60701                       1.69228
                       1.38166                       8.59471                       2.63052
                       1.53531                      11.57897                       3.56820
                       1.65907                      14.55917                       4.50581
                       1.75133                      17.53493                       5.44268
                       1.81630                      20.50596                       6.37691
                       1.86499                      23.47207                       7.30530
                       1.91540                      26.43335                       8.22344
                       1.99172                      29.39050                       9.12622
                       2.12268                      32.34506                      10.00849
                       2.33889                      35.29973                      10.86583
                       2.66928                      38.25837                      11.69520
                       3.13642                      41.22555                      12.49555
                       3.75106                      44.20535                      13.26836
                       4.50559                      47.19947                      14.01824
                       5.36647                      50.20490                      14.75313
                       5.81744                      51.70971                      15.11802
                       0.90694                       1.12117                       0.28269
        </DataArray>
        <DataArray type="Float32" Name="RotationalAcceleration" NumberOfComponents="3" format="ascii">
                       0.02210                      -0.01412                       0.00718
                       0.02304                      -0.01292                       0.00341
                       0.02414                      -0.01113                      -0.00215
                       0.02512                      -0.00870                      -0.00955
                       0.02618                      -0.00591                      -0.01804
                       0.02760                      -0.00323                      -0.02628
                       0.02971                      -0.00127                      -0.03258
                       0.03282                      -0.00069                      -0.03508
                       0.03719                      -0.00212                      -0.03200
                       0.04288                      -0.00605                      -0.02187
                       0.04976                      -0.01278                      -0.00382
                       0.05755                      -0.02231                       0.02226
                       0.06582                      -0.03426                       0.05535
                       0.07402                      -0.04781                       0.09314
                       0.08141                      -0.06157                       0.13177
                       0.08709                      -0.07355                       0.16559
                       0.09015                      -0.08104                       0.18686
                       0.09090                      -0.08327                       0.19326
                       0.02174                      -0.01460                       0.00868
        </DataArray>
        <DataArray type="Float32" Name="OrientationX" NumberOfComponents="3" format="ascii">
                       0.93865                       0.03604                      -0.34297
                       0.93881                       0.03786                      -0.34236
                       0.93904                       0.04070                      -0.34138
                       0.94371                       0.03992                      -0.32836
                       0.95358                       0.03398                      -0.29923
                       0.95897                       0.03326                      -0.28154
                       0.96416                       0.03345                      -0.26321
                       0.96931                       0.03449                      -0.24342
                       0.97417                       0.03680                      -0.22281
                       0.97846                       0.04082                      -0.20234
                       0.98229                       0.04629                      -0.18154
                       0.98550                       0.05314                      -0.16115
                       0.98772                       0.06162                      -0.14360
                       0.98934                       0.07024                      -0.12759
                       0.99069                       0.07718                      -0.11213
                       0.99190                       0.08079                      -0.09798
                       0.99272                       0.08031                      -0.08972
                       0.99302                       0.07891                      -0.08763
                       0.93860                       0.03544                      -0.34318
        </DataArray>
        <DataArray type="Float32" Name="OrientationY" NumberOfComponents="3" format="ascii">
                       0.33521                      -0.32901                       0.88283
                       0.33518                      -0.32939                       0.88270
                       0.33514                      -0.32990                       0.88252
                       0.32256                      -0.33103                       0.88678
                       0.29311                      -0.33281                       0.89628
                       0.27616                      -0.33406                       0.90119
                       0.25892                      -0.33530                       0.90583
                       0.24060                      -0.33656                       0.91040
                       0.22196                      -0.33783                       0.91466
                       0.20406                      -0.33909                       0.91835
                       0.18637                      -0.34038                       0.92163
                       0.16959                      -0.34169                       0.92439
                       0.15607                      -0.34288                       0.92632
                       0.14408                      -0.34402                       0.92784
                       0.13206                      -0.34519                       0.92919
                       0.12011                      -0.34633                       0.93039
                       0.11222                      -0.34704                       0.93111
                       0.10978                      -0.34724                       0.93133
                       0.33522                      -0.32886                       0.88288
        </DataArray>
        <DataArray type="Float32" Name="OrientationZ" NumberOfComponents="3" format="ascii">
                      -0.08102                      -0.94364                      -0.32091
                      -0.07935                      -0.94344                      -0.32192
                      -0.07670                      -0.94314                      -0.32343
                      -0.07330                      -0.94278                      -0.32527
                      -0.06913                      -0.94238                      -0.32732
                      -0.06408                      -0.94197                      -0.32954
                      -0.05795                      -0.94152                      -0.33194
                      -0.05053                      -0.94103                      -0.33453
                      -0.04161                      -0.94049                      -0.33728
                      -0.03112                      -0.93987                      -0.34012
                      -0.01913                      -0.93915                      -0.34299
                      -0.00594                      -0.93831                      -0.34575
                       0.00785                      -0.93736                      -0.34829
                       0.02127                      -0.93633                      -0.35047
                       0.03300                      -0.93535                      -0.35217
                       0.04123                      -0.93463                      -0.35323
                       0.04364                      -0.93440                      -0.35353
                       0.04306                      -0.93445                      -0.35348
                      -0.08157                      -0.94371                      -0.32055
        </DataArray>
      </PointData>
      <Lines>
        <DataArray type="Int32" Name="connectivity" format="ascii">
      0      1
      1      2
      2      3
      3      4
      4      5
      5      6
      6      7
      7      8
      8      9
      9     10
     10     11
     11     12
     12     13
     13     14
     14     15
     15     16
     16     17
     18      0
        </DataArray>
        <DataArray type="Int32" Name="offsets" format="ascii">
      2
      4
      6
      8
     10
     12
     14
     16
     18
     20
     22
     24
     26
     28
     30
     32
     34
     36
        </DataArray>
      </Lines>
    </Piece>
  </PolyData>
</VTKFile>
