<?xml version="1.0"?>
<VTKFile type="PolyData" version="0.1" byte_order="LittleEndian">
  <PolyData>
    <Piece NumberOfPoints="     19" NumberOfVerts="  0" NumberOfLines="     18"
           NumberOfStrips="  0" NumberOfPolys="      0">
      <Points>
        <DataArray type="Float32" NumberOfComponents="3" format="ascii">
                       3.22019                       1.20869                      90.99341
                       3.25788                       2.33903                      91.76073
                       3.32197                       4.54621                      93.37513
                       3.38378                       6.72884                      95.02640
                       3.46487                       9.44352                      97.11137
                       3.61241                      12.78478                      99.48679
                       3.78742                      16.20145                     101.74818
                       3.98084                      19.62157                     104.00279
                       4.19970                      23.04591                     106.24858
                       4.44931                      26.47300                     108.48682
                       4.73113                      29.90023                     110.72077
                       5.05597                      33.32810                     112.94773
                       5.42906                      36.75609                     115.16678
                       5.85296                      40.18366                     117.37716
                       6.32801                      43.61027                     119.57849
                       6.75660                      46.46497                     121.40681
                       7.11476                      48.75257                     122.85970
                       7.47046                      51.07055                     124.26636
                       7.65219                      52.20646                     125.00416
        </DataArray>
      </Points>
      <PointData>
        <DataArray type="Float32" Name="Force" NumberOfComponents="3" format="ascii">
                      -0.03683                       0.19570                      -0.28797
                      70.94348                      11.86935                     -21.11716
                      82.66696                      29.59545                     -48.13598
                      69.80469                      39.18665                     -61.89179
                     713.41563                    -128.78366                     148.50779
                     975.42117                    -173.95031                     193.34795
                    1098.37507                    -156.77458                     150.73031
                    1384.03849                    -167.05953                     130.89990
                    1493.76788                    -153.78715                      83.66906
                    1714.48042                    -161.19082                      47.78157
                    2112.54808                    -187.17528                       3.63308
                    2428.67402                    -214.05238                     -48.09307
                    2850.46817                    -268.15126                     -96.10228
                    3150.90438                    -312.88648                    -155.01224
                    3428.90732                    -357.90283                    -216.14612
                    3587.02691                    -378.68042                    -269.16584
                    3493.74768                    -360.62680                    -297.06548
                    2501.73619                    -245.92220                    -237.22194
                    1130.58128                     -50.61863                    -198.39888
        </DataArray>
        <DataArray type="Float32" Name="Moment" NumberOfComponents="3" format="ascii">
                       0.00000                       0.00000                       0.00000
                       0.00000                       0.00000                       0.00000
                       0.00000                       0.00000                       0.00000
                       0.00000                       0.00000                       0.00000
                      -7.12194                    -177.54089                    -119.74769
                     -14.03253                    -313.53475                    -211.28666
                     -22.19507                    -440.78175                    -296.72107
                     -35.18039                    -615.91405                    -414.08204
                     -54.45393                    -833.21125                    -559.29452
                     -69.95012                    -928.39129                    -621.99810
                     -84.99367                    -971.88792                    -649.63503
                    -103.11311                   -1017.53043                    -678.33698
                    -105.76883                    -908.01767                    -603.57146
                    -118.89312                    -901.35538                    -597.36536
                    -126.02263                    -862.92643                    -570.33696
                    -125.68086                    -810.43486                    -534.70690
                    -114.09731                    -716.35684                    -472.25192
                     -58.64782                    -364.74030                    -240.38097
                     -50.76064                    -316.39879                    -208.53625
        </DataArray>
        <DataArray type="Float32" Name="TranslationalVelocity" NumberOfComponents="3" format="ascii">
                      -0.00725                      -0.81245                       1.16256
                       0.12584                      -1.52272                       2.20233
                       0.38567                      -3.01387                       4.23095
                       0.64260                      -4.53403                       6.23158
                       0.96204                      -6.44539                       8.71035
                       1.35448                      -8.61656                      11.74519
                       1.75389                     -10.67322                      14.82788
                       2.15122                     -12.71182                      17.89225
                       2.54726                     -14.73182                      20.93931
                       2.94377                     -16.73588                      23.96860
                       3.34291                     -18.72934                      26.98080
                       3.74860                     -20.71098                      29.97553
                       4.16499                     -22.68205                      32.95348
                       4.59588                     -24.64384                      35.91537
                       5.04386                     -26.59795                      38.86232
                       5.43015                     -28.22198                      41.30854
                       5.74767                     -29.51346                      43.26424
                       6.07369                     -30.76479                      45.24411
                       6.23472                     -31.42051                      46.21404
        </DataArray>
        <DataArray type="Float32" Name="RotationalVelocity" NumberOfComponents="3" format="ascii">
                       0.92077                      -0.00061                      -0.11816
                       0.91984                      -0.00059                      -0.11815
                       0.91756                      -0.00054                      -0.11811
                       0.91477                      -0.00049                      -0.11805
                       0.91051                      -0.00046                      -0.11790
                       0.90471                      -0.00052                      -0.11752
                       0.89859                      -0.00069                      -0.11697
                       0.89246                      -0.00085                      -0.11642
                       0.88654                      -0.00086                      -0.11611
                       0.88093                      -0.00057                      -0.11627
                       0.87575                       0.00021                      -0.11717
                       0.87099                       0.00152                      -0.11887
                       0.86665                       0.00335                      -0.12137
                       0.86282                       0.00561                      -0.12453
                       0.85962                       0.00806                      -0.12800
                       0.85765                       0.00997                      -0.13073
                       0.85667                       0.01118                      -0.13248
                       0.85618                       0.01208                      -0.13378
                       0.85614                       0.01238                      -0.13423
        </DataArray>
        <DataArray type="Float32" Name="TranslationalAcceleration" NumberOfComponents="3" format="ascii">
                      -1.43290                      -0.73350                      -0.84229
                      -1.54137                      -1.64049                      -1.59036
                      -1.77156                      -3.40845                      -3.13429
                      -2.01817                      -5.17400                      -4.66125
                      -2.35085                      -7.40823                      -6.50575
                      -2.77723                     -10.22100                      -8.48688
                      -3.23759                     -13.15419                     -10.20739
                      -3.72117                     -16.14705                     -11.74709
                      -4.17272                     -19.20157                     -13.10635
                      -4.50261                     -22.31919                     -14.29641
                      -4.62555                     -25.49480                     -15.35188
                      -4.39190                     -28.74018                     -16.28149
                      -3.66465                     -32.06088                     -17.12113
                      -2.33002                     -35.46275                     -17.91302
                      -0.32910                     -38.94947                     -18.70005
                       1.81547                     -41.91412                     -19.37577
                       3.80741                     -44.31870                     -19.93139
                       5.94895                     -46.73999                     -20.45712
                       7.03249                     -47.94741                     -20.75676
        </DataArray>
        <DataArray type="Float32" Name="OrientationX" NumberOfComponents="3" format="ascii">
                       0.99159                      -0.09342                       0.08957
                       0.99158                      -0.09373                       0.08936
                       0.99155                      -0.09461                       0.08877
                       0.99151                      -0.09581                       0.08796
                       0.99143                      -0.09780                       0.08662
                       0.99483                      -0.08324                       0.05820
                       0.99657                      -0.07424                       0.03664
                       0.99756                      -0.06768                       0.01690
                       0.99809                      -0.06155                      -0.00450
                       0.99804                      -0.05632                      -0.02725
                       0.99733                      -0.05325                      -0.05000
                       0.99597                      -0.05153                      -0.07342
                       0.99405                      -0.05176                      -0.09579
                       0.99192                      -0.05466                      -0.11452
                       0.98956                      -0.05680                      -0.13242
                       0.98765                      -0.05665                      -0.14610
                       0.98638                      -0.05480                      -0.15511
                       0.98574                      -0.05330                      -0.15961
                       0.98578                      -0.05305                      -0.15944
        </DataArray>
        <DataArray type="Float32" Name="OrientationY" NumberOfComponents="3" format="ascii">
                       0.12646                       0.55230                      -0.82400
                       0.12646                       0.55210                      -0.82413
                       0.12644                       0.55161                      -0.82447
                       0.12642                       0.55100                      -0.82487
                       0.12638                       0.55008                      -0.82550
                       0.09464                       0.55171                      -0.82865
                       0.07167                       0.55220                      -0.83063
                       0.05157                       0.55229                      -0.83206
                       0.03030                       0.55236                      -0.83305
                       0.00842                       0.55242                      -0.83352
                      -0.01229                       0.55241                      -0.83348
                      -0.03282                       0.55244                      -0.83290
                      -0.05140                       0.55248                      -0.83194
                      -0.06549                       0.55246                      -0.83097
                      -0.07931                       0.55261                      -0.82966
                      -0.09081                       0.55292                      -0.82827
                      -0.09933                       0.55324                      -0.82708
                      -0.10388                       0.55343                      -0.82639
                      -0.10388                       0.55343                      -0.82639
        </DataArray>
        <DataArray type="Float32" Name="OrientationZ" NumberOfComponents="3" format="ascii">
                       0.02750                       0.82840                       0.55947
                       0.02790                       0.82849                       0.55930
                       0.02903                       0.82872                       0.55891
                       0.03056                       0.82899                       0.55843
                       0.03309                       0.82937                       0.55772
                       0.03687                       0.82987                       0.55673
                       0.04144                       0.83040                       0.55562
                       0.04698                       0.83090                       0.55443
                       0.05376                       0.83133                       0.55317
                       0.06200                       0.83166                       0.55181
                       0.07201                       0.83187                       0.55028
                       0.08348                       0.83196                       0.54852
                       0.09599                       0.83191                       0.54654
                       0.10869                       0.83175                       0.54441
                       0.12030                       0.83150                       0.54234
                       0.12771                       0.83131                       0.54094
                       0.13114                       0.83122                       0.54026
                       0.13238                       0.83119                       0.54000
                       0.13208                       0.83120                       0.54005
        </DataArray>
      </PointData>
      <Lines>
        <DataArray type="Int32" Name="connectivity" format="ascii">
      0      1
      1      2
      2      3
      3      4
      4      5
      5      6
      6      7
      7      8
      8      9
      9     10
     10     11
     11     12
     12     13
     13     14
     14     15
     15     16
     16     17
     17     18
        </DataArray>
        <DataArray type="Int32" Name="offsets" format="ascii">
      2
      4
      6
      8
     10
     12
     14
     16
     18
     20
     22
     24
     26
     28
     30
     32
     34
     36
        </DataArray>
      </Lines>
    </Piece>
  </PolyData>
</VTKFile>
