<?xml version="1.0"?>
<VTKFile type="PolyData" version="0.1" byte_order="LittleEndian">
  <PolyData>
    <Piece NumberOfPoints="     19" NumberOfVerts="  0" NumberOfLines="     18"
           NumberOfStrips="  0" NumberOfPolys="      0">
      <Points>
        <DataArray type="Float32" NumberOfComponents="3" format="ascii">
                       3.15960                       3.11074                      91.21280
                       3.15294                       6.53509                      92.37949
                       3.15361                       9.95929                      93.54662
                       3.16444                      13.38326                      94.71437
                       3.18778                      16.80696                      95.88274
                       3.22623                      20.23036                      97.05156
                       3.28306                      23.65341                      98.22065
                       3.36246                      27.07599                      99.38978
                       3.46951                      30.49794                     100.55851
                       3.60993                      33.91902                     101.72622
                       3.78960                      37.33889                     102.89203
                       4.01383                      40.75714                     104.05487
                       4.28641                      44.17326                     105.21361
                       4.60841                      47.58679                     106.36737
                       4.97681                      50.99747                     107.51576
                       5.38279                      54.40558                     108.65930
                       5.80991                      57.81215                     109.79988
                       6.02616                      59.51523                     110.36978
                       3.16436                       1.39854                      90.62954
        </DataArray>
      </Points>
      <PointData>
        <DataArray type="Float32" Name="TranslationalVelocity" NumberOfComponents="3" format="ascii">
                       0.58607                      -1.01984                       2.94561
                       0.99377                      -2.09782                       6.11194
                       1.39657                      -3.17727                       9.27868
                       1.79260                      -4.25868                      12.44581
                       2.18029                      -5.34229                      15.61344
                       2.55814                      -6.42823                      18.78170
                       2.92457                      -7.51662                      21.95068
                       3.27779                      -8.60755                      25.12043
                       3.61581                      -9.70096                      28.29098
                       3.93660                     -10.79658                      31.46241
                       4.23819                     -11.89381                      34.63479
                       4.51900                     -12.99171                      37.80816
                       4.77819                     -14.08908                      40.98249
                       5.01610                     -15.18471                      44.15764
                       5.23486                     -16.27768                      47.33335
                       5.43895                     -17.36779                      50.50937
                       5.63605                     -18.45609                      53.68538
                       5.73403                     -19.00001                      55.27334
                       0.38126                      -0.48114                       1.36254
        </DataArray>
        <DataArray type="Float32" Name="RotationalVelocity" NumberOfComponents="3" format="ascii">
                       0.92456                       0.00889                      -0.11659
                       0.92472                       0.00855                      -0.11559
                       0.92491                       0.00802                      -0.11404
                       0.92512                       0.00734                      -0.11205
                       0.92538                       0.00654                      -0.10968
                       0.92569                       0.00560                      -0.10692
                       0.92603                       0.00451                      -0.10372
                       0.92640                       0.00325                      -0.10004
                       0.92682                       0.00182                      -0.09582
                       0.92730                       0.00020                      -0.09107
                       0.92786                      -0.00157                      -0.08586
                       0.92850                      -0.00346                      -0.08032
                       0.92920                      -0.00537                      -0.07470
                       0.92990                      -0.00718                      -0.06937
                       0.93053                      -0.00871                      -0.06487
                       0.93099                      -0.00972                      -0.06189
                       0.93109                      -0.00992                      -0.06132
                       0.93104                      -0.00977                      -0.06176
                       0.92449                       0.00900                      -0.11693
        </DataArray>
        <DataArray type="Float32" Name="TranslationalAcceleration" NumberOfComponents="3" format="ascii">
                      -0.95298                      -2.90996                      -0.76864
                      -0.97381                      -5.87118                      -1.80909
                      -0.96848                      -8.79051                      -2.97378
                      -0.92890                     -11.65753                      -4.29337
                      -0.85136                     -14.46620                      -5.78631
                      -0.73954                     -17.21369                      -7.46200
                      -0.60448                     -19.89949                      -9.32281
                      -0.46528                     -22.52465                     -11.36569
                      -0.34942                     -25.09124                     -13.58319
                      -0.29142                     -27.60174                     -15.96406
                      -0.33022                     -30.05858                     -18.49336
                      -0.50554                     -32.46365                     -21.15272
                      -0.85299                     -34.81826                     -23.92067
                      -1.39806                     -37.12363                     -26.77355
                      -2.14904                     -39.38254                     -29.68647
                      -3.08876                     -41.60207                     -32.63463
                      -4.16491                     -43.79660                     -35.59506
                      -4.72803                     -44.88995                     -37.07564
                      -0.93714                      -1.42049                      -0.27476
        </DataArray>
        <DataArray type="Float32" Name="RotationalAcceleration" NumberOfComponents="3" format="ascii">
                       0.00347                       0.01599                      -0.01376
                      -0.02693                       0.01785                      -0.01952
                      -0.06818                       0.02048                      -0.02762
                      -0.11618                       0.02374                      -0.03766
                      -0.16802                       0.02699                      -0.04772
                      -0.22140                       0.02958                      -0.05584
                      -0.27453                       0.03086                      -0.06013
                      -0.32611                       0.03006                      -0.05826
                      -0.37509                       0.02644                      -0.04813
                      -0.42059                       0.01949                      -0.02817
                      -0.46184                       0.00894                       0.00240
                      -0.49811                      -0.00509                       0.04324
                      -0.52878                      -0.02199                       0.09255
                      -0.55331                      -0.04056                       0.14682
                      -0.57105                      -0.05891                       0.20054
                      -0.58131                      -0.07437                       0.24583
                      -0.58345                      -0.08332                       0.27208
                      -0.58241                      -0.08565                       0.27894
                       0.01537                       0.01523                      -0.01141
        </DataArray>
        <DataArray type="Float32" Name="OrientationX" NumberOfComponents="3" format="ascii">
                       0.99366                      -0.03376                       0.10723
                       0.99366                      -0.03526                       0.10672
                       0.99366                      -0.03761                       0.10592
                       0.99506                      -0.03631                       0.09237
                       0.99763                      -0.02993                       0.06192
                       0.99863                      -0.02856                       0.04374
                       0.99929                      -0.02808                       0.02501
                       0.99958                      -0.02849                       0.00489
                       0.99942                      -0.03023                      -0.01596
                       0.99876                      -0.03378                      -0.03654
                       0.99759                      -0.03893                      -0.05736
                       0.99594                      -0.04561                      -0.07767
                       0.99401                      -0.05407                      -0.09502
                       0.99185                      -0.06285                      -0.11080
                       0.98954                      -0.07017                      -0.12607
                       0.98733                      -0.07436                      -0.14016
                       0.98609                      -0.07452                      -0.14856
                       0.98583                      -0.07346                      -0.15078
                       0.99366                      -0.03327                       0.10739
        </DataArray>
        <DataArray type="Float32" Name="OrientationY" NumberOfComponents="3" format="ascii">
                       0.11238                       0.32069                      -0.94049
                       0.11239                       0.32061                      -0.94052
                       0.11239                       0.32051                      -0.94056
                       0.09915                       0.32087                      -0.94192
                       0.06827                       0.32176                      -0.94436
                       0.05062                       0.32213                      -0.94534
                       0.03274                       0.32250                      -0.94600
                       0.01383                       0.32290                      -0.94633
                      -0.00533                       0.32333                      -0.94627
                      -0.02365                       0.32379                      -0.94583
                      -0.04169                       0.32433                      -0.94503
                      -0.05873                       0.32495                      -0.94391
                      -0.07241                       0.32554                      -0.94275
                      -0.08451                       0.32618                      -0.94152
                      -0.09659                       0.32694                      -0.94010
                      -0.10855                       0.32778                      -0.93850
                      -0.11640                       0.32837                      -0.93735
                      -0.11882                       0.32855                      -0.93698
                       0.11238                       0.32072                      -0.94048
        </DataArray>
        <DataArray type="Float32" Name="OrientationZ" NumberOfComponents="3" format="ascii">
                      -0.00263                       0.94658                       0.32245
                      -0.00105                       0.94655                       0.32254
                       0.00142                       0.94650                       0.32270
                       0.00456                       0.94643                       0.32289
                       0.00834                       0.94635                       0.32304
                       0.01291                       0.94626                       0.32314
                       0.01850                       0.94615                       0.32319
                       0.02538                       0.94601                       0.32315
                       0.03377                       0.94580                       0.32298
                       0.04379                       0.94553                       0.32259
                       0.05539                       0.94514                       0.32193
                       0.06829                       0.94463                       0.32095
                       0.08191                       0.94398                       0.31968
                       0.09532                       0.94322                       0.31821
                       0.10719                       0.94244                       0.31674
                       0.11573                       0.94182                       0.31556
                       0.11864                       0.94160                       0.31513
                       0.11837                       0.94162                       0.31517
                      -0.00315                       0.94659                       0.32243
        </DataArray>
      </PointData>
      <Lines>
        <DataArray type="Int32" Name="connectivity" format="ascii">
      0      1
      1      2
      2      3
      3      4
      4      5
      5      6
      6      7
      7      8
      8      9
      9     10
     10     11
     11     12
     12     13
     13     14
     14     15
     15     16
     16     17
     18      0
        </DataArray>
        <DataArray type="Int32" Name="offsets" format="ascii">
      2
      4
      6
      8
     10
     12
     14
     16
     18
     20
     22
     24
     26
     28
     30
     32
     34
     36
        </DataArray>
      </Lines>
    </Piece>
  </PolyData>
</VTKFile>
