<?xml version="1.0"?>
<VTKFile type="PolyData" version="0.1" byte_order="LittleEndian">
  <PolyData>
    <Piece NumberOfPoints="     17" NumberOfVerts="  0" NumberOfLines="      0"
           NumberOfStrips="  0" NumberOfPolys="      0">
      <Points>
        <DataArray type="Float32" NumberOfComponents="3" format="ascii">
                       3.24238                       2.89042                      91.70926
                       3.30540                       6.08231                      93.41078
                       3.37552                       9.27451                      95.11147
                       3.45545                      12.46700                      96.81116
                       3.54744                      15.65980                      98.50965
                       3.65384                      18.85291                     100.20672
                       3.77753                      22.04627                     101.90214
                       3.92212                      25.23973                     103.59570
                       4.09192                      28.43310                     105.28708
                       4.29172                      31.62614                     106.97576
                       4.52641                      34.81859                     108.66106
                       4.80033                      38.01012                     110.34215
                       5.11646                      41.20042                     112.01818
                       5.47542                      44.38917                     113.68853
                       5.87429                      47.57623                     115.35311
                       6.30516                      50.76179                     117.01267
                       6.75361                      53.94648                     118.66930
        </DataArray>
      </Points>
      <PointData>
        <DataArray type="Float32" Name="Force" NumberOfComponents="3" format="ascii">
                     161.03877                      31.25087                     -64.36700
                     508.43290                     108.18760                    -223.79868
                    1981.91632                    -249.14726                     375.36750
                    3436.13567                    -487.62668                     735.60111
                    2079.71843                    -265.54288                     376.81317
                    4404.37481                    -480.40506                     609.69528
                    5228.45009                    -486.43278                     506.78880
                    5740.17118                    -467.03881                     348.11591
                    6146.91567                    -465.69886                     203.78458
                    7800.78253                    -575.00382                      73.81860
                    9062.97173                    -685.63629                     -93.43272
                   10528.98044                    -865.80159                    -250.89314
                    6143.79218                    -540.12684                    -205.03006
                   12512.99214                   -1171.75861                    -537.31363
                   12423.12793                   -1240.10435                    -665.61714
                   18186.27661                   -1870.32215                   -1195.59778
                    7488.81764                    -726.83375                    -628.11417
        </DataArray>
        <DataArray type="Float32" Name="Moment" NumberOfComponents="3" format="ascii">
                     -19.61123                      12.07667                     -12.68297
                      72.71086                     213.32299                    -274.94003
                     590.32027                    1240.53568                   -1662.91208
                     692.58599                    1881.34423                   -2129.72807
                      28.97027                     362.39480                     -46.15447
                    -467.41749                    -761.50459                    2026.62858
                    -301.36633                    -865.24438                    1171.81264
                    -158.51871                    -894.27368                    -336.15327
                    -104.55131                    -680.63484                   -1049.24610
                     -86.61086                    -236.46692                   -1761.49916
                     -25.34883                     923.63076                   -3670.42753
                      61.03423                    2884.15728                   -6157.51505
                     -14.22738                    -189.46647                     324.54550
                     -73.27700                   -3781.15988                    7366.47262
                      -4.55998                   -3497.30769                    7097.94937
                     -51.01111                    -133.56317                    1038.73815
                    -126.84113                      24.09130                     -94.94680
        </DataArray>
      </PointData>
    </Piece>
  </PolyData>
</VTKFile>
