<?xml version="1.0"?>
<VTKFile type="PolyData" version="0.1" byte_order="LittleEndian">
  <PolyData>
    <Piece NumberOfPoints="     19" NumberOfVerts="  0" NumberOfLines="     18"
           NumberOfStrips="  0" NumberOfPolys="      0">
      <Points>
        <DataArray type="Float32" NumberOfComponents="3" format="ascii">
                       2.57644                       0.79609                      86.99790
                       1.98494                       1.70702                      83.54715
                       1.40067                       2.62108                      80.09600
                       0.82650                       3.53924                      76.64424
                       0.26489                       4.46205                      73.19165
                      -0.28151                       5.38983                      69.73796
                      -0.80948                       6.32278                      66.28281
                      -1.31506                       7.26110                      62.82576
                      -1.79357                       8.20488                      59.36636
                      -2.23978                       9.15403                      55.90413
                      -2.64842                      10.10824                      52.43865
                      -3.01477                      11.06696                      48.96971
                      -3.33558                      12.02941                      45.49729
                      -3.61015                      12.99470                      42.02167
                      -3.84165                      13.96187                      38.54341
                      -4.03867                      14.93003                      35.06325
                      -4.21694                      15.89855                      31.58214
                      -4.30387                      16.38285                      29.84147
                       2.87360                       0.34125                      88.72320
        </DataArray>
      </Points>
      <PointData>
        <DataArray type="Float32" Name="TranslationalVelocity" NumberOfComponents="3" format="ascii">
                      -0.29508                       2.98216                       0.74369
                      -0.15736                       6.21665                       1.57393
                      -0.02050                       9.44447                       2.40566
                       0.11481                      12.66386                       3.23950
                       0.24777                      15.87373                       4.07581
                       0.37824                      19.07372                       4.91478
                       0.50731                      22.26400                       5.75648
                       0.63761                      25.44513                       6.60086
                       0.77337                      28.61790                       7.44768
                       0.92019                      31.78312                       8.29651
                       1.08466                      34.94143                       9.14681
                       1.27373                      38.09320                       9.99799
                       1.49382                      41.23851                      10.84954
                       1.74969                      44.37734                      11.70116
                       2.04314                      47.50987                      12.55270
                       2.37132                      50.63701                      13.40401
                       2.72493                      53.76090                      14.25489
                       2.90647                      55.32239                      14.68018
                      -0.36411                       1.36351                       0.32886
        </DataArray>
        <DataArray type="Float32" Name="RotationalVelocity" NumberOfComponents="3" format="ascii">
                       0.91817                      -0.00938                      -0.11619
                       0.91671                      -0.00918                      -0.11588
                       0.91470                      -0.00886                      -0.11545
                       0.91234                      -0.00827                      -0.11489
                       0.90980                      -0.00751                      -0.11425
                       0.90724                      -0.00683                      -0.11363
                       0.90479                      -0.00664                      -0.11315
                       0.90253                      -0.00737                      -0.11296
                       0.90051                      -0.00943                      -0.11315
                       0.89871                      -0.01315                      -0.11382
                       0.89711                      -0.01874                      -0.11501
                       0.89566                      -0.02616                      -0.11672
                       0.89433                      -0.03516                      -0.11886
                       0.89312                      -0.04512                      -0.12127
                       0.89206                      -0.05505                      -0.12370
                       0.89126                      -0.06349                      -0.12579
                       0.89091                      -0.06852                      -0.12705
                       0.89087                      -0.06990                      -0.12741
                       0.91875                      -0.00947                      -0.11631
        </DataArray>
        <DataArray type="Float32" Name="TranslationalAcceleration" NumberOfComponents="3" format="ascii">
                      -0.80952                      -0.20574                       2.84439
                      -0.40552                      -0.83083                       5.84716
                       0.06767                      -1.60342                       8.78726
                       0.63326                      -2.55879                      11.64847
                       1.30626                      -3.71838                      14.42103
                       2.08665                      -5.09497                      17.10149
                       2.95707                      -6.69504                      19.69205
                       3.88084                      -8.52068                      22.19980
                       4.80120                     -10.57087                      24.63553
                       5.64403                     -12.84135                      27.01213
                       6.32298                     -15.32400                      29.34267
                       6.74722                     -18.00602                      31.63848
                       6.83197                     -20.86930                      33.90775
                       6.51197                     -23.89018                      36.15524
                       5.75761                     -27.03878                      38.38389
                       4.59412                     -30.27822                      40.59812
                       3.12373                     -33.56456                      42.80768
                       2.33014                     -35.21354                      43.91295
                      -0.99730                       0.07545                       1.32977
        </DataArray>
        <DataArray type="Float32" Name="RotationalAcceleration" NumberOfComponents="3" format="ascii">
                       0.06229                      -0.00184                      -0.00086
                       0.02615                      -0.01913                       0.00083
                      -0.02268                      -0.04376                       0.00278
                      -0.07922                      -0.07469                       0.00441
                      -0.14045                      -0.10809                       0.00619
                      -0.20412                      -0.13931                       0.00897
                      -0.26843                      -0.16337                       0.01374
                      -0.33223                      -0.17462                       0.02180
                      -0.39452                      -0.16782                       0.03435
                      -0.45424                      -0.13885                       0.05230
                      -0.51027                      -0.08537                       0.07607
                      -0.56130                      -0.00749                       0.10540
                      -0.60608                       0.09142                       0.13918
                      -0.64331                       0.20414                       0.17530
                      -0.67145                       0.31891                       0.21039
                      -0.68881                       0.41871                       0.23967
                      -0.69380                       0.48040                       0.25679
                      -0.69303                       0.49843                       0.26140
                       0.07643                       0.00505                      -0.00149
        </DataArray>
        <DataArray type="Float32" Name="OrientationX" NumberOfComponents="3" format="ascii">
                       0.96671                       0.23334                      -0.10499
                       0.96698                       0.23292                      -0.10339
                       0.96741                       0.23226                      -0.10089
                       0.97046                       0.21889                      -0.10146
                       0.97629                       0.18858                      -0.10631
                       0.97956                       0.17057                      -0.10665
                       0.98266                       0.15204                      -0.10609
                       0.98569                       0.13217                      -0.10466
                       0.98850                       0.11166                      -0.10194
                       0.99101                       0.09151                      -0.09757
                       0.99323                       0.07123                      -0.09176
                       0.99508                       0.05155                      -0.08459
                       0.99650                       0.03492                      -0.07594
                       0.99755                       0.01987                      -0.06714
                       0.99820                       0.00521                      -0.05982
                       0.99842                      -0.00851                      -0.05556
                       0.99832                      -0.01681                      -0.05537
                       0.99822                      -0.01906                      -0.05646
                       0.96662                       0.23348                      -0.10551
        </DataArray>
        <DataArray type="Float32" Name="OrientationY" NumberOfComponents="3" format="ascii">
                       0.19617                      -0.93932                      -0.28142
                       0.19612                      -0.93924                      -0.28173
                       0.19604                      -0.93912                      -0.28216
                       0.18306                      -0.94200                      -0.28130
                       0.15281                      -0.94817                      -0.27861
                       0.13544                      -0.95120                      -0.27727
                       0.11781                      -0.95394                      -0.27590
                       0.09912                      -0.95649                      -0.27442
                       0.08014                      -0.95869                      -0.27294
                       0.06195                      -0.96042                      -0.27157
                       0.04400                      -0.96178                      -0.27028
                       0.02699                      -0.96272                      -0.26916
                       0.01330                      -0.96322                      -0.26840
                       0.00117                      -0.96347                      -0.26782
                      -0.01099                      -0.96356                      -0.26728
                      -0.02305                      -0.96349                      -0.26674
                      -0.03100                      -0.96337                      -0.26636
                      -0.03345                      -0.96333                      -0.26622
                       0.19619                      -0.93935                      -0.28129
        </DataArray>
        <DataArray type="Float32" Name="OrientationZ" NumberOfComponents="3" format="ascii">
                      -0.16428                       0.25145                      -0.95383
                      -0.16273                       0.25215                      -0.95391
                      -0.16028                       0.25318                      -0.95405
                      -0.15715                       0.25442                      -0.95424
                      -0.15334                       0.25576                      -0.95450
                      -0.14874                       0.25716                      -0.95485
                      -0.14316                       0.25862                      -0.95531
                      -0.13637                       0.26012                      -0.95590
                      -0.12821                       0.26163                      -0.95662
                      -0.11856                       0.26308                      -0.95746
                      -0.10750                       0.26441                      -0.95840
                      -0.09531                       0.26555                      -0.95937
                      -0.08252                       0.26645                      -0.96031
                      -0.07001                       0.26708                      -0.96113
                      -0.05903                       0.26745                      -0.96176
                      -0.05126                       0.26760                      -0.96217
                      -0.04887                       0.26763                      -0.96228
                      -0.04932                       0.26764                      -0.96226
                      -0.16479                       0.25120                      -0.95380
        </DataArray>
      </PointData>
      <Lines>
        <DataArray type="Int32" Name="connectivity" format="ascii">
      0      1
      1      2
      2      3
      3      4
      4      5
      5      6
      6      7
      7      8
      8      9
      9     10
     10     11
     11     12
     12     13
     13     14
     14     15
     15     16
     16     17
     18      0
        </DataArray>
        <DataArray type="Int32" Name="offsets" format="ascii">
      2
      4
      6
      8
     10
     12
     14
     16
     18
     20
     22
     24
     26
     28
     30
     32
     34
     36
        </DataArray>
      </Lines>
    </Piece>
  </PolyData>
</VTKFile>
