<?xml version="1.0"?>
<VTKFile type="PolyData" version="0.1" byte_order="LittleEndian">
  <PolyData>
    <Piece NumberOfPoints="     19" NumberOfVerts="  0" NumberOfLines="     18"
           NumberOfStrips="  0" NumberOfPolys="      0">
      <Points>
        <DataArray type="Float32" NumberOfComponents="3" format="ascii">
                       2.62554                      -0.40947                      86.91151
                       2.01945                      -0.83011                      83.36989
                       1.42116                      -1.25066                      79.82694
                       0.83360                      -1.67089                      76.28215
                       0.25921                      -2.09069                      72.73516
                      -0.29927                      -2.50998                      69.18557
                      -0.83824                      -2.92850                      65.63288
                      -1.35302                      -3.34583                      62.07647
                      -1.83776                      -3.76155                      58.51567
                      -2.28578                      -4.17531                      54.94985
                      -2.69008                      -4.58692                      51.37858
                      -3.04416                      -4.99639                      47.80176
                      -3.34317                      -5.40393                      44.21968
                      -3.58528                      -5.80991                      40.63311
                      -3.77345                      -6.21477                      37.04312
                      -3.91739                      -6.61902                      33.45093
                      -4.03586                      -7.02308                      29.85772
                      -4.09171                      -7.22510                      28.06100
                       2.93010                      -0.19916                      88.68207
        </DataArray>
      </Points>
      <PointData>
        <DataArray type="Float32" Name="TranslationalVelocity" NumberOfComponents="3" format="ascii">
                       0.04512                       3.01372                      -0.31021
                      -0.02993                       6.35761                      -0.69453
                      -0.10936                       9.70581                      -1.07854
                      -0.19457                      13.05938                      -1.46198
                      -0.28657                      16.41895                      -1.84472
                      -0.38713                      19.78469                      -2.22648
                      -0.49953                      23.15630                      -2.60664
                      -0.62902                      26.53303                      -2.98418
                      -0.78286                      29.91384                      -3.35801
                      -0.97003                      33.29749                      -3.72722
                      -1.20056                      36.68263                      -4.09142
                      -1.48448                      40.06791                      -4.45103
                      -1.83037                      43.45198                      -4.80734
                      -2.24346                      46.83363                      -5.16232
                      -2.72334                      50.21209                      -5.51806
                      -3.26124                      53.58741                      -5.87597
                      -3.83689                      56.96070                      -6.23570
                      -4.13080                      58.64706                      -6.41583
                       0.08179                       1.34271                      -0.11803
        </DataArray>
        <DataArray type="Float32" Name="RotationalVelocity" NumberOfComponents="3" format="ascii">
                       0.92343                       0.00665                      -0.11832
                       0.92436                       0.00759                      -0.11859
                       0.92558                       0.00905                      -0.11897
                       0.92701                       0.01076                      -0.11942
                       0.92855                       0.01279                      -0.11993
                       0.93004                       0.01547                      -0.12050
                       0.93135                       0.01933                      -0.12119
                       0.93239                       0.02494                      -0.12204
                       0.93313                       0.03282                      -0.12310
                       0.93358                       0.04336                      -0.12443
                       0.93380                       0.05671                      -0.12605
                       0.93389                       0.07264                      -0.12796
                       0.93393                       0.09052                      -0.13009
                       0.93397                       0.10912                      -0.13230
                       0.93404                       0.12658                      -0.13439
                       0.93415                       0.14031                      -0.13604
                       0.93418                       0.14685                      -0.13682
                       0.93416                       0.14783                      -0.13694
                       0.92304                       0.00637                      -0.11822
        </DataArray>
        <DataArray type="Float32" Name="TranslationalAcceleration" NumberOfComponents="3" format="ascii">
                      -0.71135                       0.23666                       2.45936
                      -0.01447                       0.61416                       5.49577
                       0.73381                       1.09073                       8.52046
                       1.55865                       1.69314                      11.52860
                       2.48424                       2.43763                      14.51645
                       3.52415                       3.32979                      17.48295
                       4.67296                       4.36674                      20.43068
                       5.90210                       5.53919                      23.36625
                       7.15945                       6.83370                      26.29980
                       8.37117                       8.23534                      29.24358
                       9.44669                       9.73012                      32.20977
                      10.28670                      11.30658                      35.20784
                      10.79435                      12.95608                      38.24223
                      10.88971                      14.67147                      41.31112
                      10.52766                      16.44502                      44.40736
                       9.71922                      18.26537                      47.52178
                       8.55590                      20.11272                      50.64758
                       7.90281                      21.03995                      52.21277
                      -1.04986                       0.06873                       0.93885
        </DataArray>
        <DataArray type="Float32" Name="RotationalAcceleration" NumberOfComponents="3" format="ascii">
                      -0.01011                      -0.08184                      -0.01328
                       0.01282                      -0.09310                      -0.01590
                       0.04457                      -0.11093                      -0.01926
                       0.08246                      -0.13630                      -0.02279
                       0.12330                      -0.16760                      -0.02612
                       0.16435                      -0.20043                      -0.02931
                       0.20357                      -0.22853                      -0.03274
                       0.23930                      -0.24527                      -0.03692
                       0.27054                      -0.24418                      -0.04244
                       0.29699                      -0.21980                      -0.04990
                       0.31887                      -0.16855                      -0.05976
                       0.33680                      -0.08956                      -0.07224
                       0.35139                       0.01448                      -0.08711
                       0.36305                       0.13652                      -0.10362
                       0.37197                       0.26428                      -0.12033
                       0.37787                       0.37952                      -0.13504
                       0.37941                       0.45721                      -0.14453
                       0.37884                       0.48310                      -0.14751
                      -0.01906                      -0.07755                      -0.01225
        </DataArray>
        <DataArray type="Float32" Name="OrientationX" NumberOfComponents="3" format="ascii">
                       0.95572                       0.22387                      -0.19099
                       0.95600                       0.22406                      -0.18937
                       0.95643                       0.22436                      -0.18681
                       0.96010                       0.21185                      -0.18257
                       0.96736                       0.18214                      -0.17618
                       0.97148                       0.16542                      -0.16992
                       0.97547                       0.14855                      -0.16244
                       0.97948                       0.13081                      -0.15333
                       0.98334                       0.11297                      -0.14238
                       0.98691                       0.09612                      -0.12953
                       0.99019                       0.07972                      -0.11476
                       0.99305                       0.06443                      -0.09845
                       0.99529                       0.05254                      -0.08151
                       0.99701                       0.04218                      -0.06481
                       0.99826                       0.03160                      -0.04974
                       0.99905                       0.02071                      -0.03837
                       0.99934                       0.01320                      -0.03387
                       0.99937                       0.01074                      -0.03377
                       0.95563                       0.22381                      -0.19152
        </DataArray>
        <DataArray type="Float32" Name="OrientationY" NumberOfComponents="3" format="ascii">
                       0.24134                      -0.96766                       0.07343
                       0.24140                      -0.96761                       0.07382
                       0.24149                      -0.96755                       0.07434
                       0.22884                      -0.97038                       0.07742
                       0.19908                      -0.97641                       0.08364
                       0.18205                      -0.97940                       0.08738
                       0.16473                      -0.98213                       0.09103
                       0.14632                      -0.98470                       0.09467
                       0.12759                      -0.98696                       0.09813
                       0.10959                      -0.98881                       0.10121
                       0.09179                      -0.99034                       0.10396
                       0.07487                      -0.99151                       0.10628
                       0.06122                      -0.99227                       0.10795
                       0.04910                      -0.99281                       0.10920
                       0.03693                      -0.99322                       0.11018
                       0.02485                      -0.99352                       0.11089
                       0.01690                      -0.99365                       0.11123
                       0.01444                      -0.99368                       0.11131
                       0.24131                      -0.96768                       0.07328
        </DataArray>
        <DataArray type="Float32" Name="OrientationZ" NumberOfComponents="3" format="ascii">
                      -0.16838                      -0.11627                      -0.97884
                      -0.16669                      -0.11628                      -0.97913
                      -0.16407                      -0.11622                      -0.97958
                      -0.16076                      -0.11611                      -0.98014
                      -0.15679                      -0.11598                      -0.98080
                      -0.15197                      -0.11582                      -0.98158
                      -0.14601                      -0.11555                      -0.98251
                      -0.13860                      -0.11517                      -0.98363
                      -0.12944                      -0.11467                      -0.98494
                      -0.11835                      -0.11408                      -0.98640
                      -0.10536                      -0.11348                      -0.98794
                      -0.09077                      -0.11291                      -0.98945
                      -0.07520                      -0.11243                      -0.99081
                      -0.05974                      -0.11206                      -0.99190
                      -0.04592                      -0.11183                      -0.99267
                      -0.03583                      -0.11174                      -0.99309
                      -0.03219                      -0.11173                      -0.99322
                      -0.03236                      -0.11173                      -0.99321
                      -0.16893                      -0.11624                      -0.97875
        </DataArray>
      </PointData>
      <Lines>
        <DataArray type="Int32" Name="connectivity" format="ascii">
      0      1
      1      2
      2      3
      3      4
      4      5
      5      6
      6      7
      7      8
      8      9
      9     10
     10     11
     11     12
     12     13
     13     14
     14     15
     15     16
     16     17
     18      0
        </DataArray>
        <DataArray type="Int32" Name="offsets" format="ascii">
      2
      4
      6
      8
     10
     12
     14
     16
     18
     20
     22
     24
     26
     28
     30
     32
     34
     36
        </DataArray>
      </Lines>
    </Piece>
  </PolyData>
</VTKFile>
