<?xml version="1.0"?>
<VTKFile type="PolyData" version="0.1" byte_order="LittleEndian">
  <PolyData>
    <Piece NumberOfPoints="     19" NumberOfVerts="  0" NumberOfLines="     18"
           NumberOfStrips="  0" NumberOfPolys="      0">
      <Points>
        <DataArray type="Float32" NumberOfComponents="3" format="ascii">
                       2.60955                      -0.89422                      86.99770
                       2.02245                      -1.85047                      83.55848
                       1.44480                      -2.80605                      80.11747
                       0.88020                      -3.76054                      76.67400
                       0.33168                      -4.71372                      73.22757
                      -0.19751                      -5.66547                      69.77773
                      -0.70338                      -6.61552                      66.32394
                      -1.18096                      -7.56349                      62.86556
                      -1.62423                      -8.50900                      59.40196
                      -2.02642                      -9.45171                      55.93260
                      -2.38062                     -10.39144                      52.45723
                      -2.68054                     -11.32818                      48.97595
                      -2.92172                     -12.26208                      45.48935
                      -3.10298                     -13.19343                      41.99839
                      -3.22811                     -14.12268                      38.50433
                      -3.30801                     -15.05049                      35.00845
                      -3.36290                     -15.97762                      31.51182
                      -3.38729                     -16.44112                      29.76344
                       2.90495                      -0.41598                      88.71696
        </DataArray>
      </Points>
      <PointData>
        <DataArray type="Float32" Name="TranslationalVelocity" NumberOfComponents="3" format="ascii">
                       0.14070                       2.93368                      -0.75667
                      -0.00754                       6.15629                      -1.62740
                      -0.17002                       9.37028                      -2.49267
                      -0.35277                      12.57309                      -3.35052
                      -0.56121                      15.76315                      -4.19966
                      -0.79925                      18.93995                      -5.03962
                      -1.06859                      22.10370                      -5.87049
                      -1.36831                      25.25513                      -6.69301
                      -1.69481                      28.39532                      -7.50850
                      -2.04195                      31.52540                      -8.31882
                      -2.40133                      34.64633                      -9.12608
                      -2.76297                      37.75876                      -9.93233
                      -3.11603                      40.86308                     -10.73924
                      -3.44999                      43.95965                     -11.54777
                      -3.75599                      47.04917                     -12.35814
                      -4.02845                      50.13309                     -13.17008
                      -4.26707                      53.21425                     -13.98308
                      -4.37827                      54.75459                     -14.38979
                       0.21204                       1.32059                      -0.32022
        </DataArray>
        <DataArray type="Float32" Name="RotationalVelocity" NumberOfComponents="3" format="ascii">
                       0.91829                       0.00919                      -0.11613
                       0.91602                       0.01230                      -0.11661
                       0.91276                       0.01715                      -0.11739
                       0.90879                       0.02361                      -0.11851
                       0.90450                       0.03140                      -0.11993
                       0.90018                       0.03997                      -0.12157
                       0.89603                       0.04862                      -0.12326
                       0.89224                       0.05664                      -0.12484
                       0.88895                       0.06328                      -0.12612
                       0.88622                       0.06789                      -0.12693
                       0.88406                       0.06994                      -0.12713
                       0.88241                       0.06911                      -0.12661
                       0.88121                       0.06534                      -0.12536
                       0.88039                       0.05890                      -0.12342
                       0.87991                       0.05045                      -0.12099
                       0.87971                       0.04113                      -0.11836
                       0.87983                       0.03257                      -0.11600
                       0.87998                       0.02872                      -0.11496
                       0.91916                       0.00806                      -0.11597
        </DataArray>
        <DataArray type="Float32" Name="TranslationalAcceleration" NumberOfComponents="3" format="ascii">
                      -0.32181                       0.95102                       2.58019
                       0.05072                       2.19635                       5.41683
                       0.40142                       3.44905                       8.23730
                       0.72255                       4.71017                      11.03747
                       1.00825                       5.98070                      13.81523
                       1.25476                       7.26198                      16.57026
                       1.46023                       8.55532                      19.30337
                       1.62468                       9.86208                      22.01578
                       1.75000                      11.18372                      24.70865
                       1.83980                      12.52160                      27.38257
                       1.89923                      13.87654                      30.03730
                       1.93474                      15.24840                      32.67190
                       1.95388                      16.63564                      35.28535
                       1.96495                      18.03521                      37.87736
                       1.97666                      19.44274                      40.44936
                       1.99765                      20.85329                      43.00521
                       2.03576                      22.26228                      45.55181
                       2.06000                      22.96586                      46.82386
                      -0.51246                       0.33002                       1.15846
        </DataArray>
        <DataArray type="Float32" Name="RotationalAcceleration" NumberOfComponents="3" format="ascii">
                       0.11973                      -0.01004                      -0.02090
                       0.12283                      -0.00587                      -0.02260
                       0.12689                       0.00039                      -0.02504
                       0.13147                       0.00837                      -0.02805
                       0.13641                       0.01759                      -0.03147
                       0.14156                       0.02755                      -0.03513
                       0.14675                       0.03779                      -0.03887
                       0.15192                       0.04782                      -0.04255
                       0.15704                       0.05711                      -0.04602
                       0.16207                       0.06522                      -0.04915
                       0.16697                       0.07172                      -0.05180
                       0.17165                       0.07629                      -0.05388
                       0.17601                       0.07870                      -0.05530
                       0.17989                       0.07884                      -0.05601
                       0.18308                       0.07676                      -0.05598
                       0.18531                       0.07267                      -0.05523
                       0.18624                       0.06701                      -0.05382
                       0.18634                       0.06386                      -0.05295
                       0.11848                      -0.01156                      -0.02026
        </DataArray>
        <DataArray type="Float32" Name="OrientationX" NumberOfComponents="3" format="ascii">
                       0.95188                       0.21101                      -0.22224
                       0.95222                       0.21156                      -0.22029
                       0.95273                       0.21241                      -0.21723
                       0.95674                       0.20094                      -0.21042
                       0.96467                       0.17291                      -0.19877
                       0.96922                       0.15766                      -0.18908
                       0.97365                       0.14248                      -0.17807
                       0.97808                       0.12667                      -0.16526
                       0.98234                       0.11105                      -0.15060
                       0.98622                       0.09668                      -0.13422
                       0.98977                       0.08301                      -0.11607
                       0.99281                       0.07062                      -0.09666
                       0.99510                       0.06163                      -0.07728
                       0.99682                       0.05405                      -0.05859
                       0.99807                       0.04594                      -0.04174
                       0.99890                       0.03687                      -0.02886
                       0.99927                       0.03002                      -0.02366
                       0.99935                       0.02752                      -0.02349
                       0.95177                       0.21083                      -0.22289
        </DataArray>
        <DataArray type="Float32" Name="OrientationY" NumberOfComponents="3" format="ascii">
                       0.25933                      -0.94105                       0.21721
                       0.25938                      -0.94096                       0.21753
                       0.25945                      -0.94084                       0.21796
                       0.24682                      -0.94345                       0.22131
                       0.21714                      -0.94909                       0.22820
                       0.20013                      -0.95186                       0.23218
                       0.18282                      -0.95439                       0.23602
                       0.16443                      -0.95679                       0.23981
                       0.14571                      -0.95893                       0.24335
                       0.12771                      -0.96071                       0.24644
                       0.10991                      -0.96221                       0.24915
                       0.09300                      -0.96341                       0.25137
                       0.07936                      -0.96423                       0.25292
                       0.06725                      -0.96485                       0.25405
                       0.05510                      -0.96540                       0.25489
                       0.04303                      -0.96586                       0.25546
                       0.03507                      -0.96612                       0.25571
                       0.03262                      -0.96619                       0.25576
                       0.25930                      -0.94108                       0.21708
        </DataArray>
        <DataArray type="Float32" Name="OrientationZ" NumberOfComponents="3" format="ascii">
                      -0.16331                      -0.26439                      -0.95049
                      -0.16127                      -0.26427                      -0.95087
                      -0.15809                      -0.26401                      -0.95148
                      -0.15405                      -0.26367                      -0.95223
                      -0.14920                      -0.26329                      -0.95311
                      -0.14337                      -0.26288                      -0.95412
                      -0.13632                      -0.26236                      -0.95529
                      -0.12774                      -0.26173                      -0.95665
                      -0.11739                      -0.26100                      -0.95818
                      -0.10512                      -0.26019                      -0.95982
                      -0.09100                      -0.25936                      -0.96148
                      -0.07537                      -0.25855                      -0.96305
                      -0.05893                      -0.25782                      -0.96440
                      -0.04280                      -0.25718                      -0.96542
                      -0.02859                      -0.25670                      -0.96607
                      -0.01845                      -0.25642                      -0.96639
                      -0.01519                      -0.25635                      -0.96646
                      -0.01566                      -0.25636                      -0.96645
                      -0.16399                      -0.26441                      -0.95037
        </DataArray>
      </PointData>
      <Lines>
        <DataArray type="Int32" Name="connectivity" format="ascii">
      0      1
      1      2
      2      3
      3      4
      4      5
      5      6
      6      7
      7      8
      8      9
      9     10
     10     11
     11     12
     12     13
     13     14
     14     15
     15     16
     16     17
     18      0
        </DataArray>
        <DataArray type="Int32" Name="offsets" format="ascii">
      2
      4
      6
      8
     10
     12
     14
     16
     18
     20
     22
     24
     26
     28
     30
     32
     34
     36
        </DataArray>
      </Lines>
    </Piece>
  </PolyData>
</VTKFile>
