<?xml version="1.0"?>
<VTKFile type="PolyData" version="0.1" byte_order="LittleEndian">
  <PolyData>
    <Piece NumberOfPoints="     19" NumberOfVerts="  0" NumberOfLines="     18"
           NumberOfStrips="  0" NumberOfPolys="      0">
      <Points>
        <DataArray type="Float32" NumberOfComponents="3" format="ascii">
                       2.58418                      -3.24614                      89.44200
                       2.34013                      -6.77433                      88.68065
                       2.10392                     -10.30199                      87.91435
                       1.87872                     -13.82893                      87.14151
                       1.66731                     -17.35505                      86.36108
                       1.47273                     -20.88029                      85.57234
                       1.29867                     -24.40456                      84.77458
                       1.14965                     -27.92775                      83.96707
                       1.03103                     -31.44968                      83.14912
                       0.94876                     -34.97005                      82.32016
                       0.90886                     -38.48846                      81.47987
                       0.91671                     -42.00437                      80.62832
                       0.97604                     -45.51717                      79.76601
                       1.08762                     -49.02632                      78.89394
                       1.24787                     -52.53160                      78.01370
                       1.44704                     -56.03346                      77.12753
                       1.66723                     -59.53336                      76.23837
                       1.77977                     -61.28308                      75.79345
                       2.70772                      -1.48194                      89.82169
        </DataArray>
      </Points>
      <PointData>
        <DataArray type="Float32" Name="TranslationalVelocity" NumberOfComponents="3" format="ascii">
                      -0.94752                       0.64826                      -3.01258
                      -1.32366                       1.37554                      -6.26230
                      -1.70067                       2.10622                      -9.50981
                      -2.07893                       2.84135                     -12.75443
                      -2.45884                       3.58152                     -15.99574
                      -2.84099                       4.32701                     -19.23344
                      -3.22629                       5.07803                     -22.46717
                      -3.61601                       5.83466                     -25.69655
                      -4.01180                       6.59686                     -28.92109
                      -4.41564                       7.36431                     -32.14024
                      -4.82960                       8.13636                     -35.35341
                      -5.25570                       8.91201                     -38.56003
                      -5.69554                       9.68998                     -41.75963
                      -6.14992                      10.46887                     -44.95200
                      -6.61841                      11.24743                     -48.13750
                      -7.09880                      12.02490                     -51.31736
                      -7.58650                      12.80142                     -54.49406
                      -7.83143                      13.18953                     -56.08201
                      -0.75961                       0.28531                      -1.38726
        </DataArray>
        <DataArray type="Float32" Name="RotationalVelocity" NumberOfComponents="3" format="ascii">
                       0.92024                      -0.01474                      -0.10969
                       0.91987                      -0.01467                      -0.10988
                       0.91934                      -0.01456                      -0.11021
                       0.91871                      -0.01443                      -0.11064
                       0.91802                      -0.01426                      -0.11119
                       0.91728                      -0.01404                      -0.11195
                       0.91647                      -0.01376                      -0.11300
                       0.91559                      -0.01339                      -0.11445
                       0.91465                      -0.01290                      -0.11641
                       0.91364                      -0.01229                      -0.11893
                       0.91260                      -0.01155                      -0.12203
                       0.91155                      -0.01070                      -0.12565
                       0.91054                      -0.00977                      -0.12963
                       0.90962                      -0.00883                      -0.13370
                       0.90885                      -0.00797                      -0.13744
                       0.90832                      -0.00733                      -0.14028
                       0.90812                      -0.00706                      -0.14147
                       0.90811                      -0.00704                      -0.14154
                       0.92038                      -0.01476                      -0.10963
        </DataArray>
        <DataArray type="Float32" Name="TranslationalAcceleration" NumberOfComponents="3" format="ascii">
                       0.65426                       2.55432                       0.62698
                       0.77057                       5.62722                       1.10111
                       0.90432                       8.69296                       1.59164
                       1.06181                      11.74976                       2.10206
                       1.24769                      14.79664                       2.63434
                       1.46206                      17.83311                       3.19036
                       1.69860                      20.85896                       3.77259
                       1.94357                      23.87405                       4.38426
                       2.17557                      26.87807                       5.02919
                       2.36651                      29.87018                       5.71112
                       2.48355                      32.84869                       6.43293
                       2.49220                      35.81080                       7.19582
                       2.36045                      38.75266                       7.99880
                       2.06422                      41.67007                       8.83859
                       1.59377                      44.56020                       9.70958
                       0.96130                      47.42431                      10.60417
                       0.20974                      50.27060                      11.51345
                      -0.18824                      51.69085                      11.97060
                       0.59969                       1.01636                       0.39341
        </DataArray>
        <DataArray type="Float32" Name="RotationalAcceleration" NumberOfComponents="3" format="ascii">
                       0.05861                       0.04639                       0.00477
                       0.05518                       0.04579                       0.00869
                       0.05064                       0.04491                       0.01430
                       0.04561                       0.04369                       0.02165
                       0.04014                       0.04232                       0.02979
                       0.03411                       0.04116                       0.03720
                       0.02728                       0.04062                       0.04196
                       0.01940                       0.04117                       0.04197
                       0.01027                       0.04326                       0.03523
                      -0.00013                       0.04723                       0.02016
                      -0.01162                       0.05327                      -0.00415
                      -0.02380                       0.06132                      -0.03765
                      -0.03615                       0.07107                      -0.07897
                      -0.04797                       0.08183                      -0.12520
                      -0.05831                       0.09253                      -0.17161
                      -0.06601                       0.10160                      -0.21131
                      -0.06981                       0.10696                      -0.23497
                      -0.07057                       0.10841                      -0.24147
                       0.05992                       0.04665                       0.00316
        </DataArray>
        <DataArray type="Float32" Name="OrientationX" NumberOfComponents="3" format="ascii">
                       0.93778                       0.00903                      -0.34711
                       0.93791                       0.01094                      -0.34669
                       0.93811                       0.01393                      -0.34605
                       0.94280                       0.01477                      -0.33302
                       0.95278                       0.01242                      -0.30340
                       0.95821                       0.01390                      -0.28574
                       0.96341                       0.01641                      -0.26753
                       0.96857                       0.01999                      -0.24796
                       0.97341                       0.02500                      -0.22769
                       0.97767                       0.03179                      -0.20774
                       0.98143                       0.04015                      -0.18759
                       0.98453                       0.04991                      -0.16799
                       0.98659                       0.06101                      -0.15136
                       0.98804                       0.07208                      -0.13628
                       0.98924                       0.08138                      -0.12157
                       0.99035                       0.08708                      -0.10780
                       0.99116                       0.08778                      -0.09948
                       0.99148                       0.08666                      -0.09724
                       0.93774                       0.00840                      -0.34724
        </DataArray>
        <DataArray type="Float32" Name="OrientationY" NumberOfComponents="3" format="ascii">
                       0.34044                      -0.22055                       0.91403
                       0.34041                      -0.22100                       0.91394
                       0.34037                      -0.22161                       0.91380
                       0.32780                      -0.22251                       0.91817
                       0.29839                      -0.22369                       0.92786
                       0.28146                      -0.22470                       0.93290
                       0.26423                      -0.22573                       0.93767
                       0.24593                      -0.22682                       0.94238
                       0.22732                      -0.22795                       0.94677
                       0.20944                      -0.22912                       0.95060
                       0.19178                      -0.23037                       0.95402
                       0.17502                      -0.23168                       0.95692
                       0.16153                      -0.23292                       0.95899
                       0.14958                      -0.23414                       0.96063
                       0.13760                      -0.23539                       0.96211
                       0.12568                      -0.23663                       0.96344
                       0.11780                      -0.23741                       0.96424
                       0.11536                      -0.23762                       0.96448
                       0.34045                      -0.22038                       0.91407
        </DataArray>
        <DataArray type="Float32" Name="OrientationZ" NumberOfComponents="3" format="ascii">
                      -0.06830                      -0.97533                      -0.20991
                      -0.06662                      -0.97521                      -0.21101
                      -0.06396                      -0.97504                      -0.21264
                      -0.06054                      -0.97482                      -0.21462
                      -0.05634                      -0.97458                      -0.21683
                      -0.05123                      -0.97433                      -0.21922
                      -0.04500                      -0.97405                      -0.22181
                      -0.03741                      -0.97373                      -0.22460
                      -0.02823                      -0.97335                      -0.22757
                      -0.01737                      -0.97288                      -0.23067
                      -0.00491                      -0.97227                      -0.23379
                       0.00884                      -0.97151                      -0.23683
                       0.02325                      -0.97058                      -0.23966
                       0.03734                      -0.96953                      -0.24212
                       0.04968                      -0.96849                      -0.24406
                       0.05839                      -0.96769                      -0.24529
                       0.06102                      -0.96744                      -0.24565
                       0.06048                      -0.96748                      -0.24559
                      -0.06885                      -0.97538                      -0.20952
        </DataArray>
      </PointData>
      <Lines>
        <DataArray type="Int32" Name="connectivity" format="ascii">
      0      1
      1      2
      2      3
      3      4
      4      5
      5      6
      6      7
      7      8
      8      9
      9     10
     10     11
     11     12
     12     13
     13     14
     14     15
     15     16
     16     17
     18      0
        </DataArray>
        <DataArray type="Int32" Name="offsets" format="ascii">
      2
      4
      6
      8
     10
     12
     14
     16
     18
     20
     22
     24
     26
     28
     30
     32
     34
     36
        </DataArray>
      </Lines>
    </Piece>
  </PolyData>
</VTKFile>
