<?xml version="1.0"?>
<VTKFile type="PolyData" version="0.1" byte_order="LittleEndian">
  <PolyData>
    <Piece NumberOfPoints="     17" NumberOfVerts="  0" NumberOfLines="      0"
           NumberOfStrips="  0" NumberOfPolys="      0">
      <Points>
        <DataArray type="Float32" NumberOfComponents="3" format="ascii">
                       2.84549                      -0.72098                      93.35442
                       3.09454                      -1.46980                      96.88494
                       3.35091                      -2.21988                     100.41467
                       3.61740                      -2.97173                     103.94328
                       3.89638                      -3.72562                     107.47047
                       4.19044                      -4.48172                     110.99597
                       4.50286                      -5.24027                     114.51936
                       4.83778                      -6.00155                     118.04009
                       5.20024                      -6.76582                     121.55742
                       5.59592                      -7.53319                     125.07049
                       6.03066                      -8.30358                     128.57826
                       6.50975                      -9.07666                     132.07964
                       7.03694                      -9.85187                     135.57363
                       7.61332                     -10.62852                     139.05955
                       8.23582                     -11.40591                     142.53740
                       8.89567                     -12.18344                     146.00839
                       9.57648                     -12.96084                     149.47541
        </DataArray>
      </Points>
      <PointData>
        <DataArray type="Float32" Name="Force" NumberOfComponents="3" format="ascii">
                     179.22576                      78.41094                       4.08093
                     592.69357                     243.96531                       8.72621
                    2212.97849                    -788.40548                    -333.96233
                    3976.21837                   -1591.16838                    -649.10140
                    2466.03544                    -904.97945                    -393.12382
                    5306.08338                   -1689.85810                    -812.97678
                    6381.99200                   -1728.47441                    -951.61898
                    7071.90140                   -1639.50465                   -1050.12364
                    7595.77160                   -1526.14813                   -1147.57821
                    9599.88828                   -1673.88185                   -1500.26487
                   11107.11072                   -1690.97598                   -1827.24139
                   12763.80847                   -1742.76101                   -2241.34726
                    7372.97778                    -925.82089                   -1361.34002
                   14891.91405                   -1700.52028                   -2885.03923
                   14665.37862                   -1478.23810                   -2984.71932
                   21184.30451                   -1797.11026                   -4455.49367
                    8664.58630                    -519.98420                   -1811.68533
        </DataArray>
        <DataArray type="Float32" Name="Moment" NumberOfComponents="3" format="ascii">
                     -18.83472                      19.83760                      10.10508
                     152.42985                     369.66566                     142.56922
                    1064.22842                    2163.30114                     898.02372
                    1456.38411                    2981.26890                    1725.84222
                     118.80989                     127.52124                     647.90397
                    -938.74206                   -2695.86035                     368.75080
                    -611.82597                   -1785.17005                      42.59483
                    -205.61764                     -63.06203                    -342.23051
                     -15.04270                     838.88701                    -396.43873
                     176.70464                    1808.72568                     -89.58132
                     673.14603                    4469.28669                     522.76838
                    1328.78545                    8017.00498                    1686.21137
                     -69.80418                    -509.24016                      53.93929
                   -1521.58618                   -9889.51263                   -1631.68568
                   -1325.41268                   -9405.11604                   -1521.70235
                    -288.77569                   -1415.79495                     123.62190
                    -154.22564                     194.91819                     -59.62298
        </DataArray>
      </PointData>
    </Piece>
  </PolyData>
</VTKFile>
