
Predictions were generated on 11-Oct-2023 at 11:52:26 using FAST.Farm, compiled as a 64-bit application using double precision and with OpenMP
 linked with  NWTC Subroutine Library

Description from the FAST.Farm input file: FAST.Farm     input         - file, using two turbines separated by 3D downstream and an offset of 30m, with a turbulent inflow given by one turbsim box

Time                	RtAxsXT1            	RtAxsYT1            	RtAxsZT1            	RtAxsXT2            	RtAxsYT2            	RtAxsZT2            	RtAxsXT3            	RtAxsYT3            	RtAxsZT3            	RtAxsXT4            	RtAxsYT4            	RtAxsZT4            	RtPosXT1            	RtPosYT1            	RtPosZT1            	RtPosXT2            	RtPosYT2            	RtPosZT2            	RtPosXT3            	RtPosYT3            	RtPosZT3            	RtPosXT4            	RtPosYT4            	RtPosZT4            	YawErrT1            	YawErrT2            	YawErrT3            	YawErrT4            	TIAmbT1             	TIAmbT2             	TIAmbT3             	TIAmbT4             	RtVAmbT1            	RtVAmbT2            	RtVAmbT3            	RtVAmbT4            	RtVRelT1            	RtVRelT2            	RtVRelT3            	RtVRelT4            	RtSkewT1            	RtSkewT2            	RtSkewT3            	RtSkewT4            	RtCtAvgT1           	RtCtAvgT2           	RtCtAvgT3           	RtCtAvgT4           	W1VAmbX             	W1VAmbY             	W1VAmbZ             	W2VAmbX             	W2VAmbY             	W2VAmbZ             	W3VAmbX             	W3VAmbY             	W3VAmbZ             	W4VAmbX             	W4VAmbY             	W4VAmbZ             	W1VDisX             	W1VDisY             	W1VDisZ             	W2VDisX             	W2VDisY             	W2VDisZ             	W3VDisX             	W3VDisY             	W3VDisZ             	W4VDisX             	W4VDisY             	W4VDisZ             	CtT1N01             	CtT1N02             	CtT1N03             	CtT1N04             	CtT1N05             	CtT1N06             	CtT1N07             	CtT1N08             	CtT1N09             	CtT1N10             	CtT1N11             	CtT1N12             	CtT1N13             	CtT1N14             	CtT1N15             	CtT1N16             	CtT1N17             	CtT1N18             	CtT1N19             	CtT1N20             	CtT2N01             	CtT2N02             	CtT2N03             	CtT2N04             	CtT2N05             	CtT2N06             	CtT2N07             	CtT2N08             	CtT2N09             	CtT2N10             	CtT2N11             	CtT2N12             	CtT2N13             	CtT2N14             	CtT2N15             	CtT2N16             	CtT2N17             	CtT2N18             	CtT2N19             	CtT2N20             	CtT3N01             	CtT3N02             	CtT3N03             	CtT3N04             	CtT3N05             	CtT3N06             	CtT3N07             	CtT3N08             	CtT3N09             	CtT3N10             	CtT3N11             	CtT3N12             	CtT3N13             	CtT3N14             	CtT3N15             	CtT3N16             	CtT3N17             	CtT3N18             	CtT3N19             	CtT3N20             	CtT4N01             	CtT4N02             	CtT4N03             	CtT4N04             	CtT4N05             	CtT4N06             	CtT4N07             	CtT4N08             	CtT4N09             	CtT4N10             	CtT4N11             	CtT4N12             	CtT4N13             	CtT4N14             	CtT4N15             	CtT4N16             	CtT4N17             	CtT4N18             	CtT4N19             	CtT4N20             	WkPosXT1D1          	WkPosXT1D2          	WkPosXT1D3          	WkPosXT1D4          	WkPosXT1D5          	WkPosXT1D6          	WkPosXT1D7          	WkPosXT1D8          	WkPosXT1D9          	WkPosXT2D1          	WkPosXT2D2          	WkPosXT2D3          	WkPosXT2D4          	WkPosXT2D5          	WkPosXT2D6          	WkPosXT2D7          	WkPosXT2D8          	WkPosXT2D9          	WkPosXT3D1          	WkPosXT3D2          	WkPosXT3D3          	WkPosXT3D4          	WkPosXT3D5          	WkPosXT3D6          	WkPosXT3D7          	WkPosXT3D8          	WkPosXT3D9          	WkPosXT4D1          	WkPosXT4D2          	WkPosXT4D3          	WkPosXT4D4          	WkPosXT4D5          	WkPosXT4D6          	WkPosXT4D7          	WkPosXT4D8          	WkPosXT4D9          	WkPosYT1D1          	WkPosYT1D2          	WkPosYT1D3          	WkPosYT1D4          	WkPosYT1D5          	WkPosYT1D6          	WkPosYT1D7          	WkPosYT1D8          	WkPosYT1D9          	WkPosYT2D1          	WkPosYT2D2          	WkPosYT2D3          	WkPosYT2D4          	WkPosYT2D5          	WkPosYT2D6          	WkPosYT2D7          	WkPosYT2D8          	WkPosYT2D9          	WkPosYT3D1          	WkPosYT3D2          	WkPosYT3D3          	WkPosYT3D4          	WkPosYT3D5          	WkPosYT3D6          	WkPosYT3D7          	WkPosYT3D8          	WkPosYT3D9          	WkPosYT4D1          	WkPosYT4D2          	WkPosYT4D3          	WkPosYT4D4          	WkPosYT4D5          	WkPosYT4D6          	WkPosYT4D7          	WkPosYT4D8          	WkPosYT4D9          	WkPosZT1D1          	WkPosZT1D2          	WkPosZT1D3          	WkPosZT1D4          	WkPosZT1D5          	WkPosZT1D6          	WkPosZT1D7          	WkPosZT1D8          	WkPosZT1D9          	WkPosZT2D1          	WkPosZT2D2          	WkPosZT2D3          	WkPosZT2D4          	WkPosZT2D5          	WkPosZT2D6          	WkPosZT2D7          	WkPosZT2D8          	WkPosZT2D9          	WkPosZT3D1          	WkPosZT3D2          	WkPosZT3D3          	WkPosZT3D4          	WkPosZT3D5          	WkPosZT3D6          	WkPosZT3D7          	WkPosZT3D8          	WkPosZT3D9          	WkPosZT4D1          	WkPosZT4D2          	WkPosZT4D3          	WkPosZT4D4          	WkPosZT4D5          	WkPosZT4D6          	WkPosZT4D7          	WkPosZT4D8          	WkPosZT4D9          
(s)                 	(-)          	(-)          	(-)          	(-)          	(-)          	(-)          	(-)          	(-)          	(-)          	(-)          	(-)          	(-)          	(m)          	(m)          	(m)          	(m)          	(m)          	(m)          	(m)          	(m)          	(m)          	(m)          	(m)          	(m)          	(deg)        	(deg)        	(deg)        	(deg)        	(percent)    	(percent)    	(percent)    	(percent)    	(m/s)        	(m/s)        	(m/s)        	(m/s)        	(m/s)        	(m/s)        	(m/s)        	(m/s)        	(deg)        	(deg)        	(deg)        	(deg)        	(-)          	(-)          	(-)          	(-)          	(m/s)        	(m/s)        	(m/s)        	(m/s)        	(m/s)        	(m/s)        	(m/s)        	(m/s)        	(m/s)        	(m/s)        	(m/s)        	(m/s)        	(m/s)        	(m/s)        	(m/s)        	(m/s)        	(m/s)        	(m/s)        	(m/s)        	(m/s)        	(m/s)        	(m/s)        	(m/s)        	(m/s)        	(-)          	(-)          	(-)          	(-)          	(-)          	(-)          	(-)          	INVALID      	INVALID      	INVALID      	INVALID      	INVALID      	INVALID      	INVALID      	INVALID      	INVALID      	INVALID      	INVALID      	INVALID      	INVALID      	(-)          	(-)          	(-)          	(-)          	(-)          	(-)          	(-)          	INVALID      	INVALID      	INVALID      	INVALID      	INVALID      	INVALID      	INVALID      	INVALID      	INVALID      	INVALID      	INVALID      	INVALID      	INVALID      	(-)          	(-)          	(-)          	(-)          	(-)          	(-)          	(-)          	INVALID      	INVALID      	INVALID      	INVALID      	INVALID      	INVALID      	INVALID      	INVALID      	INVALID      	INVALID      	INVALID      	INVALID      	INVALID      	(-)          	(-)          	(-)          	(-)          	(-)          	(-)          	(-)          	INVALID      	INVALID      	INVALID      	INVALID      	INVALID      	INVALID      	INVALID      	INVALID      	INVALID      	INVALID      	INVALID      	INVALID      	INVALID      	(m)          	(m)          	(m)          	(m)          	(m)          	(m)          	(m)          	(m)          	(m)          	(m)          	(m)          	(m)          	(m)          	(m)          	(m)          	(m)          	(m)          	(m)          	(m)          	(m)          	(m)          	(m)          	(m)          	(m)          	(m)          	(m)          	(m)          	(m)          	(m)          	(m)          	(m)          	(m)          	(m)          	(m)          	(m)          	(m)          	(m)          	(m)          	(m)          	(m)          	(m)          	(m)          	(m)          	(m)          	(m)          	(m)          	(m)          	(m)          	(m)          	(m)          	(m)          	(m)          	(m)          	(m)          	(m)          	(m)          	(m)          	(m)          	(m)          	(m)          	(m)          	(m)          	(m)          	(m)          	(m)          	(m)          	(m)          	(m)          	(m)          	(m)          	(m)          	(m)          	(m)          	(m)          	(m)          	(m)          	(m)          	(m)          	(m)          	(m)          	(m)          	(m)          	(m)          	(m)          	(m)          	(m)          	(m)          	(m)          	(m)          	(m)          	(m)          	(m)          	(m)          	(m)          	(m)          	(m)          	(m)          	(m)          	(m)          	(m)          	(m)          	(m)          	(m)          	(m)          	(m)          	(m)          	(m)          	(m)          
    0.0000	 9.962E-01	 0.000E+00	-8.716E-02	 9.962E-01	 0.000E+00	-8.716E-02	 9.962E-01	 0.000E+00	-8.716E-02	 9.962E-01	 0.000E+00	-8.716E-02	 1.152E+02	-3.150E+02	 9.000E+01	 1.152E+02	 3.150E+02	 9.000E+01	 7.452E+02	-3.150E+02	 9.000E+01	 7.452E+02	 3.150E+02	 9.000E+01	 1.451E-02	-1.339E-01	-1.206E-01	-8.092E-02	 1.177E+01	 1.199E+01	 1.171E+01	 1.185E+01	 7.814E+00	 7.750E+00	 7.763E+00	 7.787E+00	 7.929E+00	 7.927E+00	 7.951E+00	 7.946E+00	 4.984E+00	 4.915E+00	 4.968E+00	 4.948E+00	 7.768E-01	 7.770E-01	 7.749E-01	 7.753E-01	 8.071E+00	-6.626E-02	-1.286E-02	 7.943E+00	 2.568E-02	 4.386E-02	 7.893E+00	-7.826E-02	 6.592E-02	 8.037E+00	 2.783E-02	 9.822E-02	 5.131E+00	-6.626E-02	 2.444E-01	 4.997E+00	 2.568E-02	 3.016E-01	 6.138E+00	-7.826E-02	 2.195E-01	 6.290E+00	 2.783E-02	 2.511E-01	 0.000E+00	 9.589E-02	 7.492E-01	 8.345E-01	 1.207E-03	 5.036E-06	 1.375E-16	 0.000E+00	 0.000E+00	 0.000E+00	 0.000E+00	 0.000E+00	 0.000E+00	 0.000E+00	 0.000E+00	 0.000E+00	 0.000E+00	 0.000E+00	 0.000E+00	 0.000E+00	 0.000E+00	 9.600E-02	 7.513E-01	 8.345E-01	 1.206E-03	 5.033E-06	 1.374E-16	 0.000E+00	 0.000E+00	 0.000E+00	 0.000E+00	 0.000E+00	 0.000E+00	 0.000E+00	 0.000E+00	 0.000E+00	 0.000E+00	 0.000E+00	 0.000E+00	 0.000E+00	 0.000E+00	 9.585E-02	 7.609E-01	 8.304E-01	 1.200E-03	 5.006E-06	 1.366E-16	 0.000E+00	 0.000E+00	 0.000E+00	 0.000E+00	 0.000E+00	 0.000E+00	 0.000E+00	 0.000E+00	 0.000E+00	 0.000E+00	 0.000E+00	 0.000E+00	 0.000E+00	 0.000E+00	 9.593E-02	 7.560E-01	 8.311E-01	 1.202E-03	 5.017E-06	 1.369E-16	 0.000E+00	 0.000E+00	 0.000E+00	 0.000E+00	 0.000E+00	 0.000E+00	 0.000E+00	 0.000E+00	 0.000E+00	 0.000E+00	 0.000E+00	 0.000E+00	 0.000E+00	 0.000E+00	 0.000E+00	 0.000E+00	 0.000E+00	 0.000E+00	 0.000E+00	 0.000E+00	 0.000E+00	 0.000E+00	 0.000E+00	 0.000E+00	 0.000E+00	 0.000E+00	 0.000E+00	 0.000E+00	 0.000E+00	 0.000E+00	 0.000E+00	 0.000E+00	 0.000E+00	 0.000E+00	 0.000E+00	 0.000E+00	 0.000E+00	 0.000E+00	 0.000E+00	 0.000E+00	 0.000E+00	 0.000E+00	 0.000E+00	 0.000E+00	 0.000E+00	 0.000E+00	 0.000E+00	 0.000E+00	 0.000E+00	 0.000E+00	 0.000E+00	 0.000E+00	 0.000E+00	 0.000E+00	 0.000E+00	 0.000E+00	 0.000E+00	 0.000E+00	 0.000E+00	 0.000E+00	 0.000E+00	 0.000E+00	 0.000E+00	 0.000E+00	 0.000E+00	 0.000E+00	 0.000E+00	 0.000E+00	 0.000E+00	 0.000E+00	 0.000E+00	 0.000E+00	 0.000E+00	 0.000E+00	 0.000E+00	 0.000E+00	 0.000E+00	 0.000E+00	 0.000E+00	 0.000E+00	 0.000E+00	 0.000E+00	 0.000E+00	 0.000E+00	 0.000E+00	 0.000E+00	 0.000E+00	 0.000E+00	 0.000E+00	 0.000E+00	 0.000E+00	 0.000E+00	 0.000E+00	 0.000E+00	 0.000E+00	 0.000E+00	 0.000E+00	 0.000E+00	 0.000E+00	 0.000E+00	 0.000E+00	 0.000E+00	 0.000E+00	 0.000E+00	 0.000E+00	 0.000E+00	 0.000E+00	 0.000E+00	 0.000E+00	 0.000E+00	 0.000E+00	 0.000E+00	 0.000E+00	 0.000E+00	 0.000E+00	 0.000E+00	 0.000E+00	 0.000E+00	 0.000E+00	 0.000E+00	 0.000E+00
    4.0000	 9.959E-01	 1.080E-04	-9.082E-02	 9.959E-01	 1.079E-04	-9.082E-02	 9.959E-01	 1.075E-04	-9.082E-02	 9.959E-01	 1.081E-04	-9.082E-02	 1.154E+02	-3.150E+02	 9.002E+01	 1.154E+02	 3.150E+02	 9.002E+01	 7.454E+02	-3.150E+02	 9.002E+01	 7.454E+02	 3.150E+02	 9.002E+01	 1.533E+00	 1.558E+00	 1.556E+00	 1.610E+00	 1.177E+01	 1.199E+01	 1.171E+01	 1.185E+01	 7.814E+00	 7.750E+00	 7.763E+00	 7.787E+00	 7.614E+00	 7.610E+00	 7.592E+00	 7.598E+00	 3.489E+00	 3.482E+00	 3.439E+00	 3.556E+00	 0.000E+00	 0.000E+00	 0.000E+00	 0.000E+00	 8.071E+00	-6.626E-02	-1.286E-02	 7.943E+00	 2.568E-02	 4.386E-02	 7.893E+00	-7.826E-02	 6.592E-02	 8.037E+00	 2.783E-02	 9.822E-02	 5.429E+00	-6.625E-02	 2.396E-01	 5.304E+00	 2.560E-02	 2.979E-01	 6.444E+00	-7.833E-02	 2.109E-01	 6.593E+00	 2.786E-02	 2.423E-01	 0.000E+00	 9.473E-02	 7.681E-01	 8.797E-01	 5.432E-04	 2.267E-06	 6.187E-17	 0.000E+00	 0.000E+00	 0.000E+00	 0.000E+00	 0.000E+00	 0.000E+00	 0.000E+00	 0.000E+00	 0.000E+00	 0.000E+00	 0.000E+00	 0.000E+00	 0.000E+00	 0.000E+00	 9.469E-02	 7.667E-01	 8.806E-01	 5.475E-04	 2.285E-06	 6.236E-17	 0.000E+00	 0.000E+00	 0.000E+00	 0.000E+00	 0.000E+00	 0.000E+00	 0.000E+00	 0.000E+00	 0.000E+00	 0.000E+00	 0.000E+00	 0.000E+00	 0.000E+00	 0.000E+00	 9.479E-02	 7.595E-01	 8.842E-01	 5.481E-04	 2.287E-06	 6.244E-17	 0.000E+00	 0.000E+00	 0.000E+00	 0.000E+00	 0.000E+00	 0.000E+00	 0.000E+00	 0.000E+00	 0.000E+00	 0.000E+00	 0.000E+00	 0.000E+00	 0.000E+00	 0.000E+00	 9.476E-02	 7.605E-01	 8.834E-01	 5.486E-04	 2.289E-06	 6.249E-17	 0.000E+00	 0.000E+00	 0.000E+00	 0.000E+00	 0.000E+00	 0.000E+00	 0.000E+00	 0.000E+00	 0.000E+00	 0.000E+00	 0.000E+00	 0.000E+00	 0.000E+00	 0.000E+00	 0.000E+00	 0.000E+00	 0.000E+00	 0.000E+00	 0.000E+00	 0.000E+00	 0.000E+00	 0.000E+00	 0.000E+00	 0.000E+00	 0.000E+00	 0.000E+00	 0.000E+00	 0.000E+00	 0.000E+00	 0.000E+00	 0.000E+00	 0.000E+00	 0.000E+00	 0.000E+00	 0.000E+00	 0.000E+00	 0.000E+00	 0.000E+00	 0.000E+00	 0.000E+00	 0.000E+00	 0.000E+00	 0.000E+00	 0.000E+00	 0.000E+00	 0.000E+00	 0.000E+00	 0.000E+00	 0.000E+00	 0.000E+00	 0.000E+00	 0.000E+00	 0.000E+00	 0.000E+00	 0.000E+00	 0.000E+00	 0.000E+00	 0.000E+00	 0.000E+00	 0.000E+00	 0.000E+00	 0.000E+00	 0.000E+00	 0.000E+00	 0.000E+00	 0.000E+00	 0.000E+00	 0.000E+00	 0.000E+00	 0.000E+00	 0.000E+00	 0.000E+00	 0.000E+00	 0.000E+00	 0.000E+00	 0.000E+00	 0.000E+00	 0.000E+00	 0.000E+00	 0.000E+00	 0.000E+00	 0.000E+00	 0.000E+00	 0.000E+00	 0.000E+00	 0.000E+00	 0.000E+00	 0.000E+00	 0.000E+00	 0.000E+00	 0.000E+00	 0.000E+00	 0.000E+00	 0.000E+00	 0.000E+00	 0.000E+00	 0.000E+00	 0.000E+00	 0.000E+00	 0.000E+00	 0.000E+00	 0.000E+00	 0.000E+00	 0.000E+00	 0.000E+00	 0.000E+00	 0.000E+00	 0.000E+00	 0.000E+00	 0.000E+00	 0.000E+00	 0.000E+00	 0.000E+00	 0.000E+00	 0.000E+00	 0.000E+00	 0.000E+00	 0.000E+00	 0.000E+00	 0.000E+00	 0.000E+00
    8.0000	 9.957E-01	 6.808E-05	-9.227E-02	 9.957E-01	 6.802E-05	-9.227E-02	 9.957E-01	 6.748E-05	-9.227E-02	 9.957E-01	 6.798E-05	-9.227E-02	 1.155E+02	-3.150E+02	 9.003E+01	 1.155E+02	 3.150E+02	 9.003E+01	 7.455E+02	-3.150E+02	 9.003E+01	 7.455E+02	 3.150E+02	 9.003E+01	 1.378E+00	 1.389E+00	 1.385E+00	 1.430E+00	 1.194E+01	 1.173E+01	 1.182E+01	 1.187E+01	 7.747E+00	 7.775E+00	 7.814E+00	 7.757E+00	 8.007E+00	 8.005E+00	 7.993E+00	 7.998E+00	 5.504E+00	 5.494E+00	 5.464E+00	 5.546E+00	 0.000E+00	 0.000E+00	 0.000E+00	 0.000E+00	 7.868E+00	 1.559E-01	-6.155E-02	 7.937E+00	-5.139E-02	 4.420E-02	 8.023E+00	-4.218E-02	 1.374E-03	 8.008E+00	 6.192E-02	-1.090E-03	 5.255E+00	 1.559E-01	 1.920E-01	 5.333E+00	-5.143E-02	 2.987E-01	 6.591E+00	-4.222E-02	 1.449E-01	 6.577E+00	 6.196E-02	 1.417E-01	 0.000E+00	 9.341E-02	 7.580E-01	 8.526E-01	 1.289E-03	 5.378E-06	 1.468E-16	 0.000E+00	 0.000E+00	 0.000E+00	 0.000E+00	 0.000E+00	 0.000E+00	 0.000E+00	 0.000E+00	 0.000E+00	 0.000E+00	 0.000E+00	 0.000E+00	 0.000E+00	 0.000E+00	 9.332E-02	 7.577E-01	 8.530E-01	 1.287E-03	 5.370E-06	 1.466E-16	 0.000E+00	 0.000E+00	 0.000E+00	 0.000E+00	 0.000E+00	 0.000E+00	 0.000E+00	 0.000E+00	 0.000E+00	 0.000E+00	 0.000E+00	 0.000E+00	 0.000E+00	 0.000E+00	 9.319E-02	 7.560E-01	 8.552E-01	 1.292E-03	 5.391E-06	 1.471E-16	 0.000E+00	 0.000E+00	 0.000E+00	 0.000E+00	 0.000E+00	 0.000E+00	 0.000E+00	 0.000E+00	 0.000E+00	 0.000E+00	 0.000E+00	 0.000E+00	 0.000E+00	 0.000E+00	 9.321E-02	 7.564E-01	 8.547E-01	 1.295E-03	 5.403E-06	 1.475E-16	 0.000E+00	 0.000E+00	 0.000E+00	 0.000E+00	 0.000E+00	 0.000E+00	 0.000E+00	 0.000E+00	 0.000E+00	 0.000E+00	 0.000E+00	 0.000E+00	 0.000E+00	 0.000E+00	 0.000E+00	 0.000E+00	 0.000E+00	 0.000E+00	 0.000E+00	 0.000E+00	 0.000E+00	 0.000E+00	 0.000E+00	 0.000E+00	 0.000E+00	 0.000E+00	 0.000E+00	 0.000E+00	 0.000E+00	 0.000E+00	 0.000E+00	 0.000E+00	 0.000E+00	 0.000E+00	 0.000E+00	 0.000E+00	 0.000E+00	 0.000E+00	 0.000E+00	 0.000E+00	 0.000E+00	 0.000E+00	 0.000E+00	 0.000E+00	 0.000E+00	 0.000E+00	 0.000E+00	 0.000E+00	 0.000E+00	 0.000E+00	 0.000E+00	 0.000E+00	 0.000E+00	 0.000E+00	 0.000E+00	 0.000E+00	 0.000E+00	 0.000E+00	 0.000E+00	 0.000E+00	 0.000E+00	 0.000E+00	 0.000E+00	 0.000E+00	 0.000E+00	 0.000E+00	 0.000E+00	 0.000E+00	 0.000E+00	 0.000E+00	 0.000E+00	 0.000E+00	 0.000E+00	 0.000E+00	 0.000E+00	 0.000E+00	 0.000E+00	 0.000E+00	 0.000E+00	 0.000E+00	 0.000E+00	 0.000E+00	 0.000E+00	 0.000E+00	 0.000E+00	 0.000E+00	 0.000E+00	 0.000E+00	 0.000E+00	 0.000E+00	 0.000E+00	 0.000E+00	 0.000E+00	 0.000E+00	 0.000E+00	 0.000E+00	 0.000E+00	 0.000E+00	 0.000E+00	 0.000E+00	 0.000E+00	 0.000E+00	 0.000E+00	 0.000E+00	 0.000E+00	 0.000E+00	 0.000E+00	 0.000E+00	 0.000E+00	 0.000E+00	 0.000E+00	 0.000E+00	 0.000E+00	 0.000E+00	 0.000E+00	 0.000E+00	 0.000E+00	 0.000E+00	 0.000E+00	 0.000E+00	 0.000E+00
