
Predictions were generated on 08-Jun-2017 at 12:50:19 using OpenFAST (v8.17.01b-dev, 18-Jan-2017), compiled as a 64-bit application using double precision
 linked with  NWTC Subroutine Library (v2.11.02, 13-Mar-2017); ElastoDyn (v1.04.00a-bjj, 26-Jul-2016); InflowWind (v3.04.00, 31-Dec-2016); AeroDyn (v15.04.02a, 10-May-2017); ServoDyn (v1.06.00a-bjj, 26-Jul-2016)

Description from the FAST input file: FAST Certification Test #13: WindPACT 1.5 MW Baseline with many DOFs with VS and VP and FF turbulence.

Time      	Wind1VelX 	Wind1VelY 	Wind1VelZ 	BldPitch2 	IPDefl1   	IPDefl2   	TwstDefl1 	TwstDefl2 	TwstDefl3 	RootMxb2  	RootMyb2  	RootMzb2  	LSShftFys 	LSShftFzs 	LSSTipMys 	LSSTipMzs 	YawBrTDxp 	YawBrTDyp 	YawBrMxn  	YawBrMyn  	YawBrMzn  	RtSkew    
(s)       	(m/s)     	(m/s)     	(m/s)     	(deg)     	(m)       	(m)       	(deg)     	(deg)     	(deg)     	(kN·m)    	(kN·m)    	(kN·m)    	(kN)      	(kN)      	(kN·m)    	(kN·m)    	(m)       	(m)       	(kN·m)    	(kN·m)    	(kN·m)    	(deg)     
    0.0000	 1.408E+01	-3.656E+00	-3.207E-01	 7.500E+00	 0.000E+00	 0.000E+00	 0.000E+00	 0.000E+00	 0.000E+00	 1.003E+02	 1.275E+01	 7.383E-15	 9.542E-02	-2.298E+02	 1.141E+01	-1.807E+01	 0.000E+00	 0.000E+00	-1.537E+00	-7.670E+02	-1.829E+01	 6.369E+00
    0.0500	 1.419E+01	-3.069E+00	-6.618E-02	 7.500E+00	-5.397E-02	-6.936E-02	 0.000E+00	 0.000E+00	 0.000E+00	 3.004E+02	 1.769E+02	 4.693E+00	 3.467E+00	-2.405E+02	 6.849E+01	-2.415E+01	-1.774E-04	-2.565E-04	 5.630E+02	-7.489E+02	-9.023E+01	 8.055E+00
    0.1000	 1.399E+01	-3.026E+00	 6.324E-01	 7.500E+00	-1.642E-01	-2.133E-01	 0.000E+00	 0.000E+00	 0.000E+00	 4.549E+02	 4.325E+02	 3.259E+00	 3.843E-01	-2.600E+02	 1.439E+02	-2.985E+01	 7.087E-05	-1.178E-03	 7.868E+02	-7.485E+02	-1.047E+02	 1.034E+01
    0.1500	 1.362E+01	-3.464E+00	 9.863E-01	 7.500E+00	-2.549E-01	-3.333E-01	 0.000E+00	 0.000E+00	 0.000E+00	 5.299E+02	 7.371E+02	 1.818E+00	-3.373E+00	-2.781E+02	 1.708E+02	-1.343E+01	 2.277E-03	-2.791E-03	 7.934E+02	-7.740E+02	-7.278E+01	 1.185E+01
    0.2000	 1.387E+01	-3.389E+00	 1.016E+00	 7.500E+00	-3.100E-01	-3.954E-01	 0.000E+00	 0.000E+00	 0.000E+00	 5.303E+02	 1.017E+03	 1.472E+00	-2.851E+00	-2.872E+02	 1.548E+02	 3.072E+01	 7.797E-03	-4.827E-03	 7.150E+02	-7.894E+02	-2.075E+01	 1.255E+01
    0.2500	 1.388E+01	-3.561E+00	 2.512E-01	 7.500E+00	-3.573E-01	-4.211E-01	 0.000E+00	 0.000E+00	 0.000E+00	 4.728E+02	 1.212E+03	 1.910E+00	 3.014E+00	-2.853E+02	 1.385E+02	 6.994E+01	 1.739E-02	-6.947E-03	 6.323E+02	-7.587E+02	 5.679E+00	 1.203E+01
    0.3000	 1.360E+01	-3.701E+00	 1.724E-01	 7.500E+00	-4.151E-01	-4.303E-01	 0.000E+00	 0.000E+00	 0.000E+00	 3.834E+02	 1.314E+03	 2.611E+00	 1.104E+01	-2.783E+02	 1.309E+02	 1.250E+02	 3.125E-02	-9.036E-03	 6.193E+02	-7.106E+02	 3.209E+01	 1.011E+01
    0.3500	 1.353E+01	-2.951E+00	 2.568E-01	 7.500E+00	-4.676E-01	-4.149E-01	 0.000E+00	 0.000E+00	 0.000E+00	 2.665E+02	 1.344E+03	 3.822E+00	 1.478E+01	-2.697E+02	 8.504E+01	 1.627E+02	 4.925E-02	-1.126E-02	 6.664E+02	-7.126E+02	 5.053E+01	 8.487E+00
    0.4000	 1.336E+01	-3.225E+00	 4.225E-02	 7.500E+00	-4.868E-01	-3.612E-01	 0.000E+00	 0.000E+00	 0.000E+00	 1.237E+02	 1.328E+03	 5.904E+00	 1.023E+01	-2.632E+02	-1.753E+01	 1.835E+02	 7.109E-02	-1.385E-02	 7.130E+02	-7.923E+02	 8.321E+01	 7.469E+00
    0.4500	 1.289E+01	-3.108E+00	 6.244E-01	 7.500E+00	-4.666E-01	-2.815E-01	 0.000E+00	 0.000E+00	 0.000E+00	-1.771E+01	 1.279E+03	 8.029E+00	-1.118E+00	-2.594E+02	-1.305E+02	 1.675E+02	 9.626E-02	-1.683E-02	 7.306E+02	-8.947E+02	 1.069E+02	 6.889E+00
    0.5000	 1.285E+01	-3.082E+00	 5.616E-01	 7.500E+00	-4.278E-01	-2.098E-01	 0.000E+00	 0.000E+00	 0.000E+00	-1.156E+02	 1.197E+03	 8.760E+00	-1.191E+01	-2.576E+02	-1.832E+02	 1.198E+02	 1.241E-01	-2.005E-02	 7.347E+02	-9.339E+02	 9.808E+01	 7.488E+00
    0.5500	 1.312E+01	-3.668E+00	 3.619E-01	 7.500E+00	-3.967E-01	-1.738E-01	 0.000E+00	 0.000E+00	 0.000E+00	-1.434E+02	 1.093E+03	 8.312E+00	-1.527E+01	-2.566E+02	-1.666E+02	 7.704E+01	 1.538E-01	-2.336E-02	 7.354E+02	-8.906E+02	 6.682E+01	 8.006E+00
    0.6000	 1.317E+01	-3.542E+00	 5.765E-01	 7.500E+00	-3.830E-01	-1.753E-01	 0.000E+00	 0.000E+00	 0.000E+00	-1.106E+02	 9.920E+02	 7.214E+00	-9.946E+00	-2.559E+02	-1.094E+02	 3.578E+01	 1.845E-01	-2.678E-02	 7.232E+02	-7.951E+02	 6.670E+00	 7.805E+00
    0.6500	 1.250E+01	-3.323E+00	 8.584E-01	 7.500E+00	-3.799E-01	-1.966E-01	 0.000E+00	 0.000E+00	 0.000E+00	-5.277E+01	 9.249E+02	 6.059E+00	-4.791E-01	-2.557E+02	-2.796E+01	-1.572E+01	 2.151E-01	-3.036E-02	 6.902E+02	-6.778E+02	-7.600E+01	 7.136E+00
    0.7000	 1.300E+01	-3.248E+00	-4.771E-01	 7.500E+00	-3.803E-01	-2.173E-01	 0.000E+00	 0.000E+00	 0.000E+00	-8.693E+00	 8.991E+02	 5.317E+00	 6.440E+00	-2.565E+02	 7.119E+01	-5.805E+01	 2.448E-01	-3.412E-02	 6.520E+02	-5.582E+02	-1.385E+02	 6.557E+00
    0.7500	 1.331E+01	-3.774E+00	 3.999E-02	 7.500E+00	-3.867E-01	-2.264E-01	 0.000E+00	 0.000E+00	 0.000E+00	-1.057E+00	 9.196E+02	 5.283E+00	 7.622E+00	-2.574E+02	 1.478E+02	-6.555E+01	 2.732E-01	-3.786E-02	 6.425E+02	-4.725E+02	-1.469E+02	 6.842E+00
    0.8000	 1.248E+01	-3.906E+00	 1.850E-01	 7.500E+00	-4.057E-01	-2.210E-01	 0.000E+00	 0.000E+00	 0.000E+00	-3.933E+01	 9.739E+02	 5.674E+00	 3.841E+00	-2.581E+02	 1.811E+02	-3.371E+01	 3.003E-01	-4.127E-02	 6.826E+02	-4.299E+02	-1.029E+02	 7.193E+00
    0.8500	 1.230E+01	-3.268E+00	 2.021E-01	 7.500E+00	-4.317E-01	-1.968E-01	 0.000E+00	 0.000E+00	 0.000E+00	-1.258E+02	 1.030E+03	 6.633E+00	-2.131E+00	-2.577E+02	 1.862E+02	 1.505E+01	 3.261E-01	-4.407E-02	 7.390E+02	-4.035E+02	-3.716E+01	 8.012E+00
    0.9000	 1.263E+01	-2.918E+00	-2.111E-01	 7.500E+00	-4.504E-01	-1.513E-01	 0.000E+00	 0.000E+00	 0.000E+00	-2.500E+02	 1.055E+03	 8.087E+00	-7.914E+00	-2.568E+02	 2.103E+02	 7.278E+01	 3.505E-01	-4.620E-02	 7.716E+02	-3.484E+02	 3.667E+01	 8.503E+00
    0.9500	 1.324E+01	-2.355E+00	-2.625E-01	 7.500E+00	-4.524E-01	-9.103E-02	 0.000E+00	 0.000E+00	 0.000E+00	-3.825E+02	 1.058E+03	 1.006E+01	-1.169E+01	-2.563E+02	 2.517E+02	 1.011E+02	 3.735E-01	-4.787E-02	 7.589E+02	-2.743E+02	 7.674E+01	 8.004E+00
    1.0000	 1.352E+01	-2.257E+00	-2.899E-01	 7.500E+00	-4.376E-01	-3.331E-02	 0.000E+00	 0.000E+00	 0.000E+00	-4.888E+02	 1.047E+03	 1.133E+01	-1.281E+01	-2.586E+02	 2.832E+02	 1.290E+02	 3.948E-01	-4.940E-02	 7.259E+02	-2.239E+02	 1.094E+02	 7.228E+00
    1.0500	 1.349E+01	-1.649E+00	 4.344E-02	 7.500E+00	-4.150E-01	-1.182E-04	 0.000E+00	 0.000E+00	 0.000E+00	-5.362E+02	 1.028E+03	 1.155E+01	-1.264E+01	-2.621E+02	 3.017E+02	 1.412E+02	 4.138E-01	-5.103E-02	 7.021E+02	-2.039E+02	 1.227E+02	 6.208E+00
    1.1000	 1.371E+01	-1.576E+00	 2.717E-01	 7.500E+00	-3.940E-01	-3.975E-03	 0.000E+00	 0.000E+00	 0.000E+00	-5.141E+02	 1.015E+03	 1.092E+01	-1.158E+01	-2.646E+02	 2.838E+02	 1.428E+02	 4.302E-01	-5.279E-02	 7.157E+02	-2.278E+02	 1.208E+02	 6.679E+00
    1.1500	 1.443E+01	-1.601E+00	 3.356E-01	 7.500E+00	-3.752E-01	-3.752E-02	 0.000E+00	 0.000E+00	 0.000E+00	-4.408E+02	 1.034E+03	 1.028E+01	-9.267E+00	-2.642E+02	 2.142E+02	 1.281E+02	 4.437E-01	-5.449E-02	 7.567E+02	-2.952E+02	 9.700E+01	 7.173E+00
    1.2000	 1.414E+01	-1.214E+00	 1.564E-01	 7.500E+00	-3.558E-01	-8.086E-02	 0.000E+00	 0.000E+00	 0.000E+00	-3.545E+02	 1.061E+03	 9.409E+00	-7.526E+00	-2.596E+02	 1.740E+02	 1.031E+02	 4.540E-01	-5.582E-02	 7.830E+02	-3.191E+02	 6.536E+01	 7.270E+00
    1.2500	 1.381E+01	-1.862E+00	-2.785E-01	 7.500E+00	-3.342E-01	-1.157E-01	 0.000E+00	 0.000E+00	 0.000E+00	-2.874E+02	 1.093E+03	 9.139E+00	-6.476E+00	-2.528E+02	 2.046E+02	 8.131E+01	 4.610E-01	-5.654E-02	 7.787E+02	-2.612E+02	 4.038E+01	 6.949E+00
    1.3000	 1.343E+01	-1.698E+00	-7.454E-01	 7.500E+00	-3.116E-01	-1.324E-01	 0.000E+00	 0.000E+00	 0.000E+00	-2.585E+02	 1.117E+03	 9.122E+00	-5.315E+00	-2.468E+02	 2.435E+02	 8.664E+01	 4.647E-01	-5.661E-02	 7.507E+02	-1.909E+02	 4.298E+01	 6.532E+00
    1.3500	 1.249E+01	-1.676E+00	-3.082E-01	 7.500E+00	-2.914E-01	-1.315E-01	 0.000E+00	 0.000E+00	 0.000E+00	-2.660E+02	 1.135E+03	 9.467E+00	-4.481E+00	-2.437E+02	 2.490E+02	 9.356E+01	 4.648E-01	-5.615E-02	 7.215E+02	-1.631E+02	 4.813E+01	 6.202E+00
    1.4000	 1.295E+01	-9.714E-01	-5.993E-01	 7.500E+00	-2.778E-01	-1.189E-01	 0.000E+00	 0.000E+00	 0.000E+00	-2.992E+02	 1.148E+03	 9.931E+00	-4.982E+00	-2.462E+02	 2.303E+02	 9.936E+01	 4.615E-01	-5.532E-02	 7.168E+02	-1.876E+02	 5.526E+01	 5.885E+00
    1.4500	 1.280E+01	-1.390E+00	-5.593E-01	 7.500E+00	-2.680E-01	-1.007E-01	 0.000E+00	 0.000E+00	 0.000E+00	-3.414E+02	 1.167E+03	 1.076E+01	-6.953E+00	-2.536E+02	 2.202E+02	 8.976E+01	 4.546E-01	-5.421E-02	 7.346E+02	-2.339E+02	 5.112E+01	 5.591E+00
    1.5000	 1.269E+01	-2.016E+00	-2.374E-01	 7.500E+00	-2.565E-01	-8.369E-02	 0.000E+00	 0.000E+00	 0.000E+00	-3.722E+02	 1.190E+03	 1.156E+01	-8.703E+00	-2.606E+02	 2.091E+02	 3.865E+01	 4.443E-01	-5.284E-02	 7.512E+02	-2.900E+02	 5.537E+00	 5.574E+00
    1.5500	 1.203E+01	-1.928E+00	-3.128E-01	 7.500E+00	-2.397E-01	-7.797E-02	 0.000E+00	 0.000E+00	 0.000E+00	-3.774E+02	 1.198E+03	 1.175E+01	-8.640E+00	-2.658E+02	 1.964E+02	 1.885E+00	 4.310E-01	-5.110E-02	 7.594E+02	-3.398E+02	-3.140E+01	 5.553E+00
    1.6000	 1.232E+01	-1.893E+00	-5.582E-01	 7.500E+00	-2.184E-01	-9.311E-02	 0.000E+00	 0.000E+00	 0.000E+00	-3.427E+02	 1.213E+03	 1.199E+01	-7.046E+00	-2.654E+02	 1.906E+02	-4.477E+01	 4.149E-01	-4.891E-02	 7.518E+02	-3.567E+02	-8.337E+01	 5.072E+00
    1.6500	 1.293E+01	-1.727E+00	-1.196E+00	 7.500E+00	-1.951E-01	-1.312E-01	 0.000E+00	 0.000E+00	 0.000E+00	-2.720E+02	 1.251E+03	 1.170E+01	-4.637E+00	-2.603E+02	 1.969E+02	-1.146E+02	 3.962E-01	-4.629E-02	 7.294E+02	-3.404E+02	-1.611E+02	 4.760E+00
    1.7000	 1.297E+01	-1.521E+00	-1.251E+00	 7.500E+00	-1.720E-01	-1.873E-01	 0.000E+00	 0.000E+00	 0.000E+00	-1.791E+02	 1.329E+03	 1.087E+01	-3.569E+00	-2.552E+02	 2.425E+02	-1.754E+02	 3.750E-01	-4.339E-02	 7.120E+02	-2.870E+02	-2.259E+02	 4.563E+00
    1.7500	 1.142E+01	-1.868E+00	-1.401E+00	 7.500E+00	-1.516E-01	-2.533E-01	 0.000E+00	 0.000E+00	 0.000E+00	-7.940E+01	 1.442E+03	 1.013E+01	-5.517E+00	-2.518E+02	 3.247E+02	-2.284E+02	 3.518E-01	-4.040E-02	 7.057E+02	-2.107E+02	-2.730E+02	 4.056E+00
    1.8000	 1.127E+01	-1.736E+00	-1.587E+00	 7.500E+00	-1.349E-01	-3.201E-01	 0.000E+00	 0.000E+00	 0.000E+00	 9.859E+00	 1.550E+03	 9.514E+00	-9.522E+00	-2.524E+02	 4.029E+02	-2.431E+02	 3.272E-01	-3.751E-02	 7.194E+02	-1.574E+02	-2.755E+02	 4.065E+00
    1.8500	 1.129E+01	-1.609E+00	-9.246E-01	 7.500E+00	-1.204E-01	-3.766E-01	 0.000E+00	 0.000E+00	 0.000E+00	 7.649E+01	 1.636E+03	 9.101E+00	-1.368E+01	-2.559E+02	 4.680E+02	-2.533E+02	 3.021E-01	-3.481E-02	 7.408E+02	-1.291E+02	-2.729E+02	 5.068E+00
    1.9000	 1.186E+01	-1.778E+00	-1.488E+00	 7.500E+00	-1.081E-01	-4.133E-01	 0.000E+00	 0.000E+00	 0.000E+00	 1.166E+02	 1.707E+03	 9.254E+00	-1.570E+01	-2.609E+02	 5.491E+02	-2.325E+02	 2.771E-01	-3.236E-02	 7.602E+02	-8.845E+01	-2.468E+02	 5.547E+00
    1.9500	 1.244E+01	-1.676E+00	-1.784E+00	 7.500E+00	-9.660E-02	-4.276E-01	 0.000E+00	 0.000E+00	 0.000E+00	 1.331E+02	 1.756E+03	 9.655E+00	-1.420E+01	-2.663E+02	 6.338E+02	-1.383E+02	 2.529E-01	-3.020E-02	 7.690E+02	-3.994E+01	-1.586E+02	 5.745E+00
    2.0000	 1.221E+01	-2.365E+00	-2.072E+00	 7.500E+00	-8.294E-02	-4.254E-01	 0.000E+00	 0.000E+00	 0.000E+00	 1.380E+02	 1.769E+03	 9.925E+00	-9.615E+00	-2.699E+02	 6.696E+02	-4.041E+00	 2.301E-01	-2.837E-02	 7.655E+02	-2.799E+01	-3.987E+01	 5.166E+00
    2.0500	 1.253E+01	-2.659E+00	-2.032E+00	 7.500E+00	-6.742E-02	-4.190E-01	 0.000E+00	 0.000E+00	 0.000E+00	 1.491E+02	 1.736E+03	 9.560E+00	-4.494E+00	-2.711E+02	 6.418E+02	 9.615E+01	 2.088E-01	-2.690E-02	 7.553E+02	-6.964E+01	 4.372E+01	 5.469E+00
    2.1000	 1.300E+01	-2.927E+00	-1.899E+00	 7.500E+00	-5.413E-02	-4.206E-01	 0.000E+00	 0.000E+00	 0.000E+00	 1.835E+02	 1.663E+03	 9.089E+00	-1.356E+00	-2.709E+02	 5.618E+02	 1.347E+02	 1.894E-01	-2.577E-02	 7.531E+02	-1.625E+02	 7.207E+01	 5.629E+00
    2.1500	 1.306E+01	-3.431E+00	-1.754E+00	 7.500E+00	-4.645E-02	-4.324E-01	 0.000E+00	 0.000E+00	 0.000E+00	 2.403E+02	 1.566E+03	 7.646E+00	-6.567E-01	-2.708E+02	 4.560E+02	 1.321E+02	 1.718E-01	-2.492E-02	 7.585E+02	-2.873E+02	 6.739E+01	 6.101E+00
    2.2000	 1.302E+01	-3.621E+00	-2.028E+00	 7.500E+00	-4.663E-02	-4.504E-01	 0.000E+00	 0.000E+00	 0.000E+00	 3.138E+02	 1.505E+03	 6.072E+00	-2.589E+00	-2.717E+02	 3.860E+02	 1.314E+02	 1.563E-01	-2.424E-02	 7.732E+02	-3.824E+02	 7.260E+01	 6.154E+00
    2.2500	 1.305E+01	-3.060E+00	-2.289E+00	 7.500E+00	-5.280E-02	-4.704E-01	 0.000E+00	 0.000E+00	 0.000E+00	 3.903E+02	 1.466E+03	 4.579E+00	-4.617E+00	-2.726E+02	 3.177E+02	 1.529E+02	 1.430E-01	-2.370E-02	 7.859E+02	-4.677E+02	 1.001E+02	 5.843E+00
    2.3000	 1.334E+01	-3.237E+00	-2.128E+00	 7.500E+00	-6.037E-02	-4.869E-01	 0.000E+00	 0.000E+00	 0.000E+00	 4.521E+02	 1.410E+03	 3.185E+00	-5.207E+00	-2.711E+02	 2.222E+02	 1.489E+02	 1.322E-01	-2.333E-02	 7.768E+02	-5.603E+02	 9.863E+01	 5.554E+00
    2.3500	 1.331E+01	-3.110E+00	-1.696E+00	 7.500E+00	-6.750E-02	-4.940E-01	 0.000E+00	 0.000E+00	 0.000E+00	 4.925E+02	 1.355E+03	 2.710E+00	-4.369E+00	-2.698E+02	 1.500E+02	 1.331E+02	 1.238E-01	-2.318E-02	 7.565E+02	-6.243E+02	 8.104E+01	 5.224E+00
    2.4000	 1.345E+01	-3.665E+00	-2.237E+00	 7.500E+00	-7.544E-02	-4.888E-01	 0.000E+00	 0.000E+00	 0.000E+00	 5.076E+02	 1.320E+03	 2.623E+00	-2.821E+00	-2.687E+02	 1.542E+02	 1.089E+02	 1.177E-01	-2.330E-02	 7.368E+02	-6.181E+02	 5.281E+01	 4.342E+00
    2.4500	 1.365E+01	-3.369E+00	-2.577E+00	 7.500E+00	-8.586E-02	-4.741E-01	 0.000E+00	 0.000E+00	 0.000E+00	 5.047E+02	 1.291E+03	 2.709E+00	-1.359E+00	-2.682E+02	 1.982E+02	 9.773E+01	 1.140E-01	-2.371E-02	 7.297E+02	-5.806E+02	 3.735E+01	 4.002E+00
    2.5000	 1.346E+01	-2.797E+00	-2.024E+00	 7.500E+00	-9.862E-02	-4.538E-01	 0.000E+00	 0.000E+00	 0.000E+00	 4.930E+02	 1.252E+03	 2.775E+00	-1.303E-01	-2.675E+02	 2.101E+02	 1.013E+02	 1.125E-01	-2.436E-02	 7.356E+02	-5.742E+02	 3.708E+01	 3.676E+00
    2.5500	 1.370E+01	-2.602E+00	-1.740E+00	 7.500E+00	-1.126E-01	-4.321E-01	 0.000E+00	 0.000E+00	 0.000E+00	 4.829E+02	 1.213E+03	 3.052E+00	 1.413E-01	-2.663E+02	 1.792E+02	 1.134E+02	 1.131E-01	-2.514E-02	 7.485E+02	-6.042E+02	 4.803E+01	 3.864E+00
    2.6000	 1.330E+01	-2.275E+00	-1.386E+00	 7.500E+00	-1.274E-01	-4.165E-01	 0.000E+00	 0.000E+00	 0.000E+00	 4.810E+02	 1.163E+03	 3.214E+00	 1.562E-01	-2.636E+02	 1.332E+02	 9.327E+01	 1.158E-01	-2.592E-02	 7.511E+02	-6.392E+02	 2.817E+01	 4.600E+00
    2.6500	 1.352E+01	-2.151E+00	-2.106E+00	 7.500E+00	-1.453E-01	-4.132E-01	 0.000E+00	 0.000E+00	 0.000E+00	 4.953E+02	 1.120E+03	 3.273E+00	-1.055E+00	-2.623E+02	 1.506E+02	 6.668E+01	 1.204E-01	-2.665E-02	 7.431E+02	-6.150E+02	 6.050E+00	 5.217E+00
    2.7000	 1.332E+01	-2.043E+00	-1.654E+00	 7.500E+00	-1.710E-01	-4.233E-01	 0.000E+00	 0.000E+00	 0.000E+00	 5.211E+02	 1.118E+03	 3.121E+00	-2.192E+00	-2.626E+02	 2.031E+02	 4.534E+01	 1.268E-01	-2.736E-02	 7.410E+02	-5.577E+02	-1.217E+01	 5.624E+00
    2.7500	 1.282E+01	-1.968E+00	-1.426E+00	 7.500E+00	-2.074E-01	-4.415E-01	 0.000E+00	 0.000E+00	 0.000E+00	 5.456E+02	 1.152E+03	 2.323E+00	-3.446E+00	-2.640E+02	 2.565E+02	 3.539E+01	 1.348E-01	-2.816E-02	 7.442E+02	-4.993E+02	-1.892E+01	 6.264E+00
    2.8000	 1.304E+01	-2.724E+00	-1.750E+00	 7.500E+00	-2.531E-01	-4.605E-01	 0.000E+00	 0.000E+00	 0.000E+00	 5.599E+02	 1.223E+03	 2.267E+00	-4.382E+00	-2.668E+02	 2.724E+02	 4.268E+01	 1.445E-01	-2.916E-02	 7.563E+02	-4.778E+02	-9.535E+00	 7.008E+00
    2.8500	 1.226E+01	-3.161E+00	-1.192E+00	 7.500E+00	-2.989E-01	-4.727E-01	 0.000E+00	 0.000E+00	 0.000E+00	 5.525E+02	 1.283E+03	 1.875E+00	-5.705E+00	-2.695E+02	 3.011E+02	 4.375E+01	 1.562E-01	-3.039E-02	 7.649E+02	-4.448E+02	-4.112E+00	 7.853E+00
    2.9000	 1.275E+01	-2.662E+00	-1.376E+00	 7.500E+00	-3.370E-01	-4.743E-01	 0.000E+00	 0.000E+00	 0.000E+00	 5.232E+02	 1.313E+03	 2.219E+00	-7.016E+00	-2.713E+02	 3.831E+02	 5.496E+01	 1.698E-01	-3.178E-02	 7.711E+02	-3.596E+02	 1.178E+01	 8.202E+00
    2.9500	 1.273E+01	-2.606E+00	-1.224E+00	 7.500E+00	-3.658E-01	-4.638E-01	 0.000E+00	 0.000E+00	 0.000E+00	 4.781E+02	 1.336E+03	 2.867E+00	-7.381E+00	-2.720E+02	 4.581E+02	 1.353E+02	 1.856E-01	-3.328E-02	 7.796E+02	-2.761E+02	 9.318E+01	 8.243E+00
    3.0000	 1.324E+01	-2.219E+00	-8.231E-01	 7.500E+00	-3.857E-01	-4.456E-01	 0.000E+00	 0.000E+00	 0.000E+00	 4.254E+02	 1.347E+03	 3.666E+00	-5.703E+00	-2.696E+02	 4.407E+02	 2.276E+02	 2.035E-01	-3.483E-02	 7.851E+02	-2.673E+02	 1.797E+02	 8.036E+00
    3.0500	 1.268E+01	-2.644E+00	-3.037E-01	 7.500E+00	-3.973E-01	-4.248E-01	 0.000E+00	 0.000E+00	 0.000E+00	 3.728E+02	 1.340E+03	 4.235E+00	-3.887E+00	-2.655E+02	 3.455E+02	 2.725E+02	 2.229E-01	-3.641E-02	 7.860E+02	-3.272E+02	 2.184E+02	 7.416E+00
    3.1000	 1.285E+01	-2.777E+00	-3.607E-01	 7.500E+00	-4.010E-01	-4.046E-01	 0.000E+00	 0.000E+00	 0.000E+00	 3.287E+02	 1.323E+03	 4.742E+00	-2.687E+00	-2.623E+02	 2.175E+02	 2.535E+02	 2.434E-01	-3.798E-02	 7.831E+02	-4.257E+02	 1.955E+02	 7.292E+00
    3.1500	 1.264E+01	-3.100E+00	 7.990E-02	 7.500E+00	-3.981E-01	-3.859E-01	 0.000E+00	 0.000E+00	 0.000E+00	 2.936E+02	 1.282E+03	 4.628E+00	-2.980E+00	-2.609E+02	 1.289E+02	 1.987E+02	 2.643E-01	-3.951E-02	 7.719E+02	-4.990E+02	 1.429E+02	 7.301E+00
    3.2000	 1.242E+01	-2.525E+00	 8.447E-01	 7.500E+00	-3.946E-01	-3.691E-01	 0.000E+00	 0.000E+00	 0.000E+00	 2.698E+02	 1.244E+03	 4.666E+00	-4.518E+00	-2.626E+02	 9.941E+01	 1.916E+02	 2.851E-01	-4.093E-02	 7.696E+02	-5.272E+02	 1.417E+02	 7.272E+00
    3.2500	 1.225E+01	-3.044E+00	 6.667E-01	 7.500E+00	-3.987E-01	-3.534E-01	 0.000E+00	 0.000E+00	 0.000E+00	 2.521E+02	 1.216E+03	 4.799E+00	-5.140E+00	-2.644E+02	 7.588E+01	 2.293E+02	 3.055E-01	-4.221E-02	 7.735E+02	-5.443E+02	 1.818E+02	 7.332E+00
    3.3000	 1.264E+01	-3.358E+00	 8.105E-01	 7.500E+00	-4.136E-01	-3.364E-01	 0.000E+00	 0.000E+00	 0.000E+00	 2.312E+02	 1.185E+03	 4.666E+00	-4.563E+00	-2.642E+02	 4.942E+01	 2.521E+02	 3.249E-01	-4.328E-02	 7.749E+02	-5.505E+02	 2.028E+02	 7.395E+00
    3.3500	 1.297E+01	-3.044E+00	 1.704E+00	 7.500E+00	-4.331E-01	-3.166E-01	 0.000E+00	 0.000E+00	 0.000E+00	 2.009E+02	 1.141E+03	 4.902E+00	-3.163E+00	-2.629E+02	 5.062E+01	 2.493E+02	 3.429E-01	-4.411E-02	 7.717E+02	-5.246E+02	 1.955E+02	 6.829E+00
    3.4000	 1.355E+01	-2.984E+00	 1.270E+00	 7.500E+00	-4.477E-01	-2.909E-01	 0.000E+00	 0.000E+00	 0.000E+00	 1.566E+02	 1.083E+03	 5.157E+00	-1.903E+00	-2.617E+02	 9.822E+01	 2.461E+02	 3.589E-01	-4.465E-02	 7.652E+02	-4.589E+02	 1.885E+02	 6.253E+00
    3.4500	 1.331E+01	-2.744E+00	 7.420E-01	 7.500E+00	-4.539E-01	-2.582E-01	 0.000E+00	 0.000E+00	 0.000E+00	 9.853E+01	 1.025E+03	 5.623E+00	-1.387E+00	-2.598E+02	 1.555E+02	 2.331E+02	 3.727E-01	-4.490E-02	 7.571E+02	-3.886E+02	 1.744E+02	 6.785E+00
    3.5000	 1.245E+01	-2.880E+00	 8.550E-01	 7.500E+00	-4.536E-01	-2.221E-01	 0.000E+00	 0.000E+00	 0.000E+00	 3.257E+01	 9.952E+02	 6.518E+00	-1.857E+00	-2.584E+02	 1.911E+02	 2.128E+02	 3.841E-01	-4.484E-02	 7.583E+02	-3.436E+02	 1.555E+02	 7.069E+00
    3.5500	 1.265E+01	-3.111E+00	 5.891E-01	 7.500E+00	-4.510E-01	-1.878E-01	 0.000E+00	 0.000E+00	 0.000E+00	-3.596E+01	 9.888E+02	 7.046E+00	-3.199E+00	-2.568E+02	 2.013E+02	 1.659E+02	 3.930E-01	-4.450E-02	 7.617E+02	-3.238E+02	 1.128E+02	 6.657E+00
    3.6000	 1.252E+01	-3.148E+00	-1.769E-01	 7.500E+00	-4.468E-01	-1.595E-01	 0.000E+00	 0.000E+00	 0.000E+00	-1.014E+02	 9.991E+02	 7.669E+00	-5.204E+00	-2.553E+02	 2.300E+02	 8.875E+01	 3.996E-01	-4.388E-02	 7.705E+02	-2.851E+02	 4.114E+01	 5.955E+00
    3.6500	 1.304E+01	-2.834E+00	 1.313E-01	 7.500E+00	-4.408E-01	-1.376E-01	 0.000E+00	 0.000E+00	 0.000E+00	-1.619E+02	 1.017E+03	 8.317E+00	-7.057E+00	-2.545E+02	 2.925E+02	 2.851E+01	 4.038E-01	-4.305E-02	 7.758E+02	-2.153E+02	-1.391E+01	 5.489E+00
    3.7000	 1.308E+01	-3.420E+00	 3.037E-01	 7.500E+00	-4.385E-01	-1.211E-01	 0.000E+00	 0.000E+00	 0.000E+00	-2.174E+02	 1.039E+03	 8.959E+00	-8.625E+00	-2.554E+02	 3.786E+02	 7.261E+00	 4.059E-01	-4.210E-02	 7.789E+02	-1.270E+02	-3.081E+01	 5.716E+00
    3.7500	 1.265E+01	-3.236E+00	 3.117E-01	 7.500E+00	-4.461E-01	-1.099E-01	 0.000E+00	 0.000E+00	 0.000E+00	-2.664E+02	 1.065E+03	 9.617E+00	-9.229E+00	-2.578E+02	 4.530E+02	 1.970E+01	 4.060E-01	-4.114E-02	 7.797E+02	-5.616E+01	-1.684E+01	 6.438E+00
    3.8000	 1.311E+01	-2.956E+00	-6.483E-01	 7.500E+00	-4.614E-01	-1.032E-01	 0.000E+00	 0.000E+00	 0.000E+00	-3.039E+02	 1.116E+03	 1.041E+01	-8.059E+00	-2.604E+02	 4.777E+02	 2.084E+01	 4.044E-01	-4.025E-02	 7.804E+02	-3.685E+01	-1.975E+01	 7.059E+00
    3.8500	 1.254E+01	-2.743E+00	-1.221E+00	 7.500E+00	-4.756E-01	-1.007E-01	 0.000E+00	 0.000E+00	 0.000E+00	-3.321E+02	 1.173E+03	 1.094E+01	-5.855E+00	-2.631E+02	 4.662E+02	 3.595E+01	 4.013E-01	-3.940E-02	 7.815E+02	-5.797E+01	-1.182E+01	 6.976E+00
    3.9000	 1.308E+01	-3.053E+00	-8.846E-01	 7.500E+00	-4.824E-01	-1.030E-01	 0.000E+00	 0.000E+00	 0.000E+00	-3.522E+02	 1.215E+03	 1.128E+01	-3.642E+00	-2.652E+02	 4.294E+02	 7.343E+01	 3.969E-01	-3.852E-02	 7.853E+02	-1.062E+02	 1.832E+01	 6.985E+00
    3.9500	 1.322E+01	-2.901E+00	-8.949E-01	 7.500E+00	-4.796E-01	-1.088E-01	 0.000E+00	 0.000E+00	 0.000E+00	-3.659E+02	 1.232E+03	 1.151E+01	-1.600E+00	-2.653E+02	 3.570E+02	 1.120E+02	 3.915E-01	-3.755E-02	 7.865E+02	-1.843E+02	 5.024E+01	 6.464E+00
    4.0000	 1.330E+01	-2.896E+00	-7.671E-01	 7.500E+00	-4.692E-01	-1.150E-01	 0.000E+00	 0.000E+00	 0.000E+00	-3.757E+02	 1.233E+03	 1.153E+01	-1.059E+00	-2.629E+02	 2.877E+02	 1.084E+02	 3.850E-01	-3.641E-02	 7.805E+02	-2.532E+02	 4.523E+01	 6.140E+00
    4.0500	 1.341E+01	-2.045E+00	-2.626E-01	 7.500E+00	-4.525E-01	-1.171E-01	 0.000E+00	 0.000E+00	 0.000E+00	-3.856E+02	 1.238E+03	 1.153E+01	-1.498E+00	-2.605E+02	 2.254E+02	 7.516E+01	 3.774E-01	-3.513E-02	 7.758E+02	-3.139E+02	 1.329E+01	 6.303E+00
    4.1000	 1.366E+01	-1.809E+00	-2.123E-01	 7.500E+00	-4.284E-01	-1.117E-01	 0.000E+00	 0.000E+00	 0.000E+00	-3.977E+02	 1.253E+03	 1.172E+01	-2.318E+00	-2.589E+02	 1.617E+02	 3.467E+01	 3.687E-01	-3.377E-02	 7.739E+02	-3.772E+02	-2.487E+01	 6.218E+00
    4.1500	 1.371E+01	-1.450E+00	-9.178E-01	 7.500E+00	-3.963E-01	-9.959E-02	 0.000E+00	 0.000E+00	 0.000E+00	-4.137E+02	 1.244E+03	 1.164E+01	-3.259E+00	-2.601E+02	 1.133E+02	 4.661E+01	 3.587E-01	-3.240E-02	 7.731E+02	-4.349E+02	-9.906E+00	 6.425E+00
    4.2000	 1.432E+01	-1.415E+00	-1.231E+00	 7.500E+00	-3.588E-01	-8.486E-02	 0.000E+00	 0.000E+00	 0.000E+00	-4.255E+02	 1.203E+03	 1.161E+01	-4.075E+00	-2.622E+02	 1.084E+02	 8.921E+01	 3.477E-01	-3.109E-02	 7.672E+02	-4.568E+02	 3.610E+01	 6.536E+00
    4.2500	 1.405E+01	-1.747E+00	-9.303E-01	 7.500E+00	-3.206E-01	-7.283E-02	 0.000E+00	 0.000E+00	 0.000E+00	-4.271E+02	 1.145E+03	 1.154E+01	-3.910E+00	-2.648E+02	 1.226E+02	 1.415E+02	 3.358E-01	-2.987E-02	 7.640E+02	-4.637E+02	 8.832E+01	 6.642E+00
    4.3000	 1.376E+01	-1.587E+00	-1.027E-01	 7.500E+00	-2.866E-01	-6.874E-02	 0.000E+00	 0.000E+00	 0.000E+00	-4.135E+02	 1.098E+03	 1.125E+01	-2.762E+00	-2.667E+02	 1.752E+02	 1.818E+02	 3.231E-01	-2.872E-02	 7.646E+02	-4.328E+02	 1.248E+02	 6.504E+00
    4.3500	 1.383E+01	-8.673E-01	-1.986E-01	 7.500E+00	-2.581E-01	-7.473E-02	 0.000E+00	 0.000E+00	 0.000E+00	-3.840E+02	 1.085E+03	 1.102E+01	-1.346E+00	-2.666E+02	 2.703E+02	 2.044E+02	 3.096E-01	-2.765E-02	 7.663E+02	-3.545E+02	 1.425E+02	 6.207E+00
    4.4000	 1.294E+01	-1.917E-01	-5.239E-01	 7.500E+00	-2.289E-01	-8.995E-02	 0.000E+00	 0.000E+00	 0.000E+00	-3.447E+02	 1.107E+03	 1.091E+01	-1.044E-01	-2.658E+02	 3.484E+02	 2.259E+02	 2.957E-01	-2.665E-02	 7.716E+02	-2.852E+02	 1.592E+02	 5.938E+00
    4.4500	 1.300E+01	-1.022E-01	-3.059E-01	 7.500E+00	-1.944E-01	-1.130E-01	 0.000E+00	 0.000E+00	 0.000E+00	-2.999E+02	 1.150E+03	 1.071E+01	 8.309E-01	-2.630E+02	 3.694E+02	 2.038E+02	 2.814E-01	-2.573E-02	 7.631E+02	-2.627E+02	 1.346E+02	 5.567E+00
    4.5000	 1.335E+01	 1.023E-01	-4.600E-01	 7.500E+00	-1.600E-01	-1.451E-01	 0.000E+00	 0.000E+00	 0.000E+00	-2.476E+02	 1.217E+03	 1.089E+01	 9.238E-02	-2.601E+02	 3.807E+02	 1.308E+02	 2.670E-01	-2.487E-02	 7.495E+02	-2.516E+02	 6.505E+01	 4.771E+00
    4.5500	 1.315E+01	 2.356E-01	-3.881E-02	 7.500E+00	-1.347E-01	-1.854E-01	 0.000E+00	 0.000E+00	 0.000E+00	-1.917E+02	 1.297E+03	 1.079E+01	-1.333E+00	-2.595E+02	 4.062E+02	 4.904E+01	 2.528E-01	-2.408E-02	 7.459E+02	-2.382E+02	-1.210E+01	 4.223E+00
    4.6000	 1.335E+01	-4.528E-01	 2.580E-01	 7.500E+00	-1.211E-01	-2.291E-01	 0.000E+00	 0.000E+00	 0.000E+00	-1.378E+02	 1.385E+03	 1.050E+01	-3.253E+00	-2.613E+02	 4.467E+02	-2.101E+01	 2.390E-01	-2.342E-02	 7.506E+02	-2.202E+02	-7.678E+01	 4.047E+00
    4.6500	 1.331E+01	-6.062E-01	 1.975E-01	 7.500E+00	-1.157E-01	-2.691E-01	 0.000E+00	 0.000E+00	 0.000E+00	-9.325E+01	 1.467E+03	 1.046E+01	-4.608E+00	-2.643E+02	 4.595E+02	-5.676E+01	 2.259E-01	-2.299E-02	 7.619E+02	-2.286E+02	-1.095E+02	 4.172E+00
    4.7000	 1.311E+01	-8.965E-01	 2.683E-01	 7.500E+00	-1.126E-01	-2.980E-01	 0.000E+00	 0.000E+00	 0.000E+00	-6.378E+01	 1.516E+03	 1.025E+01	-4.483E+00	-2.679E+02	 4.071E+02	-5.041E+01	 2.141E-01	-2.286E-02	 7.707E+02	-2.941E+02	-1.043E+02	 5.035E+00
    4.7500	 1.359E+01	-8.874E-01	-8.904E-02	 7.500E+00	-1.086E-01	-3.135E-01	 0.000E+00	 0.000E+00	 0.000E+00	-4.384E+01	 1.542E+03	 1.051E+01	-3.764E+00	-2.701E+02	 3.283E+02	-4.368E+01	 2.038E-01	-2.304E-02	 7.684E+02	-3.768E+02	-9.942E+01	 5.527E+00
    4.8000	 1.352E+01	-6.811E-01	-2.808E-01	 7.500E+00	-1.061E-01	-3.203E-01	 0.000E+00	 0.000E+00	 0.000E+00	-2.522E+01	 1.546E+03	 1.061E+01	-1.802E+00	-2.715E+02	 2.591E+02	-1.528E+01	 1.954E-01	-2.347E-02	 7.620E+02	-4.501E+02	-7.649E+01	 5.610E+00
    4.8500	 1.392E+01	-9.221E-01	-6.792E-01	 7.500E+00	-1.078E-01	-3.268E-01	 0.000E+00	 0.000E+00	 0.000E+00	 5.194E+00	 1.532E+03	 1.023E+01	 1.207E-01	-2.721E+02	 2.168E+02	 5.148E+01	 1.892E-01	-2.405E-02	 7.603E+02	-4.996E+02	-1.557E+01	 5.333E+00
    4.9000	 1.405E+01	-5.021E-01	-3.790E-01	 7.500E+00	-1.114E-01	-3.401E-01	 0.000E+00	 0.000E+00	 0.000E+00	 5.312E+01	 1.501E+03	 9.194E+00	 1.835E+00	-2.714E+02	 1.693E+02	 1.252E+02	 1.853E-01	-2.471E-02	 7.666E+02	-5.515E+02	 5.213E+01	 4.923E+00
    4.9500	 1.413E+01	-7.961E-01	 2.180E-01	 7.500E+00	-1.114E-01	-3.601E-01	 0.000E+00	 0.000E+00	 0.000E+00	 1.176E+02	 1.470E+03	 8.379E+00	 2.157E+00	-2.704E+02	 1.139E+02	 1.860E+02	 1.837E-01	-2.541E-02	 7.808E+02	-6.069E+02	 1.107E+02	 4.418E+00
    5.0000	 1.418E+01	-5.934E-01	 2.237E-01	 7.500E+00	-1.040E-01	-3.807E-01	 0.000E+00	 0.000E+00	 0.000E+00	 1.867E+02	 1.440E+03	 7.438E+00	 1.407E+00	-2.689E+02	 5.751E+01	 2.152E+02	 1.842E-01	-2.616E-02	 7.871E+02	-6.569E+02	 1.421E+02	 4.227E+00
    5.0500	 1.467E+01	-4.547E-01	 1.895E-01	 2.600E+00	 4.192E-03	-2.724E-01	 0.000E+00	 0.000E+00	 0.000E+00	 3.319E+02	 1.455E+03	 7.002E+00	-1.289E+00	-2.677E+02	 3.839E+01	 2.733E+02	 1.868E-01	-2.688E-02	 6.864E+02	-6.651E+02	 2.192E+02	 3.903E+00
    5.1000	 1.462E+01	-9.675E-02	-1.370E-02	 2.600E+00	-3.396E-02	-3.442E-01	 0.000E+00	 0.000E+00	 0.000E+00	 4.440E+02	 1.488E+03	 4.160E+00	-8.823E-01	-2.666E+02	 6.380E+01	 2.561E+02	 1.918E-01	-2.760E-02	 7.983E+02	-6.320E+02	 1.895E+02	 3.822E+00
    5.1500	 1.437E+01	-2.189E-02	-6.506E-02	 2.600E+00	-4.931E-02	-3.897E-01	 0.000E+00	 0.000E+00	 0.000E+00	 5.160E+02	 1.606E+03	 3.543E+00	-1.155E+00	-2.688E+02	 8.990E+01	 2.731E+02	 1.988E-01	-2.847E-02	 8.569E+02	-6.021E+02	 2.022E+02	 3.994E+00
    5.2000	 1.402E+01	 6.575E-02	-8.629E-01	 2.600E+00	-3.198E-02	-3.958E-01	 0.000E+00	 0.000E+00	 0.000E+00	 5.290E+02	 1.765E+03	 4.579E+00	-2.263E+00	-2.721E+02	 7.254E+01	 2.972E+02	 2.080E-01	-2.950E-02	 7.991E+02	-6.119E+02	 2.366E+02	 3.946E+00
    5.2500	 1.398E+01	-3.798E-01	-1.481E+00	 2.600E+00	-1.275E-02	-3.903E-01	 0.000E+00	 0.000E+00	 0.000E+00	 5.329E+02	 1.893E+03	 5.689E+00	-2.527E+00	-2.742E+02	 7.024E+01	 3.109E+02	 2.200E-01	-3.053E-02	 7.341E+02	-6.043E+02	 2.580E+02	 3.835E+00
    5.3000	 1.468E+01	-5.952E-01	-2.111E+00	 2.600E+00	-2.209E-02	-4.011E-01	 0.000E+00	 0.000E+00	 0.000E+00	 5.564E+02	 1.940E+03	 5.159E+00	 2.448E-01	-2.739E+02	 8.349E+01	 3.102E+02	 2.350E-01	-3.141E-02	 7.338E+02	-5.765E+02	 2.476E+02	 3.710E+00
    5.3500	 1.481E+01	-5.222E-01	-2.159E+00	 2.600E+00	-5.881E-02	-4.256E-01	 0.000E+00	 0.000E+00	 0.000E+00	 5.918E+02	 1.926E+03	 3.708E+00	 3.116E+00	-2.715E+02	 1.344E+02	 3.045E+02	 2.530E-01	-3.215E-02	 7.757E+02	-5.085E+02	 2.274E+02	 3.826E+00
    5.4000	 1.420E+01	-6.921E-01	-1.950E+00	 2.600E+00	-9.954E-02	-4.422E-01	 0.000E+00	 0.000E+00	 0.000E+00	 6.146E+02	 1.892E+03	 2.865E+00	 3.109E+00	-2.682E+02	 1.859E+02	 2.874E+02	 2.734E-01	-3.280E-02	 8.078E+02	-4.354E+02	 2.069E+02	 3.534E+00
    5.4500	 1.418E+01	-8.016E-01	-2.065E+00	 2.600E+00	-1.272E-01	-4.400E-01	 0.000E+00	 0.000E+00	 0.000E+00	 6.143E+02	 1.843E+03	 2.665E+00	 9.878E-01	-2.650E+02	 1.672E+02	 2.434E+02	 2.956E-01	-3.344E-02	 8.031E+02	-4.253E+02	 1.712E+02	 3.375E+00
    5.5000	 1.486E+01	-3.086E-01	-2.092E+00	 2.600E+00	-1.449E-01	-4.291E-01	 0.000E+00	 0.000E+00	 0.000E+00	 6.083E+02	 1.780E+03	 2.907E+00	-2.974E+00	-2.631E+02	 1.621E+02	 1.624E+02	 3.191E-01	-3.402E-02	 7.796E+02	-4.065E+02	 1.064E+02	 2.774E+00
    5.5500	 1.433E+01	-2.410E-01	-2.284E+00	 2.600E+00	-1.642E-01	-4.227E-01	 0.000E+00	 0.000E+00	 0.000E+00	 6.089E+02	 1.735E+03	 2.946E+00	-5.185E+00	-2.629E+02	 1.686E+02	 1.104E+02	 3.434E-01	-3.446E-02	 7.701E+02	-3.819E+02	 6.278E+01	 2.670E+00
    5.6000	 1.469E+01	-3.123E-01	-1.957E+00	 2.600E+00	-1.890E-01	-4.241E-01	 0.000E+00	 0.000E+00	 0.000E+00	 6.119E+02	 1.719E+03	 2.297E+00	-5.331E+00	-2.629E+02	 2.028E+02	 9.983E+01	 3.681E-01	-3.478E-02	 7.756E+02	-3.314E+02	 5.142E+01	 2.764E+00
    5.6500	 1.399E+01	-9.367E-01	-2.262E+00	 2.600E+00	-2.135E-01	-4.279E-01	 0.000E+00	 0.000E+00	 0.000E+00	 6.116E+02	 1.735E+03	 1.901E+00	-3.654E+00	-2.632E+02	 2.144E+02	 1.209E+02	 3.928E-01	-3.507E-02	 7.846E+02	-2.999E+02	 6.509E+01	 2.621E+00